Title
82305
    1SAPS     N    1   5.988   2.440  11.092  0.4835  0.2668  0.4416
    1SAPS   HN1    2   5.916   2.401  11.156  0.4210 -0.9338 -0.3565
    1SAPS   HN2    3   5.945   2.524  11.050 -1.5360 -0.9030  0.1072
    1SAPS   HN3    4   6.009   2.368  11.020 -3.1840 -0.9748  0.5277
    1SAPS   C12    5   6.116   2.459  11.176 -0.5004 -0.0725  0.3426
    1SAPS  H12A    6   6.182   2.530  11.127  1.2831 -2.9044 -1.4606
    1SAPS   C13    7   6.079   2.519  11.318  0.1329  0.2156  0.2239
    1SAPS  O13A    8   5.962   2.548  11.348 -0.0386  0.5241  0.0567
    1SAPS  O13B    9   6.172   2.559  11.392  0.2530  0.0675  0.6289
    1SAPS   C11   10   6.191   2.327  11.189  0.2001 -0.4109  0.0709
    1SAPS  H11A   11   6.131   2.245  11.235  0.2259 -1.1975 -1.2592
    1SAPS  H11B   12   6.284   2.344  11.246 -0.4166  0.9604  0.6815
    1SAPS     P   13   6.373   2.273  11.010  0.2885 -0.0032  0.0024
    1SAPS   O13   14   6.426   2.412  11.006 -0.2240 -0.1165 -0.6101
    1SAPS   O14   15   6.443   2.170  11.084 -0.7146 -0.6170  0.1067
    1SAPS   O12   16   6.228   2.274  11.062  0.3319 -0.0668 -0.3293
    1SAPS   O11   17   6.369   2.231  10.854  0.0853 -0.3108 -0.6404
    1SAPS    C1   18   6.248   2.231  10.776 -0.0083  0.8038 -0.1501
    1SAPS    HA   19   6.281   2.182  10.682  0.3344  2.5398 -0.9544
    1SAPS    HB   20   6.172   2.167  10.825  1.5317  0.0171  1.2601
    1SAPS    C2   21   6.202   2.378  10.736 -0.1639  0.1207  0.0444
    1SAPS    HS   22   6.186   2.425  10.835  0.0348  2.2637 -0.9021
    1SAPS   O21   23   6.090   2.376  10.653 -0.0161 -0.5584  0.2874
    1SAPS   C21   24   5.975   2.355  10.722  1.2072 -0.1315  0.0039
    1SAPS   O22   25   5.975   2.330  10.841  0.0214  0.3965 -0.0238
    1SAPS   C22   26   5.855   2.358  10.623 -0.6425 -0.2775  0.5085
    1SAPS   H2R   27   5.837   2.457  10.575  2.8970  1.4238  2.4475
    1SAPS   H2S   28   5.874   2.285  10.542  1.4438  1.0049 -0.2006
    1SAPS    C3   29   6.321   2.447  10.661  0.3933 -0.0654 -0.0244
    1SAPS    HX   30   6.404   2.448  10.735 -0.1973  1.1824  0.6396
    1SAPS    HY   31   6.294   2.551  10.634  2.1834 -0.1094 -2.1396
    1SAPS   O31   32   6.355   2.388  10.532 -0.7371 -0.2683  0.2444
    1SAPS   C31   33   6.477   2.405  10.493  0.3202  0.5059  0.0376
    1SAPS   O32   34   6.556   2.484  10.541  0.5124  0.0570  0.0680
    1SAPS   C32   35   6.517   2.301  10.387 -0.4086  0.1837 -1.0202
    1SAPS   H2X   36   6.443   2.218  10.379  0.5056 -0.8621  0.8961
    1SAPS   H2Y   37   6.601   2.256  10.445  0.0128  1.0206 -0.9804
    1SAPS   C23   38   5.718   2.336  10.698 -0.3914  0.0275 -0.1765
    1SAPS   H3R   39   5.701   2.427  10.759 -2.0294 -0.0625 -0.4761
    1SAPS   H3S   40   5.728   2.246  10.762  1.8717 -0.5523 -1.2725
    1SAPS   C24   41   5.595   2.321  10.608 -0.4185  0.5389  0.1794
    1SAPS   H4R   42   5.601   2.412  10.544  0.0673  0.6672  0.4001
    1SAPS   H4S   43   5.504   2.320  10.672 -1.4418 -1.0996 -1.2524
    1SAPS   C25   44   5.599   2.193  10.529 -0.4993  0.0758 -0.1870
    1SAPS   H5R   45   5.598   2.097  10.583 -1.8741  0.0497 -0.2468
    1SAPS   C26   46   5.599   2.182  10.398  0.0329 -0.0517 -0.6320
    1SAPS   H6R   47   5.593   2.084  10.349  0.9925  0.7762 -2.4608
    1SAPS   C27   48   5.591   2.291  10.293 -0.6164 -0.0517 -0.3821
    1SAPS   H7R   49   5.522   2.369  10.331  0.6303 -0.1026  2.0741
    1SAPS   H7S   50   5.526   2.244  10.216  1.0024 -2.3040 -0.4412
    1SAPS   C28   51   5.716   2.348  10.232  0.2488 -0.3813  0.4437
    1SAPS   H8R   52   5.747   2.433  10.294 -0.6072  0.8795 -0.8458
    1SAPS   C29   53   5.778   2.307  10.120 -0.5587 -0.0968  0.2467
    1SAPS   H9R   54   5.878   2.351  10.105  0.3659 -2.0456  0.4352
    1SAPS  C210   55   5.733   2.186  10.036 -0.8694 -0.3780 -0.1132
    1SAPS  H10R   56   5.646   2.220   9.976  0.2480 -0.0983 -1.6159
    1SAPS  H10S   57   5.688   2.100  10.091 -3.5239  0.6002 -0.6495
    1SAPS  C211   58   5.852   2.141   9.959 -0.2013  0.9069  0.1757
    1SAPS  H11R   59   5.934   2.094  10.014 -0.7005 -0.4876 -0.2521
    1SAPS  C212   60   5.875   2.159   9.828  0.3434 -0.4669  0.1155
    1SAPS  H12R   61   5.976   2.131   9.794 -0.1969 -0.9731 -1.1021
    1SAPS  C213   62   5.782   2.226   9.736  0.4366  0.0076  0.4559
    1SAPS  H13R   63   5.832   2.275   9.650 -0.1177  0.8200  0.5884
    1SAPS  H13S   64   5.725   2.308   9.785  2.0381  0.4266  1.6263
    1SAPS  C214   65   5.687   2.123   9.684  0.1514  0.0335  0.0364
    1SAPS  H14R   66   5.642   2.056   9.758  0.0240 -0.3023 -0.3418
    1SAPS  C215   67   5.643   2.112   9.556  0.3461 -0.4341  0.5210
    1SAPS  H15R   68   5.567   2.035   9.531 -0.7514  0.6198  0.5515
    1SAPS  C216   69   5.686   2.199   9.440 -0.2027 -0.1877 -0.0169
    1SAPS  H16R   70   5.794   2.185   9.421  0.3000  0.9034  1.8123
    1SAPS  H16S   71   5.662   2.308   9.447  2.7721  0.5768 -0.9357
    1SAPS  C217   72   5.597   2.167   9.316  0.5768  0.2994  0.2571
    1SAPS  H17R   73   5.631   2.240   9.240  2.6070 -0.3201  0.5563
    1SAPS  H17S   74   5.489   2.171   9.343  1.1401  3.7894  2.3066
    1SAPS  C218   75   5.618   2.030   9.245 -0.1148 -0.3681  0.3509
    1SAPS  H18R   76   5.580   1.951   9.313 -1.1967  0.9379  1.2891
    1SAPS  H18S   77   5.726   2.007   9.234 -0.1364 -0.2758 -0.0411
    1SAPS  C219   78   5.548   2.006   9.106 -0.1815  0.0926 -0.0945
    1SAPS  H19R   79   5.604   2.057   9.025 -1.1945 -1.0143 -1.5119
    1SAPS  H19S   80   5.452   2.061   9.112  1.1101  2.6134 -1.6277
    1SAPS  C220   81   5.526   1.861   9.081 -0.1340 -0.0021  0.0391
    1SAPS  H20R   82   5.487   1.828   9.179 -2.1675  0.1668 -0.6949
    1SAPS  H20S   83   5.622   1.813   9.052 -0.4893 -1.1177  0.7119
    1SAPS  H20T   84   5.442   1.847   9.010 -0.2436  0.0380  0.1636
    1SAPS   C33   85   6.568   2.344  10.250 -0.0797  0.2914 -0.0908
    1SAPS   H3X   86   6.479   2.382  10.196  2.0014  3.7339 -1.2068
    1SAPS   H3Y   87   6.594   2.247  10.202 -0.1208 -0.9532  2.3036
    1SAPS   C34   88   6.680   2.440  10.243 -0.2262 -0.2498  0.4540
    1SAPS   H4X   89   6.754   2.378  10.299  1.0254  1.1874  0.4107
    1SAPS   H4Y   90   6.665   2.527  10.310  1.8527  0.6181 -0.1654
    1SAPS   C35   91   6.724   2.478  10.107  0.1010 -0.1741  0.5837
    1SAPS   H5X   92   6.650   2.546  10.060  0.4754  1.5571  2.4390
    1SAPS   H5Y   93   6.728   2.383  10.051 -3.1257  0.2723 -0.5168
    1SAPS   C36   94   6.873   2.529  10.103 -1.0095  0.0838 -0.8719
    1SAPS   H6X   95   6.943   2.463  10.159 -1.2415  0.3226 -0.2865
    1SAPS   H6Y   96   6.879   2.627  10.154 -0.3076  0.7942 -2.3081
    1SAPS   C37   97   6.931   2.546   9.963 -0.7486 -0.0076 -0.1406
    1SAPS   H7X   98   6.941   2.442   9.924 -0.8090 -0.2145  0.3805
    1SAPS   H7Y   99   7.024   2.607   9.968  0.2324 -1.0088 -4.3402
    1SAPS   C38  100   6.840   2.613   9.865 -0.7761 -0.3082 -0.4604
    1SAPS   H8X  101   6.816   2.712   9.910 -1.2672 -0.3097 -0.7229
    1SAPS   H8Y  102   6.751   2.547   9.857  0.4635 -2.0509 -0.2012
    1SAPS   C39  103   6.891   2.634   9.717 -0.3640 -0.1576  0.0241
    1SAPS   H9X  104   6.923   2.531   9.690 -4.7839 -1.8378  0.7699
    1SAPS   H9Y  105   6.985   2.692   9.726  0.4405 -1.2557 -1.2033
    1SAPS  C310  106   6.784   2.690   9.622 -0.2529  0.6750 -0.0668
    1SAPS  H10X  107   6.733   2.780   9.662  0.6967 -0.5549  4.2507
    1SAPS  H10Y  108   6.707   2.610   9.617  1.0116 -0.6980  1.6742
    1SAPS  C311  109   6.839   2.715   9.486 -0.1836 -0.0339  0.3787
    1SAPS  H11X  110   6.894   2.621   9.462 -0.5860 -0.7378  2.1256
    1SAPS  H11Y  111   6.911   2.799   9.487 -0.3580  0.1200  2.4644
    1SAPS  C312  112   6.739   2.738   9.374 -0.4187 -0.5965  0.2039
    1SAPS  H12X  113   6.680   2.827   9.406 -0.4584 -0.8725  0.9083
    1SAPS  H12Y  114   6.682   2.643   9.360  0.7336 -0.8793 -2.7315
    1SAPS  C313  115   6.800   2.768   9.235  0.2717 -0.0626 -0.3793
    1SAPS  H13X  116   6.881   2.702   9.199  0.9082  1.1548 -1.1906
    1SAPS  H13Y  117   6.847   2.864   9.264 -0.5637  0.4412 -0.6904
    1SAPS  C314  118   6.687   2.792   9.128 -0.3456  0.5483 -0.3028
    1SAPS  H14X  119   6.617   2.872   9.159 -2.7055 -2.4129  2.3465
    1SAPS  H14Y  120   6.627   2.698   9.125 -1.1910  1.0952 -0.7013
    1SAPS  C315  121   6.734   2.813   8.982 -0.4590 -0.1188  0.4048
    1SAPS  H15X  122   6.792   2.723   8.951  2.0539  0.9840  1.7007
    1SAPS  H15Y  123   6.806   2.898   8.984  0.0584 -0.4969 -1.1506
    1SAPS  C316  124   6.627   2.830   8.879 -0.3704  0.3841 -0.5655
    1SAPS  H16X  125   6.666   2.875   8.785 -0.6750  1.4507 -0.1960
    1SAPS  H16Y  126   6.570   2.918   8.918 -0.6201 -0.2277  0.4651
    1SAPS  C317  127   6.551   2.705   8.864 -0.5138  0.5356  0.4472
    1SAPS  H17X  128   6.509   2.665   8.959 -1.4312 -0.9011 -0.5309
    1SAPS  H17Y  129   6.618   2.628   8.821  0.2585  0.4104  1.8635
    1SAPS  C318  130   6.438   2.717   8.770  0.2103 -0.7761  0.1485
    1SAPS  H18X  131   6.388   2.619   8.757 -0.8106 -0.4241  1.2794
    1SAPS  H18Y  132   6.466   2.734   8.663 -1.1990 -1.5232 -0.3621
    1SAPS  H18Z  133   6.363   2.794   8.798 -1.5657 -3.0773  1.8869
    2SAPS     N  134   3.981   2.204  10.766 -0.4016 -0.1870 -0.1694
    2SAPS   HN1  135   3.883   2.179  10.789 -0.1974 -1.7171 -0.8911
    2SAPS   HN2  136   3.985   2.241  10.668  1.6262 -0.7939 -0.3341
    2SAPS   HN3  137   4.046   2.124  10.777  0.2800  0.0275 -2.2943
    2SAPS   C12  138   4.022   2.308  10.865  0.2612 -0.4224 -0.1252
    2SAPS  H12A  139   3.952   2.391  10.861  0.7519 -0.0263 -0.5558
    2SAPS   C13  140   4.031   2.256  11.010 -0.6601  0.4324  0.1813
    2SAPS  O13A  141   3.979   2.145  11.034  0.0824 -0.3163 -0.3444
    2SAPS  O13B  142   4.071   2.333  11.104  0.8789  0.2440 -0.3649
    2SAPS   C11  143   4.166   2.354  10.823  0.8161 -0.5763  0.1147
    2SAPS  H11A  144   4.237   2.269  10.817  1.4467 -0.0150 -0.6812
    2SAPS  H11B  145   4.196   2.435  10.892  1.2376 -0.7981  0.1942
    2SAPS     P  146   4.134   2.563  10.657  0.2142 -0.2032  0.0613
    2SAPS   O13  147   3.990   2.573  10.686  0.5576 -0.5170 -0.5057
    2SAPS   O14  148   4.222   2.658  10.722  0.0418 -0.7470 -0.8991
    2SAPS   O12  149   4.169   2.407  10.691  0.3370 -0.4322 -0.1591
    2SAPS   O11  150   4.140   2.566  10.504  0.1521  0.0823 -0.3735
    2SAPS    C1  151   4.240   2.527  10.409  0.2767  0.3140 -0.5388
    2SAPS    HA  152   4.284   2.425  10.425 -2.2216 -1.2203 -3.1065
    2SAPS    HB  153   4.198   2.516  10.307  0.7226 -2.2998 -0.4928
    2SAPS    C2  154   4.354   2.629  10.390  0.5968 -0.2701 -0.1686
    2SAPS    HS  155   4.410   2.643  10.485  1.0340  0.2529 -0.5048
    2SAPS   O21  156   4.303   2.754  10.345 -0.4102 -0.3254 -0.6535
    2SAPS   C21  157   4.392   2.849  10.369 -0.3273 -0.0723  0.2552
    2SAPS   O22  158   4.497   2.842  10.430 -0.6273  0.5034 -0.5481
    2SAPS   C22  159   4.325   2.976  10.311 -0.3997  0.0931  0.1352
    2SAPS   H2R  160   4.231   2.951  10.257 -1.0942  2.3305  0.2514
    2SAPS   H2S  161   4.298   3.031  10.404  0.4828  1.9559 -0.6772
    2SAPS    C3  162   4.469   2.557  10.303  0.6371 -0.5967  0.2787
    2SAPS    HX  163   4.536   2.495  10.367  2.6602  1.4225  0.2016
    2SAPS    HY  164   4.542   2.638  10.277  0.0797  0.4727  1.9562
    2SAPS   O31  165   4.419   2.501  10.183 -0.1452 -0.7278  0.0905
    2SAPS   C31  166   4.393   2.583  10.074 -0.4323 -1.0717  0.6049
    2SAPS   O32  167   4.409   2.708  10.076 -0.3273 -0.0317 -0.6726
    2SAPS   C32  168   4.349   2.502   9.956 -0.1398 -0.1654  0.1656
    2SAPS   H2X  169   4.339   2.575   9.873 -0.5686  1.5697  1.7090
    2SAPS   H2Y  170   4.250   2.454   9.973  0.2052 -1.5252 -1.5795
    2SAPS   C23  171   4.425   3.058  10.232  0.4620  0.5484 -0.2660
    2SAPS   H3R  172   4.447   3.013  10.133 -2.5631 -0.9309 -0.3269
    2SAPS   H3S  173   4.517   3.064  10.294  0.4308  2.4926 -0.3520
    2SAPS   C24  174   4.392   3.195  10.177  0.1640 -0.8813 -0.1193
    2SAPS   H4R  175   4.474   3.220  10.107 -0.4605 -0.6931 -0.7838
    2SAPS   H4S  176   4.385   3.268  10.260  0.4051  0.3589 -1.1859
    2SAPS   C25  177   4.262   3.198  10.114 -0.6751 -0.1446  0.0040
    2SAPS   H5R  178   4.179   3.235  10.176 -3.4611 -1.0183 -3.0500
    2SAPS   C26  179   4.237   3.172   9.986  0.3176 -0.1620 -0.5245
    2SAPS   H6R  180   4.130   3.173   9.959  0.2004 -4.6250 -0.5308
    2SAPS   C27  181   4.342   3.145   9.880 -0.2092  0.3139  0.1561
    2SAPS   H7R  182   4.442   3.155   9.926 -0.6727  0.2171  1.2065
    2SAPS   H7S  183   4.330   3.204   9.786 -1.9437 -0.6332 -0.2378
    2SAPS   C28  184   4.348   2.995   9.840  0.3750 -0.2825  0.3279
    2SAPS   H8R  185   4.305   2.924   9.912  0.1772  1.9616  2.4741
    2SAPS   C29  186   4.402   2.951   9.724  0.1821  0.2693 -0.0252
    2SAPS   H9R  187   4.394   2.842   9.716  3.9382 -0.1785  1.4565
    2SAPS  C210  188   4.465   3.023   9.614  0.1514 -0.1530 -0.4943
    2SAPS  H10R  189   4.546   2.953   9.585  1.0925  0.5935  0.3190
    2SAPS  H10S  190   4.509   3.122   9.639  0.3981  0.1293 -2.0044
    2SAPS  C211  191   4.370   3.055   9.499  0.3672 -0.1775  0.1014
    2SAPS  H11R  192   4.270   3.091   9.528  0.1549 -0.6719 -0.0205
    2SAPS  C212  193   4.399   3.030   9.367 -0.3106 -0.5419  0.3567
    2SAPS  H12R  194   4.319   3.062   9.299 -0.4231  3.2667  2.1439
    2SAPS  C213  195   4.524   2.983   9.300  1.0140  0.2558 -0.8440
    2SAPS  H13R  196   4.558   2.888   9.346  2.2258  1.2259  0.3235
    2SAPS  H13S  197   4.614   3.039   9.334  1.2038 -0.9719  0.7511
    2SAPS  C214  198   4.524   2.975   9.150 -0.0082  0.5785  0.2783
    2SAPS  H14R  199   4.532   3.065   9.088 -1.3162  1.6787  1.6881
    2SAPS  C215  200   4.502   2.860   9.080 -1.7308 -0.1114 -0.1751
    2SAPS  H15R  201   4.488   2.863   8.971 -2.5032  1.6866 -0.0419
    2SAPS  C216  202   4.481   2.722   9.133  0.1593 -0.0986  0.0016
    2SAPS  H16R  203   4.387   2.676   9.096  1.1083  0.1613 -2.8831
    2SAPS  H16S  204   4.467   2.735   9.242 -0.9766  2.1203 -0.3780
    2SAPS  C217  205   4.596   2.628   9.106 -0.1307  0.4127 -0.6608
    2SAPS  H17R  206   4.570   2.531   9.152  2.5902  0.5218  1.2433
    2SAPS  H17S  207   4.691   2.672   9.144  0.3085  0.5113 -1.8491
    2SAPS  C218  208   4.609   2.581   8.958  0.8710 -0.0093  0.1908
    2SAPS  H18R  209   4.570   2.664   8.895  0.8515 -0.3129 -0.1990
    2SAPS  H18S  210   4.531   2.503   8.944  0.5714  0.1054  1.1357
    2SAPS  C219  211   4.748   2.530   8.914  0.4400  0.3513  0.2443
    2SAPS  H19R  212   4.762   2.449   8.988 -2.6008  0.3495  0.8749
    2SAPS  H19S  213   4.818   2.616   8.921 -0.7300  1.4655 -1.5319
    2SAPS  C220  214   4.755   2.477   8.778 -0.1089 -0.1786  0.3205
    2SAPS  H20R  215   4.851   2.425   8.759  0.3934  0.4669  1.0734
    2SAPS  H20S  216   4.746   2.537   8.685 -1.3232 -0.6458  0.1159
    2SAPS  H20T  217   4.678   2.398   8.761  0.3252 -0.1337 -2.0017
    2SAPS   C33  218   4.463   2.409   9.918 -0.4366 -0.8795  0.1880
    2SAPS   H3X  219   4.462   2.334  10.001 -0.6838 -2.0403 -0.8471
    2SAPS   H3Y  220   4.560   2.462   9.911 -0.5331 -0.5364  1.3149
    2SAPS   C34  221   4.436   2.335   9.788 -0.1891 -0.2733  0.3078
    2SAPS   H4X  222   4.328   2.313   9.802  0.1045 -0.4906  2.3936
    2SAPS   H4Y  223   4.506   2.248   9.784 -0.3477 -0.3823 -0.1420
    2SAPS   C35  224   4.454   2.419   9.660  0.3325 -0.0695  0.2166
    2SAPS   H5X  225   4.562   2.411   9.638  0.3959 -0.9252  0.7998
    2SAPS   H5Y  226   4.422   2.524   9.676 -2.7411 -1.0919  1.2349
    2SAPS   C36  227   4.366   2.367   9.546  0.5199 -0.0059 -0.1809
    2SAPS   H6X  228   4.261   2.352   9.580  0.7127 -0.4966  0.1952
    2SAPS   H6Y  229   4.395   2.262   9.522  1.3810  0.6348 -2.0666
    2SAPS   C37  230   4.353   2.459   9.422 -0.4661 -0.2262 -0.0900
    2SAPS   H7X  231   4.440   2.465   9.354 -1.1560  0.1466 -0.9618
    2SAPS   H7Y  232   4.332   2.562   9.456 -0.1099 -0.4085  0.6704
    2SAPS   C38  233   4.229   2.430   9.340  0.1283 -0.0939 -0.9696
    2SAPS   H8X  234   4.230   2.514   9.267 -0.4493  0.6904 -0.0859
    2SAPS   H8Y  235   4.146   2.442   9.413 -0.6493 -0.5992 -1.7504
    2SAPS   C39  236   4.225   2.302   9.258 -0.7269 -0.0921 -0.2944
    2SAPS   H9X  237   4.135   2.303   9.192  0.6998  0.4281 -2.2552
    2SAPS   H9Y  238   4.221   2.215   9.326 -1.1005 -0.6447 -1.0154
    2SAPS  C310  239   4.344   2.295   9.163  0.4048  0.1136 -0.3515
    2SAPS  H10X  240   4.432   2.275   9.227  1.2878  0.2574 -1.5014
    2SAPS  H10Y  241   4.362   2.398   9.124 -1.5045  1.0371  1.1416
    2SAPS  C311  242   4.328   2.196   9.048  0.1429 -0.5043  0.7626
    2SAPS  H11X  243   4.220   2.199   9.022  0.7128 -0.6780 -1.7631
    2SAPS  H11Y  244   4.358   2.091   9.070 -0.4842 -0.8445  0.0180
    2SAPS  C312  245   4.413   2.243   8.925 -0.0142  0.3715  0.3890
    2SAPS  H12X  246   4.521   2.242   8.950  0.0690  0.9425  0.0692
    2SAPS  H12Y  247   4.390   2.351   8.911  1.4270  0.5015 -1.2022
    2SAPS  C313  248   4.386   2.156   8.805  0.1747 -0.1095  0.4623
    2SAPS  H13X  249   4.311   2.076   8.823  0.1046 -0.0082  0.6233
    2SAPS  H13Y  250   4.482   2.104   8.784 -0.2267 -0.9898  0.7981
    2SAPS  C314  251   4.354   2.243   8.677  0.0678  0.0436 -0.0227
    2SAPS  H14X  252   4.440   2.308   8.650 -0.0006  0.8316  1.6156
    2SAPS  H14Y  253   4.278   2.318   8.707 -0.7698 -1.0908  0.7297
    2SAPS  C315  254   4.306   2.163   8.556  0.2451  0.8717  0.8431
    2SAPS  H15X  255   4.266   2.239   8.486  1.3439 -0.1217 -0.8722
    2SAPS  H15Y  256   4.226   2.089   8.577 -1.7146  2.1353 -1.8821
    2SAPS  C316  257   4.412   2.083   8.480  0.3483 -0.3458 -0.3310
    2SAPS  H16X  258   4.484   2.039   8.552 -0.1147  1.3093  1.2016
    2SAPS  H16Y  259   4.483   2.152   8.429 -0.0784 -1.1128 -1.9916
    2SAPS  C317  260   4.357   1.981   8.375 -0.4636 -0.0199  0.0968
    2SAPS  H17X  261   4.313   2.041   8.293  1.2589  0.3420 -0.5796
    2SAPS  H17Y  262   4.277   1.914   8.413  0.8226 -2.4016 -1.2367
    2SAPS  C318  263   4.464   1.894   8.315  0.3318  0.4089 -0.0043
    2SAPS  H18X  264   4.416   1.829   8.239  0.1475 -1.3010  1.5511
    2SAPS  H18Y  265   4.514   1.829   8.390 -1.0610 -2.3942 -1.4337
    2SAPS  H18Z  266   4.537   1.954   8.256 -0.5561 -1.0281 -2.6459
    3SAPS     N  267   4.855   4.223  11.110  0.2410  0.4548 -0.3596
    3SAPS   HN1  268   4.927   4.284  11.153 -2.8944  2.8071  1.7270
    3SAPS   HN2  269   4.902   4.163  11.039 -1.0104 -2.7914  1.4746
    3SAPS   HN3  270   4.799   4.294  11.059 -1.0745 -0.4010 -0.1280
    3SAPS   C12  271   4.760   4.143  11.201  0.2168  0.3278  0.2299
    3SAPS  H12A  272   4.689   4.090  11.140  0.3030  0.8839 -0.3499
    3SAPS   C13  273   4.832   4.034  11.282  0.0920  0.3565  0.4143
    3SAPS  O13A  274   4.953   4.016  11.267  0.1922  0.5467  0.1548
    3SAPS  O13B  275   4.759   3.964  11.357  0.1135  0.1147 -0.6117
    3SAPS   C11  276   4.669   4.231  11.296  0.0947  0.8449 -0.1645
    3SAPS  H11A  277   4.737   4.297  11.353  0.6388  0.0882  0.0528
    3SAPS  H11B  278   4.615   4.174  11.374  0.2329  0.7731 -0.1206
    3SAPS     P  279   4.597   4.463  11.175 -0.1810  0.1770 -0.2990
    3SAPS   O13  280   4.597   4.554  11.289 -0.3027  0.2764  0.0852
    3SAPS   O14  281   4.716   4.468  11.086 -0.0935 -0.6071  0.7012
    3SAPS   O12  282   4.565   4.317  11.230  0.2601 -0.8911  0.6390
    3SAPS   O11  283   4.463   4.482  11.082 -0.6914  0.0841  0.3244
    3SAPS    C1  284   4.419   4.375  11.000  0.1164  0.0144 -0.0281
    3SAPS    HA  285   4.413   4.283  11.062 -0.1506 -0.4991 -0.8108
    3SAPS    HB  286   4.318   4.398  10.961 -0.4385 -0.6548  1.0204
    3SAPS    C2  287   4.514   4.376  10.872 -0.2602 -0.4788 -0.2184
    3SAPS    HS  288   4.618   4.390  10.908 -0.4001  0.4925 -0.1798
    3SAPS   O21  289   4.468   4.489  10.794 -0.3821  0.5633 -0.4688
    3SAPS   C21  290   4.567   4.547  10.729  0.0547 -0.0655 -0.2555
    3SAPS   O22  291   4.685   4.517  10.745 -0.6593  0.2194  0.3361
    3SAPS   C22  292   4.500   4.657  10.640  0.3310  0.2978  0.0104
    3SAPS   H2R  293   4.430   4.605  10.571 -1.0993  1.8199  0.2889
    3SAPS   H2S  294   4.444   4.721  10.711  0.8379 -1.0251  1.6413
    3SAPS    C3  295   4.514   4.248  10.793  0.3414  0.5458  0.2546
    3SAPS    HX  296   4.552   4.177  10.869  1.6195  0.6359 -0.2834
    3SAPS    HY  297   4.590   4.250  10.713 -1.2288 -0.8966 -1.3088
    3SAPS   O31  298   4.383   4.198  10.742 -0.1883  0.4369  0.4892
    3SAPS   C31  299   4.354   4.244  10.622  0.2124 -0.3647  0.4986
    3SAPS   O32  300   4.427   4.313  10.550  0.0103  0.0528  0.1466
    3SAPS   C32  301   4.206   4.195  10.600  0.0399  0.2427  0.4323
    3SAPS   H2X  302   4.139   4.245  10.673 -0.3569 -1.6397  1.3796
    3SAPS   H2Y  303   4.196   4.086  10.619  0.4470  0.6752  3.3266
    3SAPS   C23  304   4.612   4.732  10.566 -0.1511  0.6843  0.1549
    3SAPS   H3R  305   4.633   4.669  10.477  0.4063 -0.7947  1.3066
    3SAPS   H3S  306   4.713   4.733  10.613 -0.1482 -1.2344  0.2462
    3SAPS   C24  307   4.577   4.865  10.509  0.0525 -0.2378 -0.0798
    3SAPS   H4R  308   4.568   4.931  10.598 -0.8130  0.8004 -0.9151
    3SAPS   H4S  309   4.470   4.857  10.481 -0.1096  1.3054  0.0612
    3SAPS   C25  310   4.653   4.940  10.402  0.3739  0.0685 -0.0286
    3SAPS   H5R  311   4.746   4.983  10.443  0.3656  0.2606 -0.2100
    3SAPS   C26  312   4.620   4.956  10.270 -1.0307  0.1595  0.0935
    3SAPS   H6R  313   4.691   4.992  10.195 -2.3741  0.2633 -1.1576
    3SAPS   C27  314   4.498   4.889  10.201  0.2770 -0.7786 -0.2527
    3SAPS   H7R  315   4.456   4.808  10.265 -2.5487  2.1255  1.7252
    3SAPS   H7S  316   4.526   4.849  10.101  2.4211  0.6054 -0.2314
    3SAPS   C28  317   4.386   4.987  10.180  0.6561  0.5445  0.0956
    3SAPS   H8R  318   4.322   4.996  10.268 -1.4509 -2.6046 -1.0490
    3SAPS   C29  319   4.364   5.054  10.065 -0.1496 -0.2957 -0.1515
    3SAPS   H9R  320   4.284   5.127  10.048 -0.3442 -0.8827 -1.9329
    3SAPS  C210  321   4.444   5.041   9.934 -0.6004  0.2046 -0.2000
    3SAPS  H10R  322   4.382   4.979   9.866  0.5604  0.2469 -1.3029
    3SAPS  H10S  323   4.535   4.979   9.948 -1.4054 -1.2848 -1.4112
    3SAPS  C211  324   4.486   5.170   9.867 -0.7574  0.1530  0.0006
    3SAPS  H11R  325   4.517   5.248   9.939 -0.0698  1.2866 -1.4952
    3SAPS  C212  326   4.488   5.190   9.734  1.4142 -0.5708 -0.5613
    3SAPS  H12R  327   4.512   5.286   9.687  1.2696 -0.2116  0.0921
    3SAPS  C213  328   4.444   5.090   9.633 -0.2003 -0.3972  0.1274
    3SAPS  H13R  329   4.410   5.143   9.541  1.5711 -0.1406 -0.4080
    3SAPS  H13S  330   4.354   5.031   9.659  0.0109 -0.5490  0.5031
    3SAPS  C214  331   4.550   4.988   9.606 -0.3662 -0.6428 -0.1130
    3SAPS  H14R  332   4.551   4.898   9.669  2.1127 -0.6199 -0.0586
    3SAPS  C215  333   4.652   5.003   9.517 -0.4809 -0.3918 -0.2398
    3SAPS  H15R  334   4.719   4.916   9.507  0.0058  0.0909 -1.3231
    3SAPS  C216  335   4.679   5.120   9.424  0.9176  0.2019  0.0618
    3SAPS  H16R  336   4.762   5.188   9.454 -0.0520  0.9092  1.1472
    3SAPS  H16S  337   4.590   5.186   9.420  0.6053 -0.2402 -0.3961
    3SAPS  C217  338   4.727   5.059   9.289 -0.3209  0.2358 -0.5295
    3SAPS  H17R  339   4.814   4.993   9.305 -0.5286 -0.5750 -2.6868
    3SAPS  H17S  340   4.757   5.146   9.227 -1.4213  0.8558 -0.2128
    3SAPS  C218  341   4.617   4.984   9.210 -0.5422 -0.8453  0.2095
    3SAPS  H18R  342   4.543   5.065   9.190  1.7321  1.2232  0.0210
    3SAPS  H18S  343   4.570   4.912   9.281 -0.7305  0.7686  1.7517
    3SAPS  C219  344   4.673   4.913   9.085  0.0973  0.3854 -0.1091
    3SAPS  H19R  345   4.601   4.836   9.049  0.9301  0.3350 -1.6970
    3SAPS  H19S  346   4.757   4.852   9.126 -0.0911  0.9291  1.1228
    3SAPS  C220  347   4.722   5.007   8.978 -0.0093 -0.0984 -0.7983
    3SAPS  H20R  348   4.817   5.057   9.007 -0.0969 -0.6115  0.4015
    3SAPS  H20S  349   4.653   5.089   8.950 -2.8533 -1.6385  1.3835
    3SAPS  H20T  350   4.736   4.945   8.887  3.7257  0.4067 -0.6513
    3SAPS   C33  351   4.152   4.203  10.456 -0.3535  0.2167 -0.0884
    3SAPS   H3X  352   4.187   4.292  10.400 -0.6254  1.4650  1.6675
    3SAPS   H3Y  353   4.041   4.200  10.458 -0.3743  0.4787 -0.6087
    3SAPS   C34  354   4.184   4.069  10.380 -0.5205 -0.0309  0.6450
    3SAPS   H4X  355   4.138   3.994  10.448  1.6513 -1.2832  0.8148
    3SAPS   H4Y  356   4.293   4.046  10.373 -0.4265  0.9332 -1.7010
    3SAPS   C35  357   4.120   4.045  10.233 -0.5409  0.4449  0.0483
    3SAPS   H5X  358   4.010   4.048  10.245 -0.4497 -1.6044  1.7152
    3SAPS   H5Y  359   4.161   3.946  10.205  2.3368  1.6699 -0.2316
    3SAPS   C36  360   4.163   4.153  10.130  0.5283 -0.4358  0.4698
    3SAPS   H6X  361   4.274   4.163  10.136  0.4673 -0.4123  1.9145
    3SAPS   H6Y  362   4.116   4.250  10.158  2.0679  0.6370 -0.5826
    3SAPS   C37  363   4.122   4.121   9.988  0.2566  0.7147 -0.7501
    3SAPS   H7X  364   4.011   4.125   9.979  0.0183 -1.0369  0.8131
    3SAPS   H7Y  365   4.176   4.029   9.956 -0.0406 -0.7869  2.8485
    3SAPS   C38  366   4.168   4.225   9.888  0.4778  0.3206  0.2384
    3SAPS   H8X  367   4.279   4.223   9.879  0.4724  0.0521  0.2448
    3SAPS   H8Y  368   4.121   4.322   9.915  0.3431  0.4085 -0.2964
    3SAPS   C39  369   4.114   4.194   9.747 -0.2773  0.0483  0.1493
    3SAPS   H9X  370   4.004   4.180   9.745  0.0341 -2.5080  0.1921
    3SAPS   H9Y  371   4.162   4.100   9.714  0.8029  0.2122  1.2093
    3SAPS  C310  372   4.133   4.305   9.637  0.5456 -0.0048  0.0194
    3SAPS  H10X  373   4.237   4.339   9.618 -0.0944  1.8582 -0.2952
    3SAPS  H10Y  374   4.066   4.391   9.660 -2.1210 -2.0740  0.2126
    3SAPS  C311  375   4.089   4.249   9.494  0.5177 -0.0742 -0.6464
    3SAPS  H11X  376   3.982   4.228   9.515  1.2700 -0.2889  3.3103
    3SAPS  H11Y  377   4.132   4.151   9.462 -0.8415 -0.7238 -0.5175
    3SAPS  C312  378   4.118   4.354   9.386 -0.5257 -0.6516 -0.0644
    3SAPS  H12X  379   4.227   4.356   9.362 -0.3148 -0.0804  0.9292
    3SAPS  H12Y  380   4.091   4.449   9.436 -1.1102 -2.3587  3.0319
    3SAPS  C313  381   4.060   4.340   9.248  0.0852  0.6557 -0.0394
    3SAPS  H13X  382   4.076   4.436   9.193 -0.6056  0.7358 -0.1058
    3SAPS  H13Y  383   3.950   4.326   9.254  0.0630  0.5002 -0.7399
    3SAPS  C314  384   4.126   4.228   9.162  0.4707 -0.2728  0.1957
    3SAPS  H14X  385   4.133   4.128   9.209 -1.9097 -0.8621 -0.6506
    3SAPS  H14Y  386   4.228   4.256   9.128 -0.5757  0.7223 -2.2994
    3SAPS  C315  387   4.045   4.207   9.032  0.9485 -0.3258  0.1091
    3SAPS  H15X  388   3.947   4.160   9.055  0.5592 -0.5229 -1.8533
    3SAPS  H15Y  389   4.100   4.144   8.959 -1.0639 -1.4001 -0.5032
    3SAPS  C316  390   4.023   4.340   8.946 -0.0995  0.3180  0.0884
    3SAPS  H16X  391   4.116   4.400   8.933 -0.3970  0.3533 -1.9354
    3SAPS  H16Y  392   3.946   4.405   8.992 -0.9998 -0.8384  0.2465
    3SAPS  C317  393   3.980   4.307   8.806 -0.9374  0.0112 -0.3203
    3SAPS  H17X  394   3.878   4.263   8.813 -0.5343 -0.8626  0.1369
    3SAPS  H17Y  395   4.039   4.234   8.746 -1.1591 -0.7716  0.4054
    3SAPS  C318  396   3.972   4.432   8.722  0.0878  0.6663  0.1041
    3SAPS  H18X  397   3.931   4.399   8.624 -0.4123  2.0210 -0.1547
    3SAPS  H18Y  398   4.070   4.484   8.714 -0.1269  1.2362  1.0854
    3SAPS  H18Z  399   3.909   4.509   8.770  0.2099  1.1554 -0.5079
    4SAPS     N  400   0.814   5.485  10.814  0.9504 -0.8048 -0.0591
    4SAPS   HN1  401   0.841   5.569  10.759  0.2465 -0.8019 -0.4105
    4SAPS   HN2  402   0.905   5.444  10.841  0.5911 -0.4453  1.7578
    4SAPS   HN3  403   0.775   5.424  10.740 -0.8545 -0.2819  0.4205
    4SAPS   C12  404   0.714   5.529  10.918 -0.2671 -0.1160  0.0176
    4SAPS  H12A  405   0.696   5.436  10.970  1.8484 -0.0514  0.9395
    4SAPS   C13  406   0.770   5.627  11.022 -0.0470  0.1561 -0.2425
    4SAPS  O13A  407   0.874   5.695  10.997 -0.4378 -0.5453 -0.5422
    4SAPS  O13B  408   0.695   5.657  11.120  0.1778 -0.2467 -0.0694
    4SAPS   C11  409   0.589   5.574  10.842  0.1422 -0.0880  0.2595
    4SAPS  H11A  410   0.593   5.663  10.776  0.6794  1.0482  1.8042
    4SAPS  H11B  411   0.527   5.602  10.930  2.7550  1.0701  1.8083
    4SAPS     P  412   0.404   5.456  10.698  0.1929  0.1617  0.0056
    4SAPS   O13  413   0.390   5.325  10.634  0.0565  0.1433 -0.0937
    4SAPS   O14  414   0.297   5.502  10.793 -0.1527  0.2999 -0.2834
    4SAPS   O12  415   0.536   5.456  10.777  0.0023 -0.3602  0.4432
    4SAPS   O11  416   0.417   5.569  10.593 -0.1903  0.0918 -0.2390
    4SAPS    C1  417   0.313   5.611  10.506  0.3609  0.0333 -0.6440
    4SAPS    HA  418   0.210   5.575  10.524  0.1557  0.1942 -1.4993
    4SAPS    HB  419   0.298   5.721  10.510  0.7002  0.1041 -1.2939
    4SAPS    C2  420   0.343   5.574  10.360 -0.2495 -0.9266  0.4902
    4SAPS    HS  421   0.269   5.623  10.293  2.0230  0.2160 -1.2582
    4SAPS   O21  422   0.323   5.433  10.345  0.1450 -0.3697 -0.3601
    4SAPS   C21  423   0.197   5.392  10.336  0.0208 -0.5176  0.1428
    4SAPS   O22  424   0.097   5.457  10.357  0.0439  0.3033 -0.4209
    4SAPS   C22  425   0.199   5.239  10.319  0.7641 -0.3779  0.5702
    4SAPS   H2R  426   0.303   5.201  10.332  1.9413  1.4726 -2.9891
    4SAPS   H2S  427   0.134   5.185  10.391 -0.6445 -0.4797 -0.7577
    4SAPS    C3  428   0.476   5.616  10.298 -1.0167  0.1014  0.2904
    4SAPS    HX  429   0.559   5.555  10.341 -1.1994 -1.4751 -1.5003
    4SAPS    HY  430   0.503   5.721  10.322 -0.0930 -0.4864  1.8320
    4SAPS   O31  431   0.476   5.612  10.154 -0.6095 -0.5461  0.4671
    4SAPS   C31  432   0.564   5.534  10.093 -0.3073 -0.5817  0.6672
    4SAPS   O32  433   0.642   5.458  10.146  0.1329  0.4641  0.3625
    4SAPS   C32  434   0.543   5.572   9.945 -0.1738  0.1573  0.0669
    4SAPS   H2X  435   0.624   5.639   9.908  0.2244 -0.3506  0.0057
    4SAPS   H2Y  436   0.450   5.632   9.942 -0.1054  0.4167  2.5823
    4SAPS   C23  437   0.158   5.201  10.172 -0.6386 -0.2313 -0.8656
    4SAPS   H3R  438   0.069   5.257  10.136 -2.4689 -1.8734  1.0485
    4SAPS   H3S  439   0.135   5.093  10.180 -0.5170 -0.3493 -1.9927
    4SAPS   C24  440   0.269   5.220  10.064  0.6119  0.0569 -0.1405
    4SAPS   H4R  441   0.305   5.326  10.065 -0.2566  0.3529  0.4287
    4SAPS   H4S  442   0.213   5.209   9.969 -0.3774 -1.7305  0.6304
    4SAPS   C25  443   0.387   5.127  10.074  0.5317 -0.1297 -0.3649
    4SAPS   H5R  444   0.448   5.143  10.164 -0.2711 -1.8461  0.5055
    4SAPS   C26  445   0.428   5.031   9.984 -0.0832 -1.1135  0.0427
    4SAPS   H6R  446   0.521   4.977  10.003  1.4697  1.6926  0.7225
    4SAPS   C27  447   0.363   4.988   9.853 -0.0178  0.4341  0.6320
    4SAPS   H7R  448   0.271   5.048   9.837 -0.1200 -0.2352 -1.4717
    4SAPS   H7S  449   0.339   4.882   9.875 -2.8072  0.7145 -0.8977
    4SAPS   C28  450   0.450   4.990   9.734 -0.1806 -0.2020  0.6873
    4SAPS   H8R  451   0.558   4.983   9.758 -0.3013 -0.3399  1.2027
    4SAPS   C29  452   0.422   5.013   9.600 -0.2462  0.1588  0.4541
    4SAPS   H9R  453   0.505   5.018   9.528 -0.6379 -1.5690 -0.1523
    4SAPS  C210  454   0.281   5.030   9.548  0.4500  0.7033 -0.3333
    4SAPS  H10R  455   0.209   4.985   9.620  1.5443  0.1988  0.4525
    4SAPS  H10S  456   0.268   4.952   9.470 -0.4761 -1.7305  2.1776
    4SAPS  C211  457   0.230   5.168   9.502  0.6394 -0.1518 -0.3073
    4SAPS  H11R  458   0.216   5.246   9.578  0.4205 -0.8025  0.3339
    4SAPS  C212  459   0.230   5.213   9.375  0.6122  1.0525 -0.2699
    4SAPS  H12R  460   0.192   5.314   9.351  0.1418  0.5381 -1.7825
    4SAPS  C213  461   0.278   5.136   9.247  0.5763  0.7024 -0.5398
    4SAPS  H13R  462   0.352   5.055   9.263 -1.2186 -0.8392  0.1110
    4SAPS  H13S  463   0.325   5.215   9.184 -2.5588  2.7485 -0.4196
    4SAPS  C214  464   0.157   5.071   9.187 -0.1150  0.0693  0.0536
    4SAPS  H14R  465   0.096   5.009   9.254 -2.7779  1.0032 -1.4333
    4SAPS  C215  466   0.102   5.095   9.062  0.0347 -0.3569 -0.5395
    4SAPS  H15R  467   0.017   5.031   9.033 -0.0534 -1.6196  2.3365
    4SAPS  C216  468   0.154   5.186   8.951 -0.4738  0.2707 -0.1485
    4SAPS  H16R  469   0.251   5.158   8.905  0.1714  1.8648  0.2085
    4SAPS  H16S  470   0.174   5.290   8.986  1.9778  0.2224 -1.2555
    4SAPS  C217  471   0.042   5.213   8.858  0.0002 -0.2115  0.3959
    4SAPS  H17R  472  -0.050   5.239   8.914 -0.4587  0.4090 -0.6365
    4SAPS  H17S  473   0.023   5.119   8.800  0.3721 -1.2452  1.9273
    4SAPS  C218  474   0.080   5.329   8.755 -0.3721 -0.2599 -0.4766
    4SAPS  H18R  475   0.184   5.308   8.720 -0.7668  0.9468 -2.4220
    4SAPS  H18S  476   0.080   5.423   8.815 -1.3741 -1.5067  1.5508
    4SAPS  C219  477  -0.010   5.350   8.637 -0.2187 -0.3738  0.2511
    4SAPS  H19R  478  -0.016   5.260   8.573 -0.9771  0.2781 -0.6096
    4SAPS  H19S  479   0.040   5.427   8.573  3.3823 -1.8235  1.2051
    4SAPS  C220  480  -0.159   5.384   8.668 -0.3499 -0.2399 -0.1265
    4SAPS  H20R  481  -0.216   5.431   8.586 -0.6067 -0.0507  0.1612
    4SAPS  H20S  482  -0.169   5.455   8.753  1.7089  1.9106 -1.6167
    4SAPS  H20T  483  -0.206   5.287   8.694 -1.8075  0.4446 -0.1982
    4SAPS   C33  484   0.530   5.444   9.861  0.7203  0.0211  0.2120
    4SAPS   H3X  485   0.447   5.381   9.900  0.4462  1.3762  1.8921
    4SAPS   H3Y  486   0.616   5.375   9.869  0.2070 -0.6405  0.0771
    4SAPS   C34  487   0.498   5.475   9.710  0.2118  0.4277  0.0105
    4SAPS   H4X  488   0.396   5.514   9.688 -0.3020 -0.9844 -0.1918
    4SAPS   H4Y  489   0.514   5.375   9.665  2.3164  0.3540  0.8854
    4SAPS   C35  490   0.599   5.562   9.637  0.2439  0.0754  0.0707
    4SAPS   H5X  491   0.698   5.519   9.665  0.9318  1.2912 -0.4544
    4SAPS   H5Y  492   0.588   5.661   9.686 -1.9732 -0.3725  0.5074
    4SAPS   C36  493   0.583   5.572   9.490  0.5584  0.4994  0.4449
    4SAPS   H6X  494   0.585   5.465   9.461 -2.1534  0.7357 -0.7828
    4SAPS   H6Y  495   0.669   5.627   9.445  1.3725  0.1335  1.5273
    4SAPS   C37  496   0.462   5.645   9.425 -0.6166 -0.5389  0.2528
    4SAPS   H7X  497   0.466   5.752   9.454 -0.8905 -0.5232  0.2356
    4SAPS   H7Y  498   0.367   5.605   9.466 -1.6379  0.7205 -0.8619
    4SAPS   C38  499   0.476   5.617   9.274  0.5252 -0.0803  0.3594
    4SAPS   H8X  500   0.438   5.515   9.250  0.4338 -0.1618  0.8448
    4SAPS   H8Y  501   0.580   5.624   9.237 -0.2715  0.2921 -1.8792
    4SAPS   C39  502   0.401   5.708   9.175  0.1880 -1.2759 -0.6026
    4SAPS   H9X  503   0.435   5.810   9.202  1.1902 -1.0660 -2.5526
    4SAPS   H9Y  504   0.290   5.702   9.175  0.1704 -1.1553  1.2192
    4SAPS  C310  505   0.460   5.686   9.028  0.1734 -0.4534 -0.2673
    4SAPS  H10X  506   0.411   5.597   8.982  1.6004  0.0062 -2.7434
    4SAPS  H10Y  507   0.569   5.664   9.027  0.6200  1.3869  1.9242
    4SAPS  C311  508   0.436   5.817   8.960  0.6270  0.1401  0.4527
    4SAPS  H11X  509   0.501   5.897   9.001  2.1929 -1.0325  0.2836
    4SAPS  H11Y  510   0.329   5.840   8.980  0.7870  1.1683  0.1491
    4SAPS  C312  511   0.455   5.818   8.809  0.2083 -0.5907  0.3264
    4SAPS  H12X  512   0.379   5.752   8.762 -0.8904  0.8790 -0.0363
    4SAPS  H12Y  513   0.558   5.783   8.786 -1.5508 -3.4639 -3.7868
    4SAPS  C313  514   0.431   5.956   8.748  0.0481 -0.2596  0.0928
    4SAPS  H13X  515   0.500   6.027   8.798  1.0165 -1.2442  0.1798
    4SAPS  H13Y  516   0.325   5.981   8.771  0.0692  0.0659 -0.1593
    4SAPS  C314  517   0.428   5.967   8.593  0.0124  0.0782  0.5527
    4SAPS  H14X  518   0.371   6.054   8.556 -0.0510 -0.6745 -1.1539
    4SAPS  H14Y  519   0.381   5.879   8.544 -1.5965  0.6066  1.1262
    4SAPS  C315  520   0.579   5.974   8.548  0.5375 -0.3440 -0.7261
    4SAPS  H15X  521   0.631   5.876   8.553 -0.3272 -0.7099  1.6744
    4SAPS  H15Y  522   0.627   6.025   8.635  0.4871 -1.8312  0.1962
    4SAPS  C316  523   0.601   6.047   8.417  0.1232  0.8195  0.8033
    4SAPS  H16X  524   0.506   6.035   8.361  1.1800 -1.1886 -0.6138
    4SAPS  H16Y  525   0.681   6.003   8.354  0.1846 -0.7454  1.9507
    4SAPS  C317  526   0.635   6.192   8.435 -1.2010 -0.1984  0.6212
    4SAPS  H17X  527   0.719   6.220   8.501  0.3150 -3.7989  0.3450
    4SAPS  H17Y  528   0.551   6.251   8.478 -0.8293  2.1489 -1.7290
    4SAPS  C318  529   0.650   6.260   8.295 -0.2069  0.1738  0.2604
    4SAPS  H18X  530   0.646   6.370   8.304 -0.9792  0.2926 -1.2932
    4SAPS  H18Y  531   0.566   6.238   8.225  0.4218 -0.0444 -0.4423
    4SAPS  H18Z  532   0.739   6.221   8.240 -2.2067 -0.0602 -2.9664
    5SAPS     N  533   3.394   4.818  11.020 -0.1594  0.2410 -0.7616
    5SAPS   HN1  534   3.312   4.847  10.962  0.4974  0.6782 -1.4714
    5SAPS   HN2  535   3.388   4.861  11.114  0.0745  1.0927 -1.1301
    5SAPS   HN3  536   3.480   4.856  10.977  0.2762  0.0286 -0.0856
    5SAPS   C12  537   3.392   4.673  11.030  0.0047  0.9077  0.2098
    5SAPS  H12A  538   3.473   4.645  11.095 -0.0035  0.2001 -0.0792
    5SAPS   C13  539   3.262   4.601  11.075 -0.1334  1.0241  0.8843
    5SAPS  O13A  540   3.164   4.676  11.104 -0.7414 -0.2022 -0.6706
    5SAPS  O13B  541   3.257   4.481  11.081  0.6008  0.0093 -0.2481
    5SAPS   C11  542   3.440   4.620  10.886 -0.1592  0.3989  0.1330
    5SAPS  H11A  543   3.373   4.665  10.810 -0.7925 -0.7762 -0.0216
    5SAPS  H11B  544   3.427   4.509  10.880  1.8418  0.1401  0.1003
    5SAPS     P  545   3.685   4.525  10.872 -0.1436 -0.2474  0.3188
    5SAPS   O13  546   3.798   4.550  10.958 -0.0667 -0.4871 -0.4148
    5SAPS   O14  547   3.613   4.395  10.877  0.1378  0.6318  0.4200
    5SAPS   O12  548   3.579   4.645  10.873 -0.3244 -0.9075 -0.3730
    5SAPS   O11  549   3.736   4.544  10.727  0.2542  0.3847  0.7273
    5SAPS    C1  550   3.754   4.677  10.673  0.3154  0.0537  0.2592
    5SAPS    HA  551   3.666   4.701  10.610 -1.3385 -1.8991  1.7607
    5SAPS    HB  552   3.778   4.754  10.749  2.8912  0.5954 -1.0440
    5SAPS    C2  553   3.870   4.677  10.567 -0.2775  0.1003  0.4193
    5SAPS    HS  554   3.951   4.743  10.605 -1.2109  1.3583  0.2334
    5SAPS   O21  555   3.814   4.708  10.435 -0.4754  0.0450  0.1379
    5SAPS   C21  556   3.889   4.800  10.369  0.0964 -0.1509  0.1118
    5SAPS   O22  557   3.991   4.852  10.408  0.6196 -0.2992 -0.0605
    5SAPS   C22  558   3.813   4.826  10.236 -0.4666 -0.3900  0.0839
    5SAPS   H2R  559   3.818   4.728  10.184  0.0580 -0.5034  0.3444
    5SAPS   H2S  560   3.707   4.849  10.261  0.2506  0.4789  2.4539
    5SAPS    C3  561   3.928   4.529  10.550 -0.4189 -0.0760 -0.6366
    5SAPS    HX  562   3.841   4.465  10.525  0.6551 -0.5226 -3.4181
    5SAPS    HY  563   3.963   4.489  10.647 -1.7890 -0.3432 -0.2445
    5SAPS   O31  564   4.023   4.530  10.437  1.3302 -0.3380  0.0653
    5SAPS   C31  565   4.146   4.566  10.479  0.2857 -0.0592 -0.1547
    5SAPS   O32  566   4.178   4.582  10.597 -0.3594 -0.4979  0.6710
    5SAPS   C32  567   4.237   4.584  10.351 -0.0270  0.4713 -0.1113
    5SAPS   H2X  568   4.295   4.489  10.341  0.5873  0.8768 -0.3912
    5SAPS   H2Y  569   4.294   4.677  10.367 -1.2272  1.0696  0.7570
    5SAPS   C23  570   3.871   4.937  10.146  0.1175 -0.5739  0.1120
    5SAPS   H3R  571   3.978   4.922  10.122  0.2283  1.9653 -1.0292
    5SAPS   H3S  572   3.867   5.028  10.209 -0.9900  0.4218 -1.3710
    5SAPS   C24  573   3.784   4.950  10.011 -0.5482  0.2285  0.0327
    5SAPS   H4R  574   3.800   5.058   9.995  2.2145  0.1906  2.1167
    5SAPS   H4S  575   3.675   4.937  10.022 -0.4471 -1.2031 -0.4918
    5SAPS   C25  576   3.823   4.850   9.905 -0.5175 -0.4589  0.4335
    5SAPS   H5R  577   3.799   4.744   9.923 -2.0041 -0.1589  0.2964
    5SAPS   C26  578   3.872   4.879   9.788  0.8271 -0.0446 -0.1240
    5SAPS   H6R  579   3.894   4.803   9.711  0.0855  2.3931 -2.8474
    5SAPS   C27  580   3.908   5.021   9.747  0.3263 -0.2455 -0.3298
    5SAPS   H7R  581   3.826   5.091   9.774  0.2895 -0.3080 -0.2793
    5SAPS   H7S  582   3.903   5.018   9.636  2.5164  1.1915 -0.5030
    5SAPS   C28  583   4.049   5.078   9.768  0.0241  0.4519 -0.1800
    5SAPS   H8R  584   4.114   5.030   9.843 -0.7771 -0.1693  0.1240
    5SAPS   C29  585   4.093   5.195   9.727  0.2669  0.0299 -0.3158
    5SAPS   H9R  586   4.199   5.220   9.746  0.5000 -1.6600  0.7078
    5SAPS  C210  587   4.016   5.302   9.646  0.3965  0.0878  0.0869
    5SAPS  H10R  588   3.971   5.366   9.725 -1.0588 -1.4693  0.5590
    5SAPS  H10S  589   3.931   5.263   9.586 -0.6177 -1.3388  2.3950
    5SAPS  C211  590   4.095   5.385   9.552 -0.6548  0.4918 -0.7816
    5SAPS  H11R  591   4.127   5.486   9.583  1.7654  0.3632 -2.7298
    5SAPS  C212  592   4.140   5.339   9.430 -0.2413 -0.1069  0.0937
    5SAPS  H12R  593   4.188   5.419   9.371 -1.8376  0.9840  0.2289
    5SAPS  C213  594   4.119   5.208   9.351  0.5279 -0.4733  0.0110
    5SAPS  H13R  595   4.074   5.129   9.415  0.0231 -0.7008 -0.6168
    5SAPS  H13S  596   4.219   5.173   9.317  0.5847  0.2701 -0.6058
    5SAPS  C214  597   4.020   5.248   9.247 -0.7379  0.0711  0.3482
    5SAPS  H14R  598   3.914   5.257   9.274 -0.8720  0.5481 -0.3007
    5SAPS  C215  599   4.044   5.259   9.116  0.1602  0.5531  0.7010
    5SAPS  H15R  600   3.964   5.306   9.058 -0.9917  0.6563  2.3393
    5SAPS  C216  601   4.186   5.241   9.058 -0.6737  0.5076 -0.3707
    5SAPS  H16R  602   4.260   5.190   9.124 -0.5990  0.5073 -0.4550
    5SAPS  H16S  603   4.236   5.339   9.042  1.5016 -0.5923 -0.4774
    5SAPS  C217  604   4.174   5.192   8.905 -0.0314 -0.1389 -0.8693
    5SAPS  H17R  605   4.137   5.088   8.917  0.4459 -0.2820 -0.6191
    5SAPS  H17S  606   4.280   5.178   8.873 -0.0466 -1.0362 -0.5253
    5SAPS  C218  607   4.089   5.269   8.799 -0.4658 -0.3077  0.1565
    5SAPS  H18R  608   3.984   5.278   8.835 -0.7334  0.8202 -0.8768
    5SAPS  H18S  609   4.132   5.370   8.787 -2.3451  0.3140 -1.5476
    5SAPS  C219  610   4.082   5.201   8.661 -0.3061 -0.2244 -0.5458
    5SAPS  H19R  611   4.009   5.117   8.653  3.2098 -3.2635 -1.8557
    5SAPS  H19S  612   4.180   5.156   8.636  0.2749 -0.1961  1.5295
    5SAPS  C220  613   4.042   5.297   8.554  0.6851  0.2492  0.2831
    5SAPS  H20R  614   4.087   5.397   8.572 -0.5824  0.8103  0.4542
    5SAPS  H20S  615   3.931   5.304   8.549  0.4579 -3.1017 -0.1399
    5SAPS  H20T  616   4.072   5.269   8.451 -0.8435  1.3681 -0.4830
    5SAPS   C33  617   4.156   4.588  10.223 -0.4624 -0.2514  0.2403
    5SAPS   H3X  618   4.072   4.661  10.219  0.1891  0.5521  0.8679
    5SAPS   H3Y  619   4.097   4.494  10.221 -0.4505 -0.2764  0.9030
    5SAPS   C34  620   4.248   4.596  10.102  0.1743 -0.0232  0.1796
    5SAPS   H4X  621   4.294   4.495  10.086  0.0291  0.0196 -0.5099
    5SAPS   H4Y  622   4.325   4.674  10.121 -0.2331  0.9243 -1.8985
    5SAPS   C35  623   4.168   4.645   9.976  0.0802 -0.7109 -0.7719
    5SAPS   H5X  624   4.129   4.744  10.007 -1.2032 -1.1290 -1.0472
    5SAPS   H5Y  625   4.086   4.580   9.941 -1.4849 -0.0905  1.6547
    5SAPS   C36  626   4.267   4.659   9.863 -0.5637  0.0553  0.1618
    5SAPS   H6X  627   4.316   4.562   9.842  0.0541  0.6308 -1.1660
    5SAPS   H6Y  628   4.345   4.732   9.894  0.1372  0.1096 -1.6433
    5SAPS   C37  629   4.202   4.712   9.731  0.0972  0.2972  0.1042
    5SAPS   H7X  630   4.173   4.818   9.751 -0.1375  0.3805 -0.6678
    5SAPS   H7Y  631   4.106   4.657   9.718 -0.0990  0.7908 -0.5658
    5SAPS   C38  632   4.276   4.692   9.599  0.7711 -0.6066 -0.1120
    5SAPS   H8X  633   4.303   4.586   9.582 -1.0584 -1.0651 -0.3222
    5SAPS   H8Y  634   4.363   4.760   9.601 -1.1093  1.8979 -1.1008
    5SAPS   C39  635   4.184   4.737   9.478 -0.5140 -0.8677  0.0727
    5SAPS   H9X  636   4.158   4.843   9.502  0.4019 -1.0159  1.8075
    5SAPS   H9Y  637   4.094   4.672   9.481  1.6593 -3.9146  0.8552
    5SAPS  C310  638   4.245   4.732   9.339 -0.2435 -0.0763 -0.4486
    5SAPS  H10X  639   4.253   4.627   9.305 -0.5460  0.0812 -1.0086
    5SAPS  H10Y  640   4.349   4.770   9.329 -1.2628  2.4586 -2.0240
    5SAPS  C311  641   4.152   4.797   9.234 -0.3156 -0.8938 -0.3957
    5SAPS  H11X  642   4.099   4.874   9.295 -1.2254 -0.4666 -1.7001
    5SAPS  H11Y  643   4.089   4.724   9.178 -0.7654 -2.1764  1.7416
    5SAPS  C312  644   4.223   4.872   9.118  0.2174  0.0328 -0.2340
    5SAPS  H12X  645   4.313   4.927   9.153 -0.6947  0.1741  1.9947
    5SAPS  H12Y  646   4.142   4.938   9.080 -1.4147 -1.7520  0.0419
    5SAPS  C313  647   4.275   4.777   8.999 -0.5975 -0.4756 -0.3921
    5SAPS  H13X  648   4.184   4.719   8.971 -1.2204  0.5154 -0.4233
    5SAPS  H13Y  649   4.347   4.706   9.045  0.1363  0.1732 -0.5431
    5SAPS  C314  650   4.336   4.852   8.877  0.4625 -0.3041 -0.8841
    5SAPS  H14X  651   4.428   4.875   8.934 -0.1422  2.5950 -0.9937
    5SAPS  H14Y  652   4.282   4.941   8.837 -0.0875 -0.5290 -0.6488
    5SAPS  C315  653   4.344   4.760   8.757  0.0391  0.6376 -0.3298
    5SAPS  H15X  654   4.366   4.656   8.789 -1.5460  0.4929  0.3005
    5SAPS  H15Y  655   4.436   4.786   8.699 -0.5825  0.0267 -1.6133
    5SAPS  C316  656   4.223   4.758   8.674  0.1453 -0.3319 -0.1181
    5SAPS  H16X  657   4.156   4.846   8.687 -1.3335 -1.3015 -1.1173
    5SAPS  H16Y  658   4.158   4.675   8.707 -0.5891  0.1545 -0.3241
    5SAPS  C317  659   4.250   4.743   8.523  0.2794  0.2026 -0.2323
    5SAPS  H17X  660   4.307   4.831   8.489 -1.1074  0.8770 -0.8371
    5SAPS  H17Y  661   4.150   4.759   8.477  0.1831 -1.1300 -0.5144
    5SAPS  C318  662   4.308   4.610   8.470 -0.2593  0.2494 -0.1063
    5SAPS  H18X  663   4.266   4.524   8.527 -0.8051 -0.1104 -1.0346
    5SAPS  H18Y  664   4.418   4.614   8.489 -0.0378  0.0909 -1.2618
    5SAPS  H18Z  665   4.304   4.593   8.360 -1.6305 -1.6085  0.2035
    6SAPS     N  666   3.179   4.265  10.953 -0.5811 -0.1606  0.0363
    6SAPS   HN1  667   3.252   4.235  10.884 -0.3817 -0.9305  0.5838
    6SAPS   HN2  668   3.096   4.283  10.892 -2.8027  0.4982  3.1746
    6SAPS   HN3  669   3.211   4.354  10.996 -0.7581 -0.2653  0.3810
    6SAPS   C12  670   3.153   4.159  11.050 -0.3502 -0.3967 -0.7175
    6SAPS  H12A  671   3.246   4.149  11.103  0.8462 -0.3423 -2.7663
    6SAPS   C13  672   3.057   4.185  11.170 -0.6426  0.3028 -0.3402
    6SAPS  O13A  673   2.988   4.287  11.176  0.1335 -0.4863 -0.2722
    6SAPS  O13B  674   3.033   4.087  11.249 -0.7511  0.1423 -0.9373
    6SAPS   C11  675   3.092   4.037  10.973  0.4146 -0.5632 -0.4162
    6SAPS  H11A  676   2.991   4.077  10.947  0.8738  0.4616 -0.6627
    6SAPS  H11B  677   3.084   3.953  11.045 -3.5896  1.4089  1.6786
    6SAPS     P  678   3.115   3.941  10.719  0.1368  0.3692 -0.2051
    6SAPS   O13  679   2.969   3.935  10.727 -0.0837 -0.2792 -0.2535
    6SAPS   O14  680   3.170   4.020  10.609  0.8009  0.1002  0.2555
    6SAPS   O12  681   3.166   4.000  10.853 -0.2859 -0.0563 -0.2788
    6SAPS   O11  682   3.179   3.796  10.715  0.5581  0.0136 -0.4763
    6SAPS    C1  683   3.276   3.755  10.616  0.3200 -0.7525 -1.1436
    6SAPS    HA  684   3.330   3.841  10.571 -2.7390  1.1420 -1.4112
    6SAPS    HB  685   3.348   3.688  10.666  1.2087  0.5268 -0.6893
    6SAPS    C2  686   3.220   3.694  10.484  0.0049 -0.0221 -0.0711
    6SAPS    HS  687   3.300   3.641  10.429 -1.1949 -1.6681 -0.2917
    6SAPS   O21  688   3.169   3.801  10.399  0.1965 -0.7278 -0.2126
    6SAPS   C21  689   3.265   3.877  10.345 -0.1462  0.2403 -0.1332
    6SAPS   O22  690   3.385   3.848  10.352  0.3994  0.0128 -0.0229
    6SAPS   C22  691   3.197   3.999  10.281 -0.3111  0.0672 -0.4735
    6SAPS   H2R  692   3.112   4.025  10.349 -0.0864 -0.6069  0.0756
    6SAPS   H2S  693   3.271   4.081  10.286 -0.6989  0.3296  1.3283
    6SAPS    C3  694   3.104   3.585  10.520  0.0708 -0.1796  0.1207
    6SAPS    HX  695   3.036   3.643  10.585  0.3808 -1.6751  1.8070
    6SAPS    HY  696   3.151   3.505  10.581  1.1994 -2.0735 -3.0520
    6SAPS   O31  697   3.044   3.530  10.399 -0.8906 -0.4889  0.6629
    6SAPS   C31  698   2.950   3.450  10.441 -0.0663 -0.6730 -0.1450
    6SAPS   O32  699   2.927   3.422  10.557 -0.3915 -0.6443  0.1856
    6SAPS   C32  700   2.864   3.408  10.326  0.2215 -0.5427  0.1212
    6SAPS   H2X  701   2.904   3.465  10.240 -0.1896  3.3733  2.3796
    6SAPS   H2Y  702   2.758   3.439  10.344  1.5132  2.5361  2.9423
    6SAPS   C23  703   3.153   3.971  10.134 -0.2550  0.0403  0.6986
    6SAPS   H3R  704   3.078   3.890  10.128  1.3557 -1.7323  3.4080
    6SAPS   H3S  705   3.237   3.922  10.082 -0.1513 -0.2028  1.0943
    6SAPS   C24  706   3.117   4.093  10.054  0.1274 -0.5861  0.1915
    6SAPS   H4R  707   3.045   4.163  10.102  0.6864  0.0154  0.1521
    6SAPS   H4S  708   3.073   4.065   9.955  0.0103  1.0079 -0.2114
    6SAPS   C25  709   3.243   4.167  10.042  0.0587 -0.4244  0.1188
    6SAPS   H5R  710   3.279   4.210  10.136  0.2082  0.5314 -0.3749
    6SAPS   C26  711   3.309   4.186   9.928  0.6879 -0.0662  0.5670
    6SAPS   H6R  712   3.405   4.239   9.932  1.3799 -1.3178  0.5294
    6SAPS   C27  713   3.275   4.124   9.793 -0.3640  0.3026  0.3242
    6SAPS   H7R  714   3.234   4.207   9.731  1.0120  0.9518  0.2665
    6SAPS   H7S  715   3.199   4.045   9.806 -0.6596  0.4203 -0.6344
    6SAPS   C28  716   3.387   4.058   9.720  0.1997  0.1127 -0.1334
    6SAPS   H8R  717   3.443   3.989   9.785 -2.8130 -0.4046  2.0637
    6SAPS   C29  718   3.422   4.077   9.590 -0.1915 -0.4905 -0.1201
    6SAPS   H9R  719   3.493   4.001   9.555  2.1459  0.0831  3.1131
    6SAPS  C210  720   3.355   4.171   9.483  1.2379  0.1813  0.1745
    6SAPS  H10R  721   3.308   4.258   9.534 -1.1457 -0.8356 -0.2670
    6SAPS  H10S  722   3.280   4.109   9.431 -0.9668  0.8562  2.5036
    6SAPS  C211  723   3.475   4.218   9.405  0.0659 -0.8748 -0.3186
    6SAPS  H11R  724   3.560   4.250   9.467 -0.9509  1.2834  0.0376
    6SAPS  C212  725   3.474   4.249   9.277  0.7322  0.8384  0.0265
    6SAPS  H12R  726   3.563   4.293   9.230  1.4893  0.7870  1.4027
    6SAPS  C213  727   3.352   4.233   9.182 -0.1623  0.3047  0.0289
    6SAPS  H13R  728   3.378   4.297   9.095 -0.4703  1.3268  0.6807
    6SAPS  H13S  729   3.254   4.272   9.215 -1.3448 -0.6396 -2.2357
    6SAPS  C214  730   3.323   4.090   9.128 -0.8309 -0.5867 -0.1779
    6SAPS  H14R  731   3.224   4.047   9.151 -1.0505 -0.3036 -0.5850
    6SAPS  C215  732   3.413   4.010   9.063 -0.2775  1.0967  0.2936
    6SAPS  H15R  733   3.378   3.920   9.011 -2.1031  0.3474  2.7423
    6SAPS  C216  734   3.559   4.050   9.038 -0.3565 -0.3855  0.2564
    6SAPS  H16R  735   3.609   4.098   9.126  1.4259 -1.1603 -0.3174
    6SAPS  H16S  736   3.568   4.128   8.960 -0.3572 -1.4207 -0.7787
    6SAPS  C217  737   3.649   3.936   8.981 -0.0872 -0.6346  0.6810
    6SAPS  H17R  738   3.657   3.842   9.040 -0.6741 -1.7858 -1.0458
    6SAPS  H17S  739   3.749   3.986   8.978  0.1600 -1.1632 -0.0140
    6SAPS  C218  740   3.610   3.906   8.832 -0.1205  0.2727  0.4308
    6SAPS  H18R  741   3.592   4.005   8.786 -1.5866 -0.1449  0.0828
    6SAPS  H18S  742   3.529   3.830   8.827  0.0870  0.0342  0.6348
    6SAPS  C219  743   3.728   3.832   8.758  1.0678  0.0236 -0.4619
    6SAPS  H19R  744   3.728   3.739   8.820  0.1057  0.8671  0.8260
    6SAPS  H19S  745   3.815   3.899   8.775  0.6864  1.1752 -2.8081
    6SAPS  C220  746   3.724   3.795   8.610 -0.2688 -0.1040  0.7815
    6SAPS  H20R  747   3.727   3.890   8.554  0.2705 -1.2611 -1.2031
    6SAPS  H20S  748   3.641   3.730   8.576 -0.6765  1.2005 -0.7699
    6SAPS  H20T  749   3.821   3.756   8.571  0.5106  1.2914  1.3016
    6SAPS   C33  750   2.866   3.255  10.296 -0.1080 -0.4946 -0.2307
    6SAPS   H3X  751   2.770   3.230  10.247 -2.0088  4.0327  0.9108
    6SAPS   H3Y  752   2.857   3.191  10.386 -0.7447 -1.4661 -0.9744
    6SAPS   C34  753   2.986   3.209  10.214  0.1628 -0.1019 -0.9138
    6SAPS   H4X  754   2.995   3.099  10.214  0.6120 -0.0652 -0.4735
    6SAPS   H4Y  755   3.086   3.241  10.252 -1.0162  0.9358  1.4530
    6SAPS   C35  756   2.992   3.272  10.077 -0.6114  0.1529 -0.1483
    6SAPS   H5X  757   3.011   3.382  10.079 -1.1774  0.2956 -1.6772
    6SAPS   H5Y  758   2.889   3.255  10.040 -1.0358  1.4916  0.3836
    6SAPS   C36  759   3.098   3.203   9.984 -0.1429  0.4675  0.3854
    6SAPS   H6X  760   3.067   3.098   9.966 -0.0668  0.5486 -0.2356
    6SAPS   H6Y  761   3.197   3.205  10.036  0.2920  2.2974 -0.4507
    6SAPS   C37  762   3.104   3.287   9.856 -0.1739 -0.0192 -0.3001
    6SAPS   H7X  763   3.104   3.398   9.862 -3.6905 -0.0479  1.6314
    6SAPS   H7Y  764   3.002   3.268   9.816 -1.4804  0.8306  2.4694
    6SAPS   C38  765   3.206   3.228   9.757  0.0288  0.4847 -0.4162
    6SAPS   H8X  766   3.192   3.118   9.752  0.4375  0.4126 -0.0620
    6SAPS   H8Y  767   3.307   3.251   9.799 -1.8775  1.8704  3.6832
    6SAPS   C39  768   3.186   3.267   9.611  0.7788  0.0167 -0.2846
    6SAPS   H9X  769   3.162   3.376   9.611 -1.0322 -0.3514  0.2941
    6SAPS   H9Y  770   3.095   3.217   9.571 -0.9698  1.9402  1.1282
    6SAPS  C310  771   3.295   3.226   9.521  0.0029  0.6028 -0.3189
    6SAPS  H10X  772   3.332   3.129   9.561  0.4295  0.9081  0.0375
    6SAPS  H10Y  773   3.381   3.297   9.520  1.1257 -0.7399 -1.7704
    6SAPS  C311  774   3.236   3.205   9.374 -0.5587  0.2731  0.2167
    6SAPS  H11X  775   3.185   3.300   9.347 -2.1627 -1.2604 -2.3650
    6SAPS  H11Y  776   3.156   3.129   9.380  0.4311 -0.6388  2.5377
    6SAPS  C312  777   3.354   3.179   9.277 -0.0593 -0.2939 -0.2868
    6SAPS  H12X  778   3.420   3.094   9.303  2.0665  1.1583 -0.8371
    6SAPS  H12Y  779   3.414   3.273   9.278 -0.5977  0.0497  1.5163
    6SAPS  C313  780   3.295   3.156   9.138  0.1314  0.3111  0.2419
    6SAPS  H13X  781   3.221   3.232   9.104 -1.6744 -1.3669  0.3153
    6SAPS  H13Y  782   3.244   3.057   9.138 -0.4765  0.6189  0.1577
    6SAPS  C314  783   3.404   3.151   9.029  0.2416 -0.4079 -0.1648
    6SAPS  H14X  784   3.476   3.078   9.070  0.3402  0.9323  2.1558
    6SAPS  H14Y  785   3.456   3.250   9.024 -1.5779  0.4948 -2.7826
    6SAPS  C315  786   3.350   3.125   8.888  0.4340  0.0439  0.5967
    6SAPS  H15X  787   3.286   3.212   8.863  4.0337  2.0533 -2.0572
    6SAPS  H15Y  788   3.278   3.041   8.881 -0.7962  1.1471 -0.3903
    6SAPS  C316  789   3.453   3.111   8.774 -0.8372  1.2004 -0.2685
    6SAPS  H16X  790   3.531   3.189   8.787  1.6636 -0.6961 -3.2358
    6SAPS  H16Y  791   3.399   3.135   8.679 -0.9909  1.2238 -0.1755
    6SAPS  C317  792   3.518   2.973   8.778  0.9809 -0.2535 -0.5476
    6SAPS  H17X  793   3.438   2.898   8.759 -0.5078  1.2668 -0.3936
    6SAPS  H17Y  794   3.571   2.966   8.876 -0.1005  2.3175  0.2403
    6SAPS  C318  795   3.616   2.956   8.656 -0.6071  0.1297 -0.0886
    6SAPS  H18X  796   3.644   2.849   8.649 -2.1883 -0.2043 -1.6586
    6SAPS  H18Y  797   3.714   3.005   8.675 -1.1355  0.6587  1.3985
    6SAPS  H18Z  798   3.585   2.994   8.556  0.2008 -1.4333 -0.9355
    7SAPS     N  799   4.944   4.603  11.040  0.1305 -0.5251  0.8126
    7SAPS   HN1  800   4.974   4.551  10.956 -1.1084  2.0800 -1.2960
    7SAPS   HN2  801   4.874   4.551  11.097  0.5183 -1.3369  0.5465
    7SAPS   HN3  802   4.904   4.694  11.009  2.2184 -0.6694 -2.4254
    7SAPS   C12  803   5.061   4.621  11.121  0.9708  0.3464 -0.1500
    7SAPS  H12A  804   5.035   4.708  11.179  1.0857 -1.0815  2.0786
    7SAPS   C13  805   5.085   4.506  11.222  0.7458  0.2528  0.1486
    7SAPS  O13A  806   4.991   4.417  11.241  0.0989 -0.4758  0.8494
    7SAPS  O13B  807   5.177   4.514  11.303 -0.1070  0.1176  0.3087
    7SAPS   C11  808   5.191   4.640  11.032  0.3162 -0.0831 -0.0287
    7SAPS  H11A  809   5.220   4.540  10.992  0.6084  0.4957 -1.3098
    7SAPS  H11B  810   5.282   4.667  11.090  0.1653  0.8498 -0.2182
    7SAPS     P  811   5.299   4.750  10.822  0.0762  0.3702  0.1778
    7SAPS   O13  812   5.416   4.785  10.899 -0.2313 -0.2001  0.2578
    7SAPS   O14  813   5.317   4.634  10.742 -0.3241 -0.4246 -0.2057
    7SAPS   O12  814   5.173   4.723  10.920  0.5240 -0.7272  0.7342
    7SAPS   O11  815   5.255   4.883  10.736 -0.3588  0.1919 -0.1761
    7SAPS    C1  816   5.127   4.869  10.670 -0.2247  0.5352 -0.3049
    7SAPS    HA  817   5.056   4.795  10.714  0.5133 -0.5236 -0.8763
    7SAPS    HB  818   5.067   4.962  10.665 -3.8540 -1.6400  0.7824
    7SAPS    C2  819   5.148   4.830  10.521 -0.5009  0.5380  0.8800
    7SAPS    HS  820   5.207   4.737  10.507 -1.7708 -0.2957  1.0311
    7SAPS   O21  821   5.201   4.946  10.451  0.4625 -0.4791 -0.4430
    7SAPS   C21  822   5.332   4.938  10.442  0.2425 -0.5306 -0.8040
    7SAPS   O22  823   5.403   4.844  10.482  0.0976 -0.2526 -0.6258
    7SAPS   C22  824   5.382   5.068  10.362  0.6270  0.2804 -0.5447
    7SAPS   H2R  825   5.325   5.146  10.415  0.3952 -1.2864  1.5571
    7SAPS   H2S  826   5.490   5.087  10.382  0.4094  1.9314 -0.8694
    7SAPS    C3  827   5.006   4.801  10.463 -0.1683 -0.2716  0.0819
    7SAPS    HX  828   4.938   4.873  10.512  2.4271  0.7959  2.2183
    7SAPS    HY  829   4.987   4.700  10.506  0.4269  0.1332  1.3207
    7SAPS   O31  830   4.989   4.804  10.321  0.3476 -0.0119  0.2191
    7SAPS   C31  831   5.039   4.698  10.258 -0.2041  0.2677  0.7096
    7SAPS   O32  832   5.106   4.609  10.308 -0.2943  0.2579  0.4978
    7SAPS   C32  833   5.010   4.703  10.114  0.2710  0.1860  0.2646
    7SAPS   H2X  834   4.903   4.674  10.115  0.6151 -1.1600 -0.9593
    7SAPS   H2Y  835   5.063   4.624  10.057 -2.7224 -0.9500 -1.0493
    7SAPS   C23  836   5.347   5.062  10.212 -0.5251  0.2286  0.4650
    7SAPS   H3R  837   5.244   5.104  10.210 -0.8476 -0.5939 -1.5041
    7SAPS   H3S  838   5.348   4.958  10.174  1.9950  0.4040 -0.0387
    7SAPS   C24  839   5.426   5.146  10.116  0.7741  0.0952 -0.4025
    7SAPS   H4R  840   5.529   5.109  10.099  0.2440 -1.6120 -0.0659
    7SAPS   H4S  841   5.439   5.237  10.178 -2.4029 -1.5291  2.8726
    7SAPS   C25  842   5.361   5.193   9.987  0.4805  0.3111  0.0426
    7SAPS   H5R  843   5.271   5.253  10.006  0.7439  1.1716 -1.3563
    7SAPS   C26  844   5.398   5.153   9.865  0.3310 -0.1988 -0.8089
    7SAPS   H6R  845   5.346   5.203   9.781 -0.8740 -1.6618 -0.9696
    7SAPS   C27  846   5.501   5.061   9.815 -0.1571 -0.3838 -0.7876
    7SAPS   H7R  847   5.458   4.991   9.740  2.0969 -1.1187 -1.4367
    7SAPS   H7S  848   5.544   4.996   9.895  2.3278  2.4748  0.2771
    7SAPS   C28  849   5.620   5.146   9.769  0.7479 -0.5424  0.4416
    7SAPS   H8R  850   5.662   5.191   9.860 -0.9930 -0.2139  1.0985
    7SAPS   C29  851   5.667   5.175   9.647  0.7063  0.2837  0.1368
    7SAPS   H9R  852   5.763   5.226   9.633  0.1026  0.5111 -3.6971
    7SAPS  C210  853   5.601   5.125   9.520  0.5637  0.2149 -0.4436
    7SAPS  H10R  854   5.502   5.074   9.532  0.0045  0.2796 -4.2322
    7SAPS  H10S  855   5.676   5.055   9.480  0.6012 -1.3225  2.1657
    7SAPS  C211  856   5.592   5.233   9.413 -0.2093 -0.7993  0.3923
    7SAPS  H11R  857   5.598   5.338   9.445  0.0837 -0.8318  0.4454
    7SAPS  C212  858   5.579   5.205   9.280 -0.3316 -0.2077 -0.0996
    7SAPS  H12R  859   5.587   5.297   9.221  1.5199 -0.7228 -0.7020
    7SAPS  C213  860   5.577   5.074   9.206 -0.7065 -0.5663  0.9000
    7SAPS  H13R  861   5.645   5.000   9.253  0.7637  0.9774  1.2860
    7SAPS  H13S  862   5.632   5.103   9.113  0.3283  0.1056  1.7033
    7SAPS  C214  863   5.438   5.008   9.192  1.0684  0.1411 -0.3265
    7SAPS  H14R  864   5.401   4.950   9.278  2.3337 -0.3993 -0.1275
    7SAPS  C215  865   5.359   5.008   9.090  0.2854 -0.3415 -0.0490
    7SAPS  H15R  866   5.272   4.941   9.090 -1.2776  1.6541  0.6566
    7SAPS  C216  867   5.381   5.080   8.953 -0.4896 -0.6094  0.1862
    7SAPS  H16R  868   5.453   5.164   8.965 -1.7704  0.7227 -1.2495
    7SAPS  H16S  869   5.284   5.126   8.926  0.5759  0.8226 -1.3392
    7SAPS  C217  870   5.423   4.982   8.846 -0.5062  0.2629  0.9144
    7SAPS  H17R  871   5.399   5.022   8.745  0.6374  0.0251  0.5463
    7SAPS  H17S  872   5.367   4.887   8.856  1.0863 -0.8082 -0.2035
    7SAPS  C218  873   5.573   4.949   8.854 -0.9337 -0.1146 -0.2355
    7SAPS  H18R  874   5.601   4.927   8.959 -0.2065 -2.9623 -0.9838
    7SAPS  H18S  875   5.639   5.027   8.811  0.2244 -1.0188 -0.1288
    7SAPS  C219  876   5.605   4.828   8.773 -0.0874  0.5915  0.1274
    7SAPS  H19R  877   5.541   4.743   8.804 -0.2537  0.2487 -1.1014
    7SAPS  H19S  878   5.704   4.790   8.806 -0.7031  0.1440  1.4808
    7SAPS  C220  879   5.612   4.851   8.619  0.9110  0.4727 -0.3159
    7SAPS  H20R  880   5.513   4.842   8.570  1.0070 -0.1032 -0.4128
    7SAPS  H20S  881   5.678   4.771   8.578  3.3355  2.0849  0.3585
    7SAPS  H20T  882   5.663   4.946   8.593 -0.2064  1.2961  0.4872
    7SAPS   C33  883   5.039   4.836  10.046 -0.0896  0.0234 -0.1057
    7SAPS   H3X  884   5.144   4.874  10.055 -0.2677  0.5073 -0.0457
    7SAPS   H3Y  885   4.970   4.912  10.088 -1.0660 -0.0024 -1.6202
    7SAPS   C34  886   5.013   4.817   9.901  0.1866  0.1340  0.2110
    7SAPS   H4X  887   4.908   4.788   9.882  0.7814 -0.9467 -1.4704
    7SAPS   H4Y  888   5.083   4.738   9.866  1.0418 -0.6452  3.4957
    7SAPS   C35  889   5.049   4.936   9.812 -1.0842  0.0728 -0.2188
    7SAPS   H5X  890   5.157   4.964   9.809 -1.2121  0.4220 -2.9315
    7SAPS   H5Y  891   4.991   5.025   9.844 -1.7502 -0.4232 -0.0391
    7SAPS   C36  892   5.011   4.891   9.672  0.0120 -0.5069 -0.0333
    7SAPS   H6X  893   4.912   4.843   9.657 -0.0128 -0.1322 -1.1110
    7SAPS   H6Y  894   5.083   4.824   9.621 -0.6668  0.8299 -2.8867
    7SAPS   C37  895   5.013   5.019   9.576  0.4104  0.2836 -0.0683
    7SAPS   H7X  896   4.942   5.089   9.625 -0.6542 -0.2308 -0.8322
    7SAPS   H7Y  897   4.959   5.002   9.480 -3.6953 -0.2022  2.1868
    7SAPS   C38  898   5.154   5.081   9.554  0.3301 -0.3388  0.4517
    7SAPS   H8X  899   5.220   5.029   9.482 -1.1516 -0.0224 -1.1646
    7SAPS   H8Y  900   5.208   5.080   9.651  0.1072 -1.1197  0.5719
    7SAPS   C39  901   5.148   5.223   9.508  0.1602  0.2411 -0.2463
    7SAPS   H9X  902   5.253   5.251   9.486  0.4101 -2.5539 -2.9308
    7SAPS   H9Y  903   5.095   5.286   9.583 -2.4792 -1.3331 -0.7311
    7SAPS  C310  904   5.087   5.243   9.366  0.3168  0.2473 -0.6233
    7SAPS  H10X  905   4.986   5.197   9.363 -0.0603  0.9230  0.9462
    7SAPS  H10Y  906   5.140   5.172   9.299  0.7460  0.0218 -0.0528
    7SAPS  C311  907   5.104   5.376   9.298 -0.1467 -0.4485  0.3147
    7SAPS  H11X  908   5.213   5.383   9.276 -0.0312  1.8352  1.5169
    7SAPS  H11Y  909   5.076   5.469   9.351 -0.0374  0.5573 -1.3412
    7SAPS  C312  910   5.040   5.391   9.155 -0.1266  0.3003 -0.3233
    7SAPS  H12X  911   5.078   5.296   9.111  1.7629  1.1223 -0.5094
    7SAPS  H12Y  912   5.089   5.478   9.107  0.6572  0.2610  0.3830
    7SAPS  C313  913   4.888   5.396   9.180  0.0959  0.3422  0.2179
    7SAPS  H13X  914   4.855   5.482   9.242 -0.9457 -1.2863  1.9726
    7SAPS  H13Y  915   4.865   5.307   9.243 -1.7225  1.3692  1.0303
    7SAPS  C314  916   4.822   5.407   9.046 -0.0418  0.2316  0.5465
    7SAPS  H14X  917   4.844   5.330   8.968 -0.7101  1.2476 -0.6490
    7SAPS  H14Y  918   4.851   5.505   9.003  0.1181 -0.2666 -0.5105
    7SAPS  C315  919   4.671   5.394   9.058  0.3244  0.0105 -0.3373
    7SAPS  H15X  920   4.634   5.481   9.118 -1.3108 -1.3935  0.7495
    7SAPS  H15Y  921   4.654   5.305   9.121  0.9954  1.0356  1.3349
    7SAPS  C316  922   4.602   5.381   8.922  0.0724  0.8217  0.0554
    7SAPS  H16X  923   4.506   5.340   8.959  0.3125 -0.9761 -1.2434
    7SAPS  H16Y  924   4.651   5.309   8.853  0.7457  0.0170  1.3600
    7SAPS  C317  925   4.565   5.523   8.859  0.5504  0.1442  1.0556
    7SAPS  H17X  926   4.520   5.502   8.760  0.2817  1.0798  0.9755
    7SAPS  H17Y  927   4.663   5.573   8.845  1.0179 -1.5931 -2.3710
    7SAPS  C318  928   4.454   5.594   8.947 -0.3409 -0.7511 -0.0194
    7SAPS  H18X  929   4.498   5.620   9.046  0.8128  0.7444 -0.9005
    7SAPS  H18Y  930   4.368   5.524   8.949 -0.0617 -1.1082 -0.5060
    7SAPS  H18Z  931   4.423   5.682   8.887  1.7271  0.7989  1.1225
    8SAPS     N  932   2.989   6.404  10.829  0.9155 -0.0933  0.0697
    8SAPS   HN1  933   2.949   6.500  10.818 -1.5746 -1.3201 -2.1546
    8SAPS   HN2  934   3.071   6.399  10.766 -0.6483 -2.0082 -1.8643
    8SAPS   HN3  935   2.920   6.333  10.797  1.7947 -1.0801  0.3281
    8SAPS   C12  936   3.016   6.371  10.976 -0.2399  0.3048  0.2041
    8SAPS  H12A  937   3.077   6.456  11.001 -0.0291  0.4651 -0.8138
    8SAPS   C13  938   2.885   6.362  11.064  0.2458 -0.7572 -0.1573
    8SAPS  O13A  939   2.771   6.365  11.011 -0.0997  0.2609  0.0054
    8SAPS  O13B  940   2.904   6.328  11.186  0.2947 -0.0327  0.5999
    8SAPS   C11  941   3.101   6.241  10.969  1.2209 -0.4685  0.0293
    8SAPS  H11A  942   3.039   6.172  10.908 -0.5463  1.1252 -0.0254
    8SAPS  H11B  943   3.105   6.193  11.069 -0.3703  2.6557  1.6608
    8SAPS     P  944   3.370   6.206  10.950 -0.0474 -0.0083 -0.0237
    8SAPS   O13  945   3.468   6.312  10.933  0.0471  0.7670  0.9131
    8SAPS   O14  946   3.353   6.163  11.091  0.1585 -0.1122  0.2168
    8SAPS   O12  947   3.231   6.256  10.901  0.1206 -0.5832  0.2589
    8SAPS   O11  948   3.402   6.086  10.848  0.4846  0.8603 -0.0175
    8SAPS    C1  949   3.315   6.004  10.778 -0.3416  0.3768  0.0607
    8SAPS    HA  950   3.371   5.912  10.749 -0.7570 -1.0392  3.5435
    8SAPS    HB  951   3.218   5.990  10.829 -1.2186  0.3881 -1.5687
    8SAPS    C2  952   3.286   6.071  10.637 -0.2746  0.0454  0.1435
    8SAPS    HS  953   3.223   6.161  10.646 -0.8153 -0.4921  1.8250
    8SAPS   O21  954   3.221   5.964  10.565 -0.7268 -0.2058 -0.1053
    8SAPS   C21  955   3.092   5.929  10.601 -0.4786 -0.3877 -0.0821
    8SAPS   O22  956   3.028   5.985  10.692 -0.0959  0.4301  0.2535
    8SAPS   C22  957   3.031   5.834  10.506 -0.5994  0.2040 -0.8079
    8SAPS   H2R  958   3.115   5.804  10.439 -0.3166 -1.5655  0.3128
    8SAPS   H2S  959   2.996   5.751  10.571 -0.8981  1.8801  1.1970
    8SAPS    C3  960   3.410   6.102  10.562 -0.6370 -0.3657  0.0935
    8SAPS    HX  961   3.476   6.015  10.582 -1.6665 -1.5941 -1.6605
    8SAPS    HY  962   3.459   6.190  10.608 -1.4361  0.3693 -0.4303
    8SAPS   O31  963   3.393   6.112  10.419  0.7948 -0.2692 -0.2027
    8SAPS   C31  964   3.345   6.225  10.386  0.3523  0.4290 -1.1861
    8SAPS   O32  965   3.318   6.322  10.461  0.0412 -0.1142  0.1854
    8SAPS   C32  966   3.336   6.229  10.232 -0.2362 -0.0932  0.0497
    8SAPS   H2X  967   3.343   6.122  10.203  2.0023 -0.5316  2.0317
    8SAPS   H2Y  968   3.420   6.286  10.187 -0.6779  1.1208  0.7346
    8SAPS   C23  969   2.919   5.896  10.414 -0.7609  0.2433 -0.6849
    8SAPS   H3R  970   2.969   5.956  10.335 -2.5513  0.1435 -1.9203
    8SAPS   H3S  971   2.871   5.971  10.481  0.4377 -0.0552  0.5323
    8SAPS   C24  972   2.809   5.795  10.372  0.8571  0.3132 -0.9574
    8SAPS   H4R  973   2.760   5.747  10.460 -2.4390  0.8546 -2.4231
    8SAPS   H4S  974   2.858   5.721  10.306  1.1452 -0.3839  0.0331
    8SAPS   C25  975   2.701   5.872  10.302  0.1432  0.3312 -0.0864
    8SAPS   H5R  976   2.630   5.927  10.366  0.0036 -0.5690  0.5437
    8SAPS   C26  977   2.695   5.907  10.170  0.4709  0.5048  0.0538
    8SAPS   H6R  978   2.606   5.967  10.148  0.6884  0.4349 -1.0693
    8SAPS   C27  979   2.782   5.865  10.058  0.0675 -0.4375 -0.3913
    8SAPS   H7R  980   2.733   5.787   9.995 -1.7193 -0.1796  0.6321
    8SAPS   H7S  981   2.876   5.822  10.099 -0.1496 -0.5071  0.0352
    8SAPS   C28  982   2.816   5.994   9.986  0.3856  0.3706  0.5117
    8SAPS   H8R  983   2.900   6.055  10.022  1.5126  0.1787 -1.6983
    8SAPS   C29  984   2.763   6.032   9.871  0.7595 -0.0517 -0.5253
    8SAPS   H9R  985   2.809   6.122   9.828 -0.0464  0.3011 -0.6625
    8SAPS  C210  986   2.652   5.958   9.797  0.5775  0.7848 -0.3717
    8SAPS  H10R  987   2.591   5.895   9.865  1.6238  0.7119  0.5081
    8SAPS  H10S  988   2.711   5.890   9.732  0.8715  0.4711  0.2270
    8SAPS  C211  989   2.573   6.044   9.703  0.0140  0.0640 -0.2504
    8SAPS  H11R  990   2.488   6.092   9.753 -0.4360 -0.9261 -0.0509
    8SAPS  C212  991   2.589   6.079   9.571 -0.8767 -0.0287  0.1480
    8SAPS  H12R  992   2.521   6.155   9.529 -1.4187 -0.6459 -0.1141
    8SAPS  C213  993   2.698   6.025   9.487 -0.5568 -0.5961  0.2473
    8SAPS  H13R  994   2.665   5.934   9.432  1.4228 -1.8687  1.1220
    8SAPS  H13S  995   2.780   5.979   9.546  2.6521  1.7387 -2.2232
    8SAPS  C214  996   2.754   6.130   9.393 -0.1639 -0.5706  0.3084
    8SAPS  H14R  997   2.794   6.213   9.453  0.7894  0.2374 -1.4079
    8SAPS  C215  998   2.778   6.126   9.260  0.7326  0.2123 -0.4911
    8SAPS  H15R  999   2.822   6.220   9.223  0.2581  1.1428  1.2420
    8SAPS  C216 1000   2.727   6.021   9.165 -0.1534  0.9866 -0.5141
    8SAPS  H16R 1001   2.686   6.085   9.084  2.5090  2.8274 -0.4770
    8SAPS  H16S 1002   2.659   5.942   9.204 -0.8364  1.4953 -0.6654
    8SAPS  C217 1003   2.838   5.945   9.085  0.0374 -0.1582  0.3848
    8SAPS  H17R 1004   2.871   5.876   9.166  1.6705  0.3280  0.1434
    8SAPS  H17S 1005   2.923   6.008   9.050  0.5976 -2.8199 -3.3508
    8SAPS  C218 1006   2.796   5.875   8.952  0.0134  0.6240  0.0019
    8SAPS  H18R 1007   2.697   5.830   8.975  0.1731  1.3031  2.1976
    8SAPS  H18S 1008   2.870   5.797   8.924  1.2538  1.8844 -0.3065
    8SAPS  C219 1009   2.794   5.971   8.838 -0.5379  0.2942  0.0399
    8SAPS  H19R 1010   2.736   6.059   8.872  0.3518  0.5305  0.9379
    8SAPS  H19S 1011   2.744   5.920   8.752 -1.1630  2.2893 -0.8020
    8SAPS  C220 1012   2.932   6.019   8.797 -0.0428 -0.1521  0.0605
    8SAPS  H20R 1013   2.993   6.072   8.874 -2.0544 -0.3574  1.8189
    8SAPS  H20S 1014   2.920   6.080   8.705 -1.0331  0.7329  0.7584
    8SAPS  H20T 1015   2.983   5.926   8.762 -2.4275 -1.5204  0.1536
    8SAPS   C33 1016   3.198   6.274  10.177  0.1007  0.6146 -0.2655
    8SAPS   H3X 1017   3.175   6.378  10.209  0.8780  1.5932 -2.7758
    8SAPS   H3Y 1018   3.112   6.219  10.219  0.9831 -0.7938 -0.2752
    8SAPS   C34 1019   3.195   6.271  10.025 -0.9460  0.2012  0.2044
    8SAPS   H4X 1020   3.207   6.166   9.991 -2.4364  0.7775 -2.2272
    8SAPS   H4Y 1021   3.280   6.338  10.000 -0.8687  0.2372  0.5703
    8SAPS   C35 1022   3.065   6.320   9.960  0.8473  0.5465 -0.1609
    8SAPS   H5X 1023   3.060   6.430   9.973  0.7530  0.4234  0.9161
    8SAPS   H5Y 1024   2.977   6.277  10.014  1.0554  2.5033  1.7884
    8SAPS   C36 1025   3.060   6.283   9.812 -0.1600 -0.2697  0.7629
    8SAPS   H6X 1026   2.956   6.307   9.781  0.0819  0.8402  0.8002
    8SAPS   H6Y 1027   3.076   6.173   9.805  1.4532 -0.1956  2.6559
    8SAPS   C37 1028   3.174   6.354   9.734  0.1720 -0.1821  0.3517
    8SAPS   H7X 1029   3.267   6.312   9.778  0.3939 -0.1168 -0.0532
    8SAPS   H7Y 1030   3.170   6.462   9.758  0.1598 -0.4184  1.4322
    8SAPS   C38 1031   3.183   6.333   9.580 -0.0163  0.8086  0.0165
    8SAPS   H8X 1032   3.182   6.222   9.568  2.4408  0.8363 -0.5560
    8SAPS   H8Y 1033   3.272   6.377   9.531  0.5080 -0.3472 -0.0808
    8SAPS   C39 1034   3.067   6.417   9.515 -0.3249 -0.8879  0.1951
    8SAPS   H9X 1035   3.094   6.521   9.544 -0.5583  0.1754 -3.1744
    8SAPS   H9Y 1036   2.965   6.399   9.554  0.2997  0.3928  2.5066
    8SAPS  C310 1037   3.073   6.415   9.367  0.2455  0.3122 -0.2805
    8SAPS  H10X 1038   3.051   6.318   9.318  0.1721 -0.9737  2.1894
    8SAPS  H10Y 1039   3.174   6.448   9.336  0.6606  2.6154  3.1976
    8SAPS  C311 1040   2.984   6.514   9.274 -0.1804  0.9303 -0.6804
    8SAPS  H11X 1041   3.007   6.623   9.281 -0.9977  1.1185 -0.7925
    8SAPS  H11Y 1042   2.884   6.494   9.318  0.1277 -1.8461 -1.1612
    8SAPS  C312 1043   2.983   6.465   9.126  0.4108 -0.0087 -0.4717
    8SAPS  H12X 1044   2.982   6.354   9.120 -0.6052  0.0759 -2.2284
    8SAPS  H12Y 1045   3.078   6.492   9.076  0.4713 -2.0820 -1.5280
    8SAPS  C313 1046   2.861   6.509   9.050 -0.1668 -0.1060  0.3826
    8SAPS  H13X 1047   2.842   6.618   9.056  0.5831  0.1669 -1.9063
    8SAPS  H13Y 1048   2.776   6.445   9.084 -0.9318  0.7852  0.1351
    8SAPS  C314 1049   2.877   6.483   8.895  0.1457  0.6689 -0.4462
    8SAPS  H14X 1050   2.777   6.478   8.846  0.3544  0.4932 -0.8577
    8SAPS  H14Y 1051   2.919   6.383   8.872 -2.0106 -0.6763  1.2500
    8SAPS  C315 1052   2.960   6.594   8.829  0.9010  0.7754  0.2996
    8SAPS  H15X 1053   3.061   6.573   8.869  0.9757  0.2527 -0.1640
    8SAPS  H15Y 1054   2.925   6.695   8.860  1.7718  0.8041  1.2037
    8SAPS  C316 1055   2.961   6.580   8.681  0.6186 -0.5552  0.3790
    8SAPS  H16X 1056   2.977   6.472   8.657  0.2550 -0.2395 -1.3754
    8SAPS  H16Y 1057   3.043   6.646   8.645  0.1601 -1.4076 -2.3732
    8SAPS  C317 1058   2.839   6.633   8.610  0.8343 -0.5265  0.2344
    8SAPS  H17X 1059   2.830   6.736   8.651 -1.5013 -1.2728  1.7317
    8SAPS  H17Y 1060   2.760   6.565   8.650  0.6208 -0.3012  0.1958
    8SAPS  C318 1061   2.840   6.638   8.457  0.0614  0.7423  0.5318
    8SAPS  H18X 1062   2.874   6.542   8.413 -1.0366  0.9768 -0.8524
    8SAPS  H18Y 1063   2.920   6.708   8.424  1.5761 -0.9542  0.5563
    8SAPS  H18Z 1064   2.746   6.675   8.412 -1.5271 -1.8424  1.6572
    9SAPS     N 1065   5.487   2.561   5.974  0.1450 -0.4215 -0.1792
    9SAPS   HN1 1066   5.516   2.587   5.878  1.8955  1.4331  0.8081
    9SAPS   HN2 1067   5.574   2.532   6.024  2.0301  1.8382 -2.0079
    9SAPS   HN3 1068   5.407   2.495   5.973  0.0279 -0.2908  0.3456
    9SAPS   C12 1069   5.422   2.686   6.028 -0.5911 -0.5490 -0.0953
    9SAPS  H12A 1070   5.465   2.771   5.977  0.2433  0.8036  2.7560
    9SAPS   C13 1071   5.275   2.700   5.996  0.7544 -0.4880  0.1777
    9SAPS  O13A 1072   5.223   2.615   5.915 -0.1821  0.6039 -0.2659
    9SAPS  O13B 1073   5.230   2.815   6.017  0.0229 -0.2833  0.4917
    9SAPS   C11 1074   5.445   2.671   6.178 -0.0480 -0.8685 -0.2063
    9SAPS  H11A 1075   5.379   2.592   6.219 -0.8747  0.3319  0.8316
    9SAPS  H11B 1076   5.407   2.765   6.224  2.3783  1.1003 -2.0868
    9SAPS     P 1077   5.614   2.615   6.368  0.2385  0.2199  0.0012
    9SAPS   O13 1078   5.555   2.485   6.408  0.3216  0.1343 -0.2426
    9SAPS   O14 1079   5.758   2.640   6.391  0.8717  0.6587  0.2907
    9SAPS   O12 1080   5.580   2.648   6.217 -0.0053 -0.9319 -0.3575
    9SAPS   O11 1081   5.535   2.719   6.440  0.1498 -0.3582  0.1519
    9SAPS    C1 1082   5.556   2.859   6.438  0.5069 -0.5655 -0.4443
    9SAPS    HA 1083   5.661   2.878   6.408 -0.2180  0.4474 -2.3931
    9SAPS    HB 1084   5.487   2.918   6.375  0.1716  1.7736  2.0120
    9SAPS    C2 1085   5.542   2.915   6.581 -0.4502 -0.4541 -0.0103
    9SAPS    HS 1086   5.444   2.891   6.628  0.8955 -3.3373  1.4492
    9SAPS   O21 1087   5.566   3.058   6.579  0.5128 -0.4269  0.2796
    9SAPS   C21 1088   5.523   3.136   6.675 -0.2817 -0.5252 -0.6159
    9SAPS   O22 1089   5.456   3.106   6.773 -0.5465  0.0167 -0.2917
    9SAPS   C22 1090   5.553   3.281   6.629 -0.2364 -0.0168  0.7324
    9SAPS   H2R 1091   5.514   3.305   6.528  1.9364  1.0681  0.1104
    9SAPS   H2S 1092   5.509   3.354   6.699  0.2154 -0.7298  1.7690
    9SAPS    C3 1093   5.655   2.848   6.678  0.0991  0.2491  0.1529
    9SAPS    HX 1094   5.753   2.869   6.629 -0.5906 -1.5316 -2.0954
    9SAPS    HY 1095   5.644   2.737   6.679 -1.8335  0.4216  3.3478
    9SAPS   O31 1096   5.657   2.893   6.813 -0.2006  0.8018  0.2487
    9SAPS   C31 1097   5.574   2.842   6.902 -0.8151  1.1784  0.2793
    9SAPS   O32 1098   5.511   2.739   6.888 -0.0745  0.3298 -0.4089
    9SAPS   C32 1099   5.595   2.926   7.022  0.1267  0.3926 -0.7421
    9SAPS   H2X 1100   5.617   3.026   6.980  1.2506  0.6446  0.4392
    9SAPS   H2Y 1101   5.679   2.887   7.082 -1.2038  0.3800  1.1578
    9SAPS   C23 1102   5.705   3.304   6.619  0.0215 -0.6448  0.3421
    9SAPS   H3R 1103   5.721   3.400   6.565 -0.7511  0.2756  1.7217
    9SAPS   H3S 1104   5.750   3.225   6.555  1.2412 -0.3383  0.7978
    9SAPS   C24 1105   5.773   3.323   6.760  0.4874  0.0176 -0.7133
    9SAPS   H4R 1106   5.761   3.235   6.827 -1.1066  0.6848 -0.1062
    9SAPS   H4S 1107   5.733   3.414   6.809 -2.1336 -1.7943  0.5690
    9SAPS   C25 1108   5.917   3.343   6.743 -0.5132  0.1957  0.4469
    9SAPS   H5R 1109   5.966   3.311   6.650 -0.2408  0.9024  0.3447
    9SAPS   C26 1110   6.008   3.393   6.827 -0.1534  0.4623  0.6679
    9SAPS   H6R 1111   6.111   3.411   6.793  0.1842 -1.8335  0.4235
    9SAPS   C27 1112   5.976   3.457   6.963  0.3108  0.5806  0.1851
    9SAPS   H7R 1113   6.008   3.391   7.047  0.3058  2.5922  1.8061
    9SAPS   H7S 1114   5.866   3.468   6.966  0.4479  1.6875  1.3585
    9SAPS   C28 1115   6.025   3.592   7.001 -0.0841  0.0956  0.2242
    9SAPS   H8R 1116   6.055   3.653   6.916 -0.7981  1.0425  0.6401
    9SAPS   C29 1117   6.045   3.635   7.124  0.5662 -0.3314  0.2214
    9SAPS   H9R 1118   6.083   3.737   7.134 -0.4563  0.1981 -1.2131
    9SAPS  C210 1119   6.023   3.560   7.251 -0.7471 -0.3513 -0.2404
    9SAPS  H10R 1120   5.925   3.507   7.260 -0.0775 -1.8383 -1.4384
    9SAPS  H10S 1121   6.020   3.635   7.333  0.3774  0.8555 -1.2848
    9SAPS  C211 1122   6.132   3.461   7.286 -0.1953  0.0783  0.3403
    9SAPS  H11R 1123   6.124   3.370   7.224 -0.3273  1.4741 -1.7231
    9SAPS  C212 1124   6.215   3.462   7.390 -0.3249  0.9377 -0.2247
    9SAPS  H12R 1125   6.277   3.373   7.410 -0.7177  0.4668 -1.0953
    9SAPS  C213 1126   6.220   3.583   7.479  0.6797 -0.4112 -0.0835
    9SAPS  H13R 1127   6.131   3.575   7.545  0.5388 -2.3668 -0.4964
    9SAPS  H13S 1128   6.208   3.675   7.418  1.2206  0.7322  1.4901
    9SAPS  C214 1129   6.348   3.583   7.563  0.2947 -0.2368  0.3783
    9SAPS  H14R 1130   6.335   3.583   7.672  1.8639  1.6425  0.5968
    9SAPS  C215 1131   6.469   3.623   7.522 -0.8047 -0.0826  0.2591
    9SAPS  H15R 1132   6.556   3.632   7.588  1.0398  0.2832 -2.1654
    9SAPS  C216 1133   6.495   3.664   7.374 -0.2992  0.6688 -0.1241
    9SAPS  H16R 1134   6.549   3.759   7.356  2.1564 -1.2716 -3.7205
    9SAPS  H16S 1135   6.402   3.686   7.317 -2.0380 -1.5401  1.7788
    9SAPS  C217 1136   6.588   3.582   7.291 -0.0402 -0.4990  0.8697
    9SAPS  H17R 1137   6.553   3.477   7.298  0.7960 -0.9071 -0.8749
    9SAPS  H17S 1138   6.692   3.590   7.331  1.1496 -0.4797 -2.1109
    9SAPS  C218 1139   6.577   3.636   7.145  0.5466  0.0025  0.4860
    9SAPS  H18R 1140   6.651   3.573   7.093  1.5884  1.1818  0.5101
    9SAPS  H18S 1141   6.625   3.736   7.142  2.1372 -0.7241  1.4449
    9SAPS  C219 1142   6.439   3.614   7.074  1.3878  0.1592 -0.1120
    9SAPS  H19R 1143   6.387   3.712   7.080 -1.0125 -1.1308  1.0008
    9SAPS  H19S 1144   6.363   3.546   7.118 -0.9364  2.4867 -0.4054
    9SAPS  C220 1145   6.451   3.589   6.927  0.3925 -0.1717  0.7007
    9SAPS  H20R 1146   6.513   3.504   6.891  1.3002 -0.1238  2.1127
    9SAPS  H20S 1147   6.499   3.677   6.879  2.6445 -1.2447  0.9219
    9SAPS  H20T 1148   6.343   3.578   6.899  0.7228 -0.8483 -0.3508
    9SAPS   C33 1149   5.466   2.954   7.105  0.3496  0.3971 -0.0144
    9SAPS   H3X 1150   5.377   2.973   7.041 -0.0004 -0.9402  0.0718
    9SAPS   H3Y 1151   5.473   3.048   7.164 -0.9453  0.7190 -0.3480
    9SAPS   C34 1152   5.428   2.841   7.197  0.5711  0.3923 -0.5894
    9SAPS   H4X 1153   5.524   2.801   7.236  0.6697  1.7396  0.6045
    9SAPS   H4Y 1154   5.371   2.768   7.135 -1.9897  1.2334  0.7000
    9SAPS   C35 1155   5.346   2.883   7.323  0.5361 -0.2508 -1.0009
    9SAPS   H5X 1156   5.258   2.945   7.295  1.8428  2.0551 -0.1256
    9SAPS   H5Y 1157   5.412   2.935   7.396  1.5471 -1.4410 -1.0454
    9SAPS   C36 1158   5.280   2.756   7.381 -0.2200  0.0167 -0.7376
    9SAPS   H6X 1159   5.352   2.672   7.381 -1.6020 -1.2322  2.3778
    9SAPS   H6Y 1160   5.206   2.730   7.303 -2.7939  0.2540  1.5636
    9SAPS   C37 1161   5.199   2.766   7.506  0.1319 -0.2467  0.5611
    9SAPS   H7X 1162   5.130   2.852   7.491  0.3982 -0.0037  0.7254
    9SAPS   H7Y 1163   5.261   2.792   7.595  1.1003  1.3457 -0.5416
    9SAPS   C38 1164   5.107   2.644   7.535  0.1485  0.3181  0.4083
    9SAPS   H8X 1165   5.032   2.638   7.453 -0.1355 -1.5501  0.7893
    9SAPS   H8Y 1166   5.050   2.661   7.629 -1.1371 -0.4097 -0.2157
    9SAPS   C39 1167   5.174   2.504   7.527  0.5567 -0.3029 -0.5501
    9SAPS   H9X 1168   5.226   2.493   7.430 -0.7070 -0.1168 -1.2526
    9SAPS   H9Y 1169   5.090   2.431   7.536  1.1105 -0.8889 -0.0763
    9SAPS  C310 1170   5.270   2.460   7.643  0.5684  0.0924 -0.4568
    9SAPS  H10X 1171   5.325   2.551   7.678  0.8565 -0.8077  1.4727
    9SAPS  H10Y 1172   5.337   2.396   7.583  1.9064  1.0549 -0.0181
    9SAPS  C311 1173   5.202   2.390   7.767  0.3675 -0.1043  0.7750
    9SAPS  H11X 1174   5.274   2.335   7.831 -0.2818 -1.9393 -0.0230
    9SAPS  H11Y 1175   5.150   2.313   7.706  0.2933  0.0707  0.6156
    9SAPS  C312 1176   5.094   2.459   7.850 -0.4027  0.5127  0.8175
    9SAPS  H12X 1177   5.061   2.379   7.919 -0.3649  0.5955  0.9324
    9SAPS  H12Y 1178   5.011   2.486   7.781 -1.5680 -1.6628  1.3343
    9SAPS  C313 1179   5.148   2.566   7.938  0.0555  0.0199  0.8166
    9SAPS  H13X 1180   5.166   2.649   7.866 -1.1304  0.5745  1.1497
    9SAPS  H13Y 1181   5.241   2.545   7.995  0.6204 -4.5473 -1.5238
    9SAPS  C314 1182   5.033   2.611   8.029 -0.5420  1.2825  0.4568
    9SAPS  H14X 1183   5.015   2.541   8.113  1.6797  0.1331  0.0138
    9SAPS  H14Y 1184   4.936   2.603   7.974 -0.2129  0.8820 -0.0719
    9SAPS  C315 1185   5.046   2.757   8.080  0.4479  0.3737  0.1219
    9SAPS  H15X 1186   4.959   2.792   8.140  1.4997  1.9331  0.8020
    9SAPS  H15Y 1187   5.052   2.827   7.994 -1.0538 -0.4006 -0.6255
    9SAPS  C316 1188   5.165   2.769   8.174 -0.7607  0.2314 -0.1207
    9SAPS  H16X 1189   5.256   2.731   8.122 -1.2522  0.2150 -0.9692
    9SAPS  H16Y 1190   5.150   2.700   8.261  0.5982 -0.0091 -0.0565
    9SAPS  C317 1191   5.189   2.911   8.230 -0.3437 -0.8091  0.9331
    9SAPS  H17X 1192   5.101   2.944   8.290 -0.3103 -0.3763  0.7469
    9SAPS  H17Y 1193   5.187   2.989   8.151 -0.4354 -1.4188  0.3394
    9SAPS  C318 1194   5.310   2.908   8.315  0.1054 -0.4578 -0.0981
    9SAPS  H18X 1195   5.323   3.010   8.357 -0.5242 -0.4582  0.1007
    9SAPS  H18Y 1196   5.403   2.885   8.259  1.5473  0.9146  1.6720
    9SAPS  H18Z 1197   5.301   2.841   8.403  0.1599 -0.6037 -0.2053
   10SAPS     N 1198   5.841   1.813   6.052  0.6933  0.1680  0.6416
   10SAPS   HN1 1199   5.850   1.775   5.956  1.3277  0.3406  0.6358
   10SAPS   HN2 1200   5.807   1.911   6.055 -0.0704 -0.0760  0.2096
   10SAPS   HN3 1201   5.936   1.817   6.093  1.2217 -2.2880 -0.2458
   10SAPS   C12 1202   5.750   1.721   6.122  0.0302  0.3840 -0.1250
   10SAPS  H12A 1203   5.651   1.739   6.084 -0.2689 -0.3134  0.3044
   10SAPS   C13 1204   5.775   1.573   6.089  0.7835  0.4574  0.7814
   10SAPS  O13A 1205   5.864   1.544   6.002  0.3401  0.9985 -0.2420
   10SAPS  O13B 1206   5.704   1.480   6.135 -0.0116  0.0365  0.2526
   10SAPS   C11 1207   5.751   1.752   6.271  0.1733  0.4194  0.2412
   10SAPS  H11A 1208   5.848   1.743   6.325  0.5968 -2.0095 -0.8665
   10SAPS  H11B 1209   5.679   1.684   6.321  0.5043 -0.4080 -0.3913
   10SAPS     P 1210   5.635   1.936   6.422 -0.1847 -0.5314 -0.0242
   10SAPS   O13 1211   5.636   2.087   6.414  0.1059  0.3742  0.4059
   10SAPS   O14 1212   5.504   1.870   6.427 -0.0852  0.0540 -0.1520
   10SAPS   O12 1213   5.703   1.888   6.289 -0.0684 -0.5275  0.2641
   10SAPS   O11 1214   5.729   1.878   6.536 -0.1883 -0.4690 -0.5603
   10SAPS    C1 1215   5.854   1.943   6.560 -0.3231  0.2131  0.0239
   10SAPS    HA 1216   5.928   1.861   6.575 -1.0026 -0.4972 -0.4256
   10SAPS    HB 1217   5.873   2.011   6.475 -0.4028 -0.3295 -0.4332
   10SAPS    C2 1218   5.853   2.035   6.686 -0.0104  0.2896 -0.3832
   10SAPS    HS 1219   5.956   2.072   6.708  0.8521 -2.8807  1.1764
   10SAPS   O21 1220   5.804   1.966   6.804 -0.7401 -0.6416 -0.2057
   10SAPS   C21 1221   5.882   1.891   6.859  0.2801 -1.1072 -0.5833
   10SAPS   O22 1222   5.998   1.875   6.831 -0.3090 -0.1810 -0.6075
   10SAPS   C22 1223   5.800   1.823   6.967 -0.1275 -0.0099 -0.8639
   10SAPS   H2R 1224   5.713   1.777   6.916  0.2796 -2.4178  0.5238
   10SAPS   H2S 1225   5.869   1.746   7.006 -0.2593  0.8691  1.1735
   10SAPS    C3 1226   5.767   2.166   6.673 -0.0983 -0.2911  0.2123
   10SAPS    HX 1227   5.662   2.134   6.655  0.1179 -1.5822  1.1581
   10SAPS    HY 1228   5.813   2.219   6.587 -1.2110  1.4863  0.6768
   10SAPS   O31 1229   5.775   2.245   6.786  0.1492  0.1942 -0.5414
   10SAPS   C31 1230   5.684   2.227   6.886  0.0076 -0.2118 -0.2077
   10SAPS   O32 1231   5.578   2.163   6.878 -0.0048 -0.2347  0.0953
   10SAPS   C32 1232   5.741   2.293   7.013  0.5470  0.4089  0.0988
   10SAPS   H2X 1233   5.751   2.404   7.007 -3.0612  0.8131  0.2439
   10SAPS   H2Y 1234   5.844   2.255   7.030 -0.1203 -0.1999  2.9934
   10SAPS   C23 1235   5.745   1.908   7.081 -0.0363  0.6558  0.3180
   10SAPS   H3R 1236   5.667   1.849   7.133 -1.0739 -0.1841 -2.1324
   10SAPS   H3S 1237   5.692   2.001   7.052 -1.4564 -0.0315  0.7051
   10SAPS   C24 1238   5.857   1.967   7.172  0.2060 -0.1280 -0.3376
   10SAPS   H4R 1239   5.800   2.025   7.248  1.3647  0.9942 -0.3160
   10SAPS   H4S 1240   5.917   2.041   7.115 -1.1491 -0.0932 -1.7379
   10SAPS   C25 1241   5.946   1.862   7.230  0.2473 -0.0108 -0.1434
   10SAPS   H5R 1242   5.998   1.795   7.160  2.7192 -0.5232  2.0876
   10SAPS   C26 1243   5.957   1.843   7.360  0.0960 -0.7812  0.3539
   10SAPS   H6R 1244   6.027   1.763   7.388  2.7703  1.3848  0.0882
   10SAPS   C27 1245   5.902   1.933   7.467 -0.5401  0.5845 -0.4890
   10SAPS   H7R 1246   5.874   2.035   7.434 -0.4069 -0.2808 -3.4547
   10SAPS   H7S 1247   5.986   1.952   7.537  0.0836 -0.6888 -0.8760
   10SAPS   C28 1248   5.781   1.870   7.531 -0.6063  0.2525  0.4687
   10SAPS   H8R 1249   5.704   1.830   7.463  2.9812  0.0264 -3.7183
   10SAPS   C29 1250   5.756   1.859   7.661 -0.3065 -0.1909  0.0194
   10SAPS   H9R 1251   5.660   1.810   7.684 -0.7692 -0.1725 -1.7918
   10SAPS  C210 1252   5.843   1.904   7.773 -0.1617 -0.2090 -0.0792
   10SAPS  H10R 1253   5.785   1.975   7.836  1.4493  0.7739  0.3315
   10SAPS  H10S 1254   5.927   1.957   7.722 -0.7941 -0.9895 -1.9629
   10SAPS  C211 1255   5.907   1.782   7.842  0.2457 -1.0655  0.3171
   10SAPS  H11R 1256   5.955   1.707   7.777 -1.5312 -1.2710 -0.7741
   10SAPS  C212 1257   5.919   1.757   7.974 -0.7709  0.3718 -0.4185
   10SAPS  H12R 1258   5.983   1.673   8.004 -0.9078 -0.9231 -3.5244
   10SAPS  C213 1259   5.875   1.836   8.091  0.8900 -0.3582 -0.4516
   10SAPS  H13R 1260   5.778   1.889   8.075 -0.7235 -2.5497  1.6062
   10SAPS  H13S 1261   5.943   1.919   8.119  1.5189 -1.6470  1.9783
   10SAPS  C214 1262   5.864   1.752   8.220 -0.0649 -0.4208  0.3610
   10SAPS  H14R 1263   5.952   1.717   8.275 -0.3041 -1.4912  0.0839
   10SAPS  C215 1264   5.742   1.704   8.271 -0.0144  0.6037 -0.1933
   10SAPS  H15R 1265   5.750   1.627   8.349 -1.5012 -0.2530 -0.8753
   10SAPS  C216 1266   5.604   1.725   8.212 -0.0023 -0.6592 -0.3034
   10SAPS  H16R 1267   5.605   1.798   8.128  0.7981 -1.3577 -0.9069
   10SAPS  H16S 1268   5.535   1.759   8.292  0.8538  0.0325  0.1472
   10SAPS  C217 1269   5.543   1.600   8.154  0.0264 -0.1881  1.4190
   10SAPS  H17R 1270   5.618   1.550   8.088 -1.7193  0.1887 -0.9317
   10SAPS  H17S 1271   5.465   1.630   8.081  2.4465 -1.5706 -1.9168
   10SAPS  C218 1272   5.488   1.488   8.253  0.2285  0.0886  0.2387
   10SAPS  H18R 1273   5.405   1.535   8.310  0.2465 -0.1451  0.4553
   10SAPS  H18S 1274   5.572   1.460   8.320  1.7072 -1.8343 -2.3762
   10SAPS  C219 1275   5.431   1.361   8.193 -0.3688  0.2175 -0.1708
   10SAPS  H19R 1276   5.523   1.313   8.151 -1.9119 -0.4108 -2.9533
   10SAPS  H19S 1277   5.357   1.384   8.114  1.1797  0.7619 -1.5063
   10SAPS  C220 1278   5.371   1.275   8.302  0.3743  0.3926 -0.2858
   10SAPS  H20R 1279   5.265   1.302   8.320 -0.2114 -2.3037  0.5384
   10SAPS  H20S 1280   5.432   1.280   8.395 -1.2557 -2.7390  1.0509
   10SAPS  H20T 1281   5.373   1.174   8.256  2.2593 -0.6100  1.8505
   10SAPS   C33 1282   5.647   2.285   7.133  0.5434  0.3485  1.0846
   10SAPS   H3X 1283   5.624   2.185   7.175 -1.7837  0.5156  0.2794
   10SAPS   H3Y 1284   5.548   2.325   7.102  0.6675 -0.2904 -0.1386
   10SAPS   C34 1285   5.707   2.364   7.250 -0.1745  0.3585 -0.4751
   10SAPS   H4X 1286   5.690   2.474   7.245  4.2715  1.0937 -0.8455
   10SAPS   H4Y 1287   5.815   2.347   7.233 -0.0591 -1.8723  2.0958
   10SAPS   C35 1288   5.661   2.307   7.385  0.8687 -0.0142 -0.5746
   10SAPS   H5X 1289   5.662   2.196   7.376 -1.0329 -0.1860  1.0641
   10SAPS   H5Y 1290   5.560   2.341   7.416  1.2665 -0.0106  0.7231
   10SAPS   C36 1291   5.752   2.346   7.500 -0.1360 -0.6816  0.6493
   10SAPS   H6X 1292   5.720   2.451   7.514 -1.9612 -0.9990 -0.8478
   10SAPS   H6Y 1293   5.860   2.344   7.473 -0.2465 -0.8025  0.2030
   10SAPS   C37 1294   5.736   2.257   7.620  0.0343  0.2299 -0.8333
   10SAPS   H7X 1295   5.782   2.157   7.606 -5.0908 -2.2102 -1.3561
   10SAPS   H7Y 1296   5.627   2.239   7.629  0.2450 -0.7329 -0.1727
   10SAPS   C38 1297   5.794   2.335   7.741 -0.4322  0.4172  0.5062
   10SAPS   H8X 1298   5.771   2.444   7.740  2.2007  0.9912  0.1073
   10SAPS   H8Y 1299   5.902   2.326   7.719 -0.7008 -0.2044 -0.6376
   10SAPS   C39 1300   5.750   2.268   7.870 -0.9407  0.0032  0.3786
   10SAPS   H9X 1301   5.776   2.160   7.861 -1.0959 -0.0237  0.2419
   10SAPS   H9Y 1302   5.641   2.285   7.887 -0.3491  2.9939  1.3955
   10SAPS  C310 1303   5.829   2.333   7.983 -0.4078 -0.0259  0.3742
   10SAPS  H10X 1304   5.812   2.440   7.960 -0.1762  0.3049  1.7084
   10SAPS  H10Y 1305   5.938   2.312   7.983 -0.7473 -2.0915  3.1273
   10SAPS  C311 1306   5.770   2.276   8.109 -0.5388  0.5625 -0.3175
   10SAPS  H11X 1307   5.759   2.166   8.100 -1.1347  0.3255  2.7664
   10SAPS  H11Y 1308   5.666   2.315   8.115 -0.2463  1.2655  0.1123
   10SAPS  C312 1309   5.844   2.316   8.240  0.0492  0.0345 -0.1648
   10SAPS  H12X 1310   5.834   2.422   8.273  0.2118 -0.5135  1.6859
   10SAPS  H12Y 1311   5.953   2.298   8.225  0.6754  2.6342  0.9860
   10SAPS  C313 1312   5.791   2.230   8.356  0.6110  0.2440 -0.2754
   10SAPS  H13X 1313   5.805   2.123   8.331  3.6223  0.7576 -0.9170
   10SAPS  H13Y 1314   5.681   2.245   8.366  0.4606 -0.4637 -0.8146
   10SAPS  C314 1315   5.853   2.255   8.489  0.2088  0.2990  0.0729
   10SAPS  H14X 1316   5.862   2.361   8.521  0.7378  0.7947 -1.6267
   10SAPS  H14Y 1317   5.958   2.224   8.469  0.1696 -0.1600  0.5889
   10SAPS  C315 1318   5.791   2.154   8.594 -0.7923 -0.4833 -0.7050
   10SAPS  H15X 1319   5.684   2.180   8.601 -0.4161  0.9954 -0.2850
   10SAPS  H15Y 1320   5.835   2.175   8.694 -2.9258  0.9899 -0.0480
   10SAPS  C316 1321   5.803   2.000   8.556  1.0077  0.6166 -0.5713
   10SAPS  H16X 1322   5.903   1.970   8.518  1.2638 -2.0425  2.0573
   10SAPS  H16Y 1323   5.722   1.973   8.485  1.9651  1.1236 -1.8679
   10SAPS  C317 1324   5.773   1.906   8.679 -0.1728 -0.3860  0.3252
   10SAPS  H17X 1325   5.693   1.948   8.743 -1.0040  1.3345 -1.8039
   10SAPS  H17Y 1326   5.865   1.923   8.739 -1.1143  1.4241  1.2689
   10SAPS  C318 1327   5.760   1.758   8.632 -0.2905 -0.6755  0.3815
   10SAPS  H18X 1328   5.657   1.736   8.595  0.3838  0.7235 -2.4662
   10SAPS  H18Y 1329   5.778   1.696   8.722  1.3519  0.9099  1.1672
   10SAPS  H18Z 1330   5.839   1.721   8.564  1.8859 -0.4763  2.7418
   11SAPS     N 1331   0.675   5.542   5.826 -0.0373 -0.0690 -0.3535
   11SAPS   HN1 1332   0.630   5.534   5.919 -0.5143  0.2143 -0.5556
   11SAPS   HN2 1333   0.729   5.453   5.819  0.6484  0.3691 -0.7580
   11SAPS   HN3 1334   0.744   5.618   5.844  0.1884 -0.6512  1.3059
   11SAPS   C12 1335   0.583   5.568   5.717 -0.0239 -0.3494  0.2158
   11SAPS  H12A 1336   0.533   5.663   5.725  1.6547  0.5436  0.3437
   11SAPS   C13 1337   0.653   5.578   5.577 -0.3136  0.7171  0.4190
   11SAPS  O13A 1338   0.774   5.535   5.569 -0.0291  0.0348  0.3786
   11SAPS  O13B 1339   0.581   5.600   5.479  0.1628  0.0385 -0.4189
   11SAPS   C11 1340   0.483   5.445   5.703  0.2140  0.0236  0.4366
   11SAPS  H11A 1341   0.537   5.349   5.694 -1.5316 -0.9187 -0.1690
   11SAPS  H11B 1342   0.412   5.453   5.618 -0.4623  0.5234  1.0393
   11SAPS     P 1343   0.288   5.351   5.846 -0.1226  0.1689  0.0967
   11SAPS   O13 1344   0.158   5.430   5.842  0.4293  0.6077 -0.1575
   11SAPS   O14 1345   0.295   5.244   5.745  0.2091 -0.2583  0.4801
   11SAPS   O12 1346   0.406   5.454   5.823  0.6207  0.5763  0.1302
   11SAPS   O11 1347   0.318   5.292   5.988  0.0785 -0.1810  0.0152
   11SAPS    C1 1348   0.447   5.287   6.042 -0.4855 -0.6078 -0.3005
   11SAPS    HA 1349   0.519   5.240   5.971  0.2595 -0.6165  0.4405
   11SAPS    HB 1350   0.492   5.387   6.061 -1.6860 -0.2206  0.5649
   11SAPS    C2 1351   0.458   5.216   6.177  0.6420 -0.1876 -0.4263
   11SAPS    HS 1352   0.369   5.148   6.180  0.8600 -0.4533  0.2650
   11SAPS   O21 1353   0.452   5.318   6.277  0.6915 -0.3833  0.4867
   11SAPS   C21 1354   0.332   5.342   6.330 -0.0144 -0.1949 -0.0245
   11SAPS   O22 1355   0.232   5.277   6.302  0.7731  0.2635  0.6347
   11SAPS   C22 1356   0.358   5.438   6.448  0.3647 -0.1857  0.6310
   11SAPS   H2R 1357   0.457   5.489   6.441  0.0761  0.5973  2.0842
   11SAPS   H2S 1358   0.273   5.509   6.458  0.9355  0.4444  1.1176
   11SAPS    C3 1359   0.586   5.133   6.200  0.2374 -0.2292 -0.4510
   11SAPS    HX 1360   0.674   5.198   6.222  0.8236 -1.1763  0.0307
   11SAPS    HY 1361   0.605   5.092   6.098  2.6608  2.4301 -1.1421
   11SAPS   O31 1362   0.560   5.028   6.302 -0.2693 -0.6439 -0.3081
   11SAPS   C31 1363   0.606   4.913   6.282  0.5179 -0.5384 -0.2005
   11SAPS   O32 1364   0.670   4.873   6.184 -0.5039  0.0923  0.6371
   11SAPS   C32 1365   0.572   4.831   6.397  0.5900 -0.0991 -0.8363
   11SAPS   H2X 1366   0.481   4.775   6.368  1.4550 -1.1575 -1.5263
   11SAPS   H2Y 1367   0.549   4.896   6.484 -0.9345 -0.8070 -0.6948
   11SAPS   C23 1368   0.356   5.370   6.587  0.1930  0.3480 -0.1297
   11SAPS   H3R 1369   0.253   5.328   6.594 -0.0228  0.6179 -1.3946
   11SAPS   H3S 1370   0.363   5.449   6.664  1.5199 -2.2633  2.5129
   11SAPS   C24 1371   0.467   5.271   6.608 -0.6361 -0.0389 -0.1855
   11SAPS   H4R 1372   0.531   5.322   6.683  2.7261 -1.8508 -1.7177
   11SAPS   H4S 1373   0.534   5.267   6.520  0.1278 -0.6058  0.4162
   11SAPS   C25 1374   0.434   5.134   6.658  0.4751 -0.5206  0.0341
   11SAPS   H5R 1375   0.401   5.062   6.581  1.3699  1.2843 -2.1112
   11SAPS   C26 1376   0.436   5.091   6.778  0.5956 -0.1016 -0.0513
   11SAPS   H6R 1377   0.390   4.992   6.791  1.4113 -0.4887 -0.0619
   11SAPS   C27 1378   0.463   5.180   6.897  0.3821 -0.0317  0.4648
   11SAPS   H7R 1379   0.444   5.287   6.872  2.8650 -0.1043 -1.8831
   11SAPS   H7S 1380   0.573   5.179   6.915  0.4687 -0.1856 -0.0648
   11SAPS   C28 1381   0.381   5.174   7.020 -0.1311  1.3492  0.6766
   11SAPS   H8R 1382   0.276   5.151   6.998 -0.1705  0.4629  1.7096
   11SAPS   C29 1383   0.422   5.193   7.145 -0.2372 -0.4160  0.2726
   11SAPS   H9R 1384   0.346   5.187   7.224 -1.2906  2.5663 -0.4160
   11SAPS  C210 1385   0.566   5.213   7.186  0.4732  0.1099 -0.2216
   11SAPS  H10R 1386   0.572   5.320   7.214 -1.3433 -0.1799  1.3449
   11SAPS  H10S 1387   0.637   5.201   7.101  0.5547 -2.4793  0.1557
   11SAPS  C211 1388   0.614   5.112   7.288  1.5928 -0.1577  0.1709
   11SAPS  H11R 1389   0.664   5.024   7.247  1.4802 -1.8725  3.5044
   11SAPS  C212 1390   0.608   5.129   7.425 -0.3807 -0.3171  0.0817
   11SAPS  H12R 1391   0.656   5.049   7.484  1.0052 -1.0979 -2.0412
   11SAPS  C213 1392   0.554   5.246   7.500 -0.5716 -0.1477 -0.3321
   11SAPS  H13R 1393   0.445   5.233   7.516 -0.4629  1.7662  2.1308
   11SAPS  H13S 1394   0.563   5.336   7.434 -2.3083  2.2160  2.5354
   11SAPS  C214 1395   0.626   5.275   7.631  0.2849  0.2576 -0.5588
   11SAPS  H14R 1396   0.641   5.183   7.691 -0.2888  0.3314 -0.2960
   11SAPS  C215 1397   0.682   5.393   7.661 -0.4200 -0.7593 -0.1878
   11SAPS  H15R 1398   0.739   5.399   7.755  1.7147  1.2663 -1.5481
   11SAPS  C216 1399   0.680   5.524   7.593 -0.1660 -0.3699  0.6103
   11SAPS  H16R 1400   0.657   5.606   7.664 -2.5269  1.6002 -2.2558
   11SAPS  H16S 1401   0.601   5.538   7.515  1.1626 -0.2094 -0.7367
   11SAPS  C217 1402   0.811   5.564   7.514  0.1952 -0.1407 -0.3241
   11SAPS  H17R 1403   0.812   5.513   7.416  0.4786 -1.9020  0.5720
   11SAPS  H17S 1404   0.891   5.519   7.576 -2.0171 -2.3349  1.0308
   11SAPS  C218 1405   0.815   5.720   7.499  0.0188  0.1870 -0.5117
   11SAPS  H18R 1406   0.716   5.767   7.484 -0.1158  0.1916  0.3651
   11SAPS  H18S 1407   0.869   5.743   7.405  1.5002 -0.4947  0.1516
   11SAPS  C219 1408   0.880   5.781   7.616  0.3794  0.2272 -0.2115
   11SAPS  H19R 1409   0.834   5.733   7.705  0.4388  0.2124 -0.1900
   11SAPS  H19S 1410   0.833   5.881   7.625 -1.3369 -0.6019  0.3192
   11SAPS  C220 1411   1.029   5.796   7.611  0.6414  0.1501 -0.5349
   11SAPS  H20R 1412   1.061   5.854   7.700 -0.5075  0.0045 -0.0264
   11SAPS  H20S 1413   1.051   5.854   7.518 -3.8265  0.1648 -1.6912
   11SAPS  H20T 1414   1.080   5.698   7.621 -1.1290 -0.5272  2.3688
   11SAPS   C33 1415   0.684   4.726   6.443  0.5438 -0.2708  0.2602
   11SAPS   H3X 1416   0.716   4.655   6.364  0.2524 -0.3212  0.1858
   11SAPS   H3Y 1417   0.638   4.669   6.527 -0.5757 -0.3340 -0.3794
   11SAPS   C34 1418   0.810   4.797   6.504  1.1416 -0.1169 -0.3035
   11SAPS   H4X 1419   0.865   4.847   6.422 -1.1329  0.4893 -1.4974
   11SAPS   H4Y 1420   0.875   4.710   6.530  0.8146  0.1487  1.4963
   11SAPS   C35 1421   0.778   4.881   6.634 -0.0169  0.7541  0.1138
   11SAPS   H5X 1422   0.694   4.835   6.690  1.6422 -0.9561  1.2352
   11SAPS   H5Y 1423   0.722   4.971   6.600  0.1535  0.6349 -0.4975
   11SAPS   C36 1424   0.895   4.931   6.728  0.8979 -0.4172 -0.6573
   11SAPS   H6X 1425   0.956   5.009   6.677  1.7844 -1.7953 -1.7635
   11SAPS   H6Y 1426   0.969   4.849   6.742  3.6315  1.9579 -0.5941
   11SAPS   C37 1427   0.840   4.984   6.863 -0.0769  0.1643 -0.1250
   11SAPS   H7X 1428   0.786   4.900   6.912  0.1826 -1.1255 -1.9871
   11SAPS   H7Y 1429   0.764   5.062   6.843 -1.8262 -1.5983 -0.5683
   11SAPS   C38 1430   0.960   5.038   6.948 -0.1935  0.1023 -0.1717
   11SAPS   H8X 1431   0.996   5.134   6.906  1.8788 -1.7542 -2.7921
   11SAPS   H8Y 1432   1.043   4.966   6.936  0.6137  0.8445  0.8091
   11SAPS   C39 1433   0.913   5.052   7.098 -0.1577  0.0222  0.5341
   11SAPS   H9X 1434   0.863   4.955   7.119  1.3217 -1.2944 -1.7868
   11SAPS   H9Y 1435   0.837   5.132   7.101 -1.9923 -1.6325 -0.7592
   11SAPS  C310 1436   1.022   5.072   7.208  0.5832 -0.5573  0.5909
   11SAPS  H10X 1437   1.095   5.152   7.181 -1.5359  1.3810  0.4328
   11SAPS  H10Y 1438   1.079   4.978   7.221  2.3211 -0.0051 -2.5354
   11SAPS  C311 1439   0.962   5.110   7.345  0.4859  0.2659 -0.0874
   11SAPS  H11X 1440   0.883   5.031   7.352  0.6673 -0.4384 -4.3672
   11SAPS  H11Y 1441   0.910   5.208   7.338 -1.0441 -0.5986 -1.3183
   11SAPS  C312 1442   1.059   5.119   7.461  0.0190 -0.1273 -0.6386
   11SAPS  H12X 1443   1.081   5.225   7.485  0.1187 -0.4510  0.7341
   11SAPS  H12Y 1444   1.151   5.066   7.430 -0.5374 -0.5133 -1.6487
   11SAPS  C313 1445   1.003   5.045   7.591  0.4953 -0.4124 -0.3826
   11SAPS  H13X 1446   1.009   4.934   7.580  0.4677 -0.3387 -1.1743
   11SAPS  H13Y 1447   0.895   5.069   7.596  0.9165  1.0159  2.1968
   11SAPS  C314 1448   1.066   5.098   7.717 -0.0932  0.3531 -0.0334
   11SAPS  H14X 1449   1.068   5.209   7.717  0.9462  0.3621 -2.7052
   11SAPS  H14Y 1450   1.174   5.073   7.722  0.2600  1.4568 -1.7767
   11SAPS  C315 1451   0.995   5.057   7.844  0.3447  0.2061  0.4805
   11SAPS  H15X 1452   1.016   4.949   7.859  1.2537  0.3138  0.0228
   11SAPS  H15Y 1453   0.886   5.071   7.836  0.1636 -1.1685  0.3544
   11SAPS  C316 1454   1.040   5.143   7.972  0.9530 -0.0683 -0.2358
   11SAPS  H16X 1455   0.978   5.107   8.058  0.3010  1.6039  0.0055
   11SAPS  H16Y 1456   1.027   5.250   7.946  1.3423  0.8429  3.0040
   11SAPS  C317 1457   1.185   5.109   8.031 -0.4461  0.1771  0.3084
   11SAPS  H17X 1458   1.258   5.129   7.949 -0.4789  1.5195  0.5861
   11SAPS  H17Y 1459   1.197   5.002   8.057  1.6041  0.2926 -0.0675
   11SAPS  C318 1460   1.213   5.193   8.157  0.1163  0.1291  0.5839
   11SAPS  H18X 1461   1.157   5.152   8.244  1.0144  0.6051  1.4019
   11SAPS  H18Y 1462   1.176   5.296   8.138 -2.2331 -0.9636 -0.9760
   11SAPS  H18Z 1463   1.317   5.189   8.196 -0.3632  0.3482  1.9432
   12SAPS     N 1464   0.756   0.476   6.034  0.6283 -0.4602 -0.2326
   12SAPS   HN1 1465   0.661   0.518   6.021  0.3922 -0.1272  2.2290
   12SAPS   HN2 1466   0.740   0.403   6.106 -4.7748  1.4203  0.7032
   12SAPS   HN3 1467   0.814   0.551   6.077 -0.7806  1.1350 -1.0214
   12SAPS   C12 1468   0.818   0.415   5.916 -0.0125 -0.6085 -0.3712
   12SAPS  H12A 1469   0.743   0.344   5.885 -1.0205 -0.1179  0.9130
   12SAPS   C13 1470   0.859   0.509   5.801  0.2149  0.4017 -0.1659
   12SAPS  O13A 1471   0.830   0.631   5.819  0.3723 -0.0789 -0.2839
   12SAPS  O13B 1472   0.916   0.461   5.701  0.8528  0.2601  0.4677
   12SAPS   C11 1473   0.946   0.340   5.965  0.3622 -0.3371 -0.7186
   12SAPS  H11A 1474   1.015   0.417   6.007 -0.9352  0.2860  0.3027
   12SAPS  H11B 1475   0.991   0.289   5.877  1.7130  0.2612 -0.3983
   12SAPS     P 1476   0.887   0.094   6.092  0.2927 -0.5289 -0.0345
   12SAPS   O13 1477   0.777   0.054   5.993 -0.0129  0.0738  0.0592
   12SAPS   O14 1478   1.019   0.022   6.083  0.0352  0.1042 -0.4598
   12SAPS   O12 1479   0.914   0.251   6.072  0.2761  0.7423 -0.6160
   12SAPS   O11 1480   0.829   0.108   6.238  0.1900 -0.1398  0.1428
   12SAPS    C1 1481   0.744   0.011   6.294  0.1417  0.1445 -0.8864
   12SAPS    HA 1482   0.698   0.059   6.383 -0.5427 -0.5804 -0.8445
   12SAPS    HB 1483   0.657  -0.020   6.232  1.0902 -0.1002 -2.1134
   12SAPS    C2 1484   0.823  -0.100   6.367  0.0979  0.7070 -0.0292
   12SAPS    HS 1485   0.878  -0.158   6.290 -0.5609  0.1374 -0.0862
   12SAPS   O21 1486   0.730  -0.182   6.442 -0.2284  0.2647  0.3352
   12SAPS   C21 1487   0.775  -0.280   6.516 -0.2347  0.3798  0.8722
   12SAPS   O22 1488   0.889  -0.328   6.511 -0.7158 -0.1404 -0.3443
   12SAPS   C22 1489   0.671  -0.330   6.619  0.1587  0.4675  0.0940
   12SAPS   H2R 1490   0.583  -0.264   6.601 -0.0805  0.1064 -0.0794
   12SAPS   H2S 1491   0.639  -0.434   6.594  0.7324  0.4220 -0.4754
   12SAPS    C3 1492   0.936  -0.033   6.450  0.1339 -0.0820 -0.4006
   12SAPS    HX 1493   1.001   0.015   6.373  1.0505 -2.6638 -1.2906
   12SAPS    HY 1494   1.004  -0.104   6.503 -0.6350  1.1478  2.3083
   12SAPS   O31 1495   0.890   0.064   6.549 -0.1545 -0.2540 -0.2854
   12SAPS   C31 1496   0.893   0.039   6.673 -0.1240  0.6273 -0.8956
   12SAPS   O32 1497   0.945  -0.056   6.730  0.5236  0.0967 -0.1301
   12SAPS   C32 1498   0.816   0.156   6.739 -0.5906  0.0795 -0.3950
   12SAPS   H2X 1499   0.744   0.194   6.664 -0.5316 -0.4340 -0.7134
   12SAPS   H2Y 1500   0.883   0.243   6.758 -0.5350  0.0426 -0.4253
   12SAPS   C23 1501   0.716  -0.327   6.770  0.0972 -0.4678 -0.3351
   12SAPS   H3R 1502   0.632  -0.271   6.817 -0.7405 -0.4670 -1.7779
   12SAPS   H3S 1503   0.810  -0.271   6.789  1.3791 -2.2502 -1.2893
   12SAPS   C24 1504   0.710  -0.460   6.852 -0.1818  0.0612  0.0050
   12SAPS   H4R 1505   0.763  -0.448   6.949  0.7013 -3.6699  0.0801
   12SAPS   H4S 1506   0.763  -0.537   6.791 -2.0550 -0.6749 -0.7151
   12SAPS   C25 1507   0.573  -0.518   6.879  0.3525 -0.2551 -0.5615
   12SAPS   H5R 1508   0.532  -0.584   6.801 -1.6457  1.9148 -1.4247
   12SAPS   C26 1509   0.485  -0.491   6.985  0.8482 -0.2676 -0.4119
   12SAPS   H6R 1510   0.386  -0.537   6.996  1.2441 -0.9469  0.3900
   12SAPS   C27 1511   0.518  -0.401   7.104  0.2997 -0.2802  0.8562
   12SAPS   H7R 1512   0.628  -0.398   7.111  0.2280 -0.4819  2.1138
   12SAPS   H7S 1513   0.474  -0.453   7.192  1.8726 -1.7385  0.7965
   12SAPS   C28 1514   0.470  -0.255   7.105 -0.7792  0.4545  0.2981
   12SAPS   H8R 1515   0.443  -0.212   7.007  1.4255  0.8112 -0.1982
   12SAPS   C29 1516   0.480  -0.170   7.206 -0.2236 -0.1026  0.2687
   12SAPS   H9R 1517   0.456  -0.063   7.192  2.0080  0.1660 -1.7054
   12SAPS  C210 1518   0.541  -0.211   7.334  0.5279 -0.2202  0.4072
   12SAPS  H10R 1519   0.599  -0.126   7.376 -0.1030  0.6639 -0.4929
   12SAPS  H10S 1520   0.618  -0.291   7.335 -1.4096 -2.1037  1.2785
   12SAPS  C211 1521   0.438  -0.242   7.440 -0.0096 -0.1093  0.8304
   12SAPS  H11R 1522   0.336  -0.265   7.407  0.2520  0.6282 -0.5220
   12SAPS  C212 1523   0.454  -0.243   7.575  0.5033 -0.4749  0.2914
   12SAPS  H12R 1524   0.367  -0.266   7.638 -0.1650 -3.6657 -1.6783
   12SAPS  C213 1525   0.586  -0.228   7.646  0.1910  0.3621  0.0168
   12SAPS  H13R 1526   0.666  -0.226   7.570 -0.0757  0.2832 -0.2691
   12SAPS  H13S 1527   0.602  -0.313   7.715  2.0574 -0.6786 -1.6552
   12SAPS  C214 1528   0.592  -0.102   7.724 -0.0768 -0.2334  0.7078
   12SAPS  H14R 1529   0.559  -0.022   7.656  0.2431 -0.4499  0.2966
   12SAPS  C215 1530   0.622  -0.082   7.847 -0.2106  0.8301 -0.3218
   12SAPS  H15R 1531   0.602   0.019   7.885  0.5071  1.0111 -0.4211
   12SAPS  C216 1532   0.669  -0.192   7.944  0.9596  0.6922 -0.4363
   12SAPS  H16R 1533   0.760  -0.150   7.991  1.5893 -1.4601  0.3295
   12SAPS  H16S 1534   0.719  -0.274   7.888  0.4058  0.5957 -0.7958
   12SAPS  C217 1535   0.577  -0.250   8.051  0.4478 -0.6983 -0.5928
   12SAPS  H17R 1536   0.628  -0.327   8.112 -0.6565 -0.9449  0.0277
   12SAPS  H17S 1537   0.496  -0.304   7.998 -0.3359  0.8354 -0.9902
   12SAPS  C218 1538   0.523  -0.144   8.148  0.2893 -0.1749 -0.1546
   12SAPS  H18R 1539   0.454  -0.067   8.109  0.5920  0.2412  0.1247
   12SAPS  H18S 1540   0.610  -0.091   8.192  1.4055 -1.2868 -1.0125
   12SAPS  C219 1541   0.458  -0.204   8.276 -0.0952  0.3441  0.2402
   12SAPS  H19R 1542   0.529  -0.276   8.321 -0.6147 -0.4590 -0.2039
   12SAPS  H19S 1543   0.374  -0.270   8.243 -0.6677  0.0355  2.2878
   12SAPS  C220 1544   0.413  -0.115   8.387  0.3062  0.2116 -0.5027
   12SAPS  H20R 1545   0.393  -0.172   8.480  1.0069 -1.2063 -1.1944
   12SAPS  H20S 1546   0.315  -0.072   8.358 -1.9011 -3.2020  1.4168
   12SAPS  H20T 1547   0.489  -0.034   8.392  0.9368 -0.2809 -1.7676
   12SAPS   C33 1548   0.739   0.106   6.863 -0.4291  0.1103 -0.1848
   12SAPS   H3X 1549   0.685   0.010   6.851  0.3156 -0.4168  0.6629
   12SAPS   H3Y 1550   0.662   0.178   6.899  0.6721 -0.2991  3.2033
   12SAPS   C34 1551   0.837   0.104   6.985 -0.1520 -0.5318  0.8462
   12SAPS   H4X 1552   0.877   0.207   6.997  0.5050 -0.7024  0.1360
   12SAPS   H4Y 1553   0.926   0.042   6.964  1.2233  2.3280 -2.2067
   12SAPS   C35 1554   0.774   0.060   7.111 -0.0462 -0.4419 -0.7486
   12SAPS   H5X 1555   0.733  -0.041   7.092  1.7148 -1.2937 -0.1204
   12SAPS   H5Y 1556   0.689   0.122   7.146 -0.0001 -1.0635  0.4896
   12SAPS   C36 1557   0.883   0.058   7.228 -0.0117 -0.1774  0.2416
   12SAPS   H6X 1558   0.934   0.156   7.230  1.7860 -1.0559 -0.9299
   12SAPS   H6Y 1559   0.950  -0.024   7.195  0.0535  0.2267 -0.6384
   12SAPS   C37 1560   0.820   0.020   7.366 -0.1505  0.1410  0.5970
   12SAPS   H7X 1561   0.792  -0.085   7.341 -0.3893  0.7318 -1.7893
   12SAPS   H7Y 1562   0.735   0.088   7.385 -0.7631 -0.9756  1.9265
   12SAPS   C38 1563   0.924   0.005   7.482  0.4779 -0.1605 -0.8087
   12SAPS   H8X 1564   0.867  -0.020   7.574 -1.9221  0.3438 -2.1244
   12SAPS   H8Y 1565   0.970   0.106   7.497 -0.6173 -0.2502  3.6494
   12SAPS   C39 1566   1.041  -0.097   7.459 -0.9389  0.7972  0.3573
   12SAPS   H9X 1567   1.092  -0.074   7.363 -0.2364  1.0012  0.7772
   12SAPS   H9Y 1568   0.998  -0.199   7.470 -1.5306  1.0757  0.6199
   12SAPS  C310 1569   1.157  -0.088   7.561 -0.1419  0.2581 -0.9914
   12SAPS  H10X 1570   1.194   0.016   7.572  4.3724 -1.1487 -1.6801
   12SAPS  H10Y 1571   1.237  -0.157   7.526 -0.4354 -1.4942  1.5749
   12SAPS  C311 1572   1.117  -0.150   7.692 -0.2692  0.4554 -0.4470
   12SAPS  H11X 1573   1.109  -0.260   7.674 -0.3354 -0.0454  2.3438
   12SAPS  H11Y 1574   1.017  -0.108   7.717 -0.5180 -1.6504  2.3188
   12SAPS  C312 1575   1.209  -0.107   7.803 -0.0241  0.1235  0.3337
   12SAPS  H12X 1576   1.165  -0.111   7.905 -0.5070  2.1562  0.2265
   12SAPS  H12Y 1577   1.228  -0.001   7.775 -0.7799  0.1974  0.0882
   12SAPS  C313 1578   1.346  -0.183   7.793  0.2114 -0.0063 -0.2409
   12SAPS  H13X 1579   1.374  -0.191   7.686  0.4290 -0.4939 -0.1476
   12SAPS  H13Y 1580   1.318  -0.287   7.822 -2.1832  1.2416  2.2177
   12SAPS  C314 1581   1.460  -0.123   7.874 -0.4843 -0.6753 -0.1940
   12SAPS  H14X 1582   1.456  -0.015   7.849  1.8437 -0.4806  0.0941
   12SAPS  H14Y 1583   1.560  -0.162   7.845  0.7557  2.9647 -1.0997
   12SAPS  C315 1584   1.435  -0.128   8.024  0.1256 -0.3292 -0.1544
   12SAPS  H15X 1585   1.352  -0.054   8.031  0.6706  0.3878 -1.1547
   12SAPS  H15Y 1586   1.520  -0.077   8.074 -0.9085  2.2387 -0.9070
   12SAPS  C316 1587   1.415  -0.258   8.096  0.3826 -0.0002  0.5316
   12SAPS  H16X 1588   1.477  -0.339   8.051  0.8778  0.4666  0.3558
   12SAPS  H16Y 1589   1.309  -0.288   8.082  0.3050  0.7847 -0.6489
   12SAPS  C317 1590   1.454  -0.254   8.243  0.7494 -1.0972 -0.5583
   12SAPS  H17X 1591   1.392  -0.175   8.290  1.6317 -1.0059  0.4616
   12SAPS  H17Y 1592   1.563  -0.240   8.263  0.1835  0.6962  1.3972
   12SAPS  C318 1593   1.424  -0.381   8.311 -0.3093  0.0434 -0.1876
   12SAPS  H18X 1594   1.436  -0.476   8.253  0.4785 -0.3296  0.5722
   12SAPS  H18Y 1595   1.320  -0.380   8.349 -0.4285 -1.4617 -0.4412
   12SAPS  H18Z 1596   1.482  -0.394   8.405  0.3547 -3.0884 -0.9674
   13SAPS     N 1597   0.382   3.992   6.094  0.2748 -0.2197 -0.4474
   13SAPS   HN1 1598   0.400   4.044   6.182 -0.6945  0.7802 -0.8329
   13SAPS   HN2 1599   0.385   4.061   6.017 -0.6549 -1.5923 -1.7620
   13SAPS   HN3 1600   0.290   3.949   6.117  0.7305 -0.8786  0.1878
   13SAPS   C12 1601   0.487   3.885   6.059  0.1365  0.1180 -0.5966
   13SAPS  H12A 1602   0.478   3.808   6.134  1.0149  0.1022 -0.4937
   13SAPS   C13 1603   0.476   3.812   5.916  0.7686 -0.4030  0.1551
   13SAPS  O13A 1604   0.394   3.860   5.826 -0.3758  0.2026 -0.1723
   13SAPS  O13B 1605   0.542   3.707   5.889 -0.2043 -0.2682 -0.0561
   13SAPS   C11 1606   0.630   3.944   6.062  0.6400  0.1043  0.0532
   13SAPS  H11A 1607   0.636   4.016   5.978 -3.2646  0.9195  0.3763
   13SAPS  H11B 1608   0.697   3.856   6.066  0.6173  0.0917  0.1725
   13SAPS     P 1609   0.772   4.029   6.260 -0.1239  0.8116 -0.1087
   13SAPS   O13 1610   0.880   3.966   6.185 -0.1951  0.6003 -0.0749
   13SAPS   O14 1611   0.783   4.173   6.282  0.1109  0.2813 -0.3917
   13SAPS   O12 1612   0.636   4.018   6.183 -0.4260 -0.4355 -0.1673
   13SAPS   O11 1613   0.761   3.964   6.401 -0.1818 -0.1348 -0.0605
   13SAPS    C1 1614   0.796   3.826   6.433  0.3869 -0.3254  0.0802
   13SAPS    HA 1615   0.818   3.768   6.341  0.1267  1.7926 -1.3594
   13SAPS    HB 1616   0.893   3.813   6.486  0.6510  4.7710  1.0293
   13SAPS    C2 1617   0.683   3.767   6.525  0.9226 -0.2737 -0.5343
   13SAPS    HS 1618   0.586   3.765   6.471  0.9899  1.1243 -0.7066
   13SAPS   O21 1619   0.686   3.845   6.646 -0.3764  0.0053  0.2333
   13SAPS   C21 1620   0.580   3.828   6.723 -0.7945 -0.5580 -0.4368
   13SAPS   O22 1621   0.478   3.768   6.689 -0.1252  0.3191 -0.6207
   13SAPS   C22 1622   0.582   3.918   6.842  0.4378  0.4136  0.2557
   13SAPS   H2R 1623   0.681   3.964   6.861  1.2100 -0.9388 -0.3977
   13SAPS   H2S 1624   0.516   4.003   6.814  2.1137  1.0821 -1.8235
   13SAPS    C3 1625   0.710   3.620   6.554 -0.1544  0.0471  0.1589
   13SAPS    HX 1626   0.667   3.567   6.466  0.1224 -0.2990  0.2357
   13SAPS    HY 1627   0.649   3.599   6.645 -1.7940 -2.9409 -1.5632
   13SAPS   O31 1628   0.852   3.591   6.579  0.2185  0.2609  0.0526
   13SAPS   C31 1629   0.881   3.469   6.621 -0.3291  0.1546  0.3445
   13SAPS   O32 1630   0.794   3.384   6.618  0.5561 -0.3062 -0.5686
   13SAPS   C32 1631   1.026   3.455   6.662  0.1344 -0.0477  0.5293
   13SAPS   H2X 1632   1.071   3.557   6.658  1.0798 -0.5305 -1.9426
   13SAPS   H2Y 1633   1.086   3.397   6.589 -0.5770  0.3212 -0.3492
   13SAPS   C23 1634   0.532   3.871   6.975 -0.5022 -0.5032  0.3658
   13SAPS   H3R 1635   0.434   3.820   6.959  0.1623 -1.9155  0.7079
   13SAPS   H3S 1636   0.498   3.956   7.038  0.2199  0.6121 -0.7219
   13SAPS   C24 1637   0.630   3.786   7.059 -0.1674  0.3112 -0.3764
   13SAPS   H4R 1638   0.675   3.713   6.989 -0.7351  0.7313 -1.1881
   13SAPS   H4S 1639   0.570   3.736   7.138 -1.2814  1.6915 -0.3233
   13SAPS   C25 1640   0.746   3.869   7.122  0.3665  0.2777  0.5353
   13SAPS   H5R 1641   0.832   3.895   7.059 -1.2382 -0.5375 -2.0807
   13SAPS   C26 1642   0.750   3.907   7.251 -0.1265 -0.0348  0.6720
   13SAPS   H6R 1643   0.844   3.953   7.283 -1.1841  2.0336  0.9373
   13SAPS   C27 1644   0.640   3.889   7.354 -0.9847 -0.0539  0.2152
   13SAPS   H7R 1645   0.676   3.821   7.434  0.5043  1.2707  0.7087
   13SAPS   H7S 1646   0.549   3.843   7.309 -0.6258  2.9332 -3.8748
   13SAPS   C28 1647   0.593   4.010   7.431  0.4304 -0.0140  0.3322
   13SAPS   H8R 1648   0.615   4.107   7.382  3.4806  0.2340  2.0547
   13SAPS   C29 1649   0.555   4.014   7.561 -0.3506 -0.5203  0.2391
   13SAPS   H9R 1650   0.531   4.115   7.599  0.8967 -0.0507 -0.2039
   13SAPS  C210 1651   0.542   3.895   7.652  0.5814  0.3872 -0.1813
   13SAPS  H10R 1652   0.647   3.869   7.679  0.3754 -0.6487 -0.3541
   13SAPS  H10S 1653   0.516   3.798   7.603 -0.5717  0.9339 -0.6732
   13SAPS  C211 1654   0.454   3.912   7.779 -0.5995 -0.7387 -0.4538
   13SAPS  H11R 1655   0.476   4.012   7.820 -0.6771 -0.7499 -0.3871
   13SAPS  C212 1656   0.372   3.825   7.836  0.2346 -0.3539  0.0150
   13SAPS  H12R 1657   0.329   3.848   7.935  1.9853  1.1164  0.4725
   13SAPS  C213 1658   0.357   3.685   7.782 -0.1727 -0.0244 -0.1289
   13SAPS  H13R 1659   0.439   3.650   7.715  0.0734 -0.8262  0.5728
   13SAPS  H13S 1660   0.262   3.683   7.725  0.4496 -3.2227 -1.2185
   13SAPS  C214 1661   0.355   3.584   7.893  0.4809  1.1466  0.0402
   13SAPS  H14R 1662   0.277   3.508   7.881  1.4506  0.0210  0.7052
   13SAPS  C215 1663   0.451   3.557   7.993 -1.0906  0.0861 -0.1952
   13SAPS  H15R 1664   0.444   3.475   8.066  0.3689 -0.1964 -0.3554
   13SAPS  C216 1665   0.580   3.638   8.017 -0.1055 -0.2070  0.1434
   13SAPS  H16R 1666   0.615   3.698   7.930  1.1283 -1.2886 -0.1185
   13SAPS  H16S 1667   0.664   3.570   8.045  0.1084  0.6201  1.5503
   13SAPS  C217 1668   0.567   3.744   8.129  0.7490 -0.4077 -0.0539
   13SAPS  H17R 1669   0.481   3.811   8.106  0.1036 -1.4279 -0.6412
   13SAPS  H17S 1670   0.657   3.808   8.113 -0.7075  2.1599  1.7208
   13SAPS  C218 1671   0.573   3.682   8.273  0.0642 -0.0671 -0.0589
   13SAPS  H18R 1672   0.671   3.630   8.270  0.5727  0.8563  0.1498
   13SAPS  H18S 1673   0.486   3.615   8.285 -0.4643  0.5782 -0.2329
   13SAPS  C219 1674   0.557   3.781   8.394  0.5159 -0.3949 -0.0002
   13SAPS  H19R 1675   0.582   3.717   8.481  0.6000 -3.7139 -2.3990
   13SAPS  H19S 1676   0.450   3.809   8.404  0.5080 -0.8859  1.4340
   13SAPS  C220 1677   0.638   3.914   8.389  0.5877  0.4479 -0.2965
   13SAPS  H20R 1678   0.597   3.977   8.307 -0.2630  1.6073  0.9949
   13SAPS  H20S 1679   0.746   3.890   8.375 -0.2723 -5.0253  1.3455
   13SAPS  H20T 1680   0.628   3.966   8.486 -1.3226  0.4982 -0.4945
   13SAPS   C33 1681   1.039   3.398   6.807  0.2260 -0.1469 -0.2852
   13SAPS   H3X 1682   1.148   3.376   6.820 -0.0035  0.2653  2.6282
   13SAPS   H3Y 1683   1.001   3.293   6.809  1.3280 -0.7004 -3.5851
   13SAPS   C34 1684   1.001   3.495   6.913  0.0562  0.1021  0.1420
   13SAPS   H4X 1685   0.895   3.528   6.905  0.3046  0.4823 -2.0611
   13SAPS   H4Y 1686   1.063   3.587   6.922  0.9240 -0.4536 -0.0284
   13SAPS   C35 1687   1.021   3.429   7.050 -0.1517  0.3409  0.0127
   13SAPS   H5X 1688   1.123   3.385   7.058  0.3357  1.2402 -1.1240
   13SAPS   H5Y 1689   0.951   3.343   7.054 -0.8746  0.9223 -0.1186
   13SAPS   C36 1690   1.000   3.527   7.167  0.2475  0.2247  0.4539
   13SAPS   H6X 1691   0.897   3.562   7.148  0.1019 -0.7867 -0.6982
   13SAPS   H6Y 1692   1.060   3.620   7.156 -3.1520  2.7152  2.2443
   13SAPS   C37 1693   1.012   3.458   7.309 -0.1804 -0.0840 -0.1147
   13SAPS   H7X 1694   1.110   3.406   7.300  0.5743  1.5270 -1.4746
   13SAPS   H7Y 1695   0.930   3.384   7.321  0.4468 -0.6527  0.6917
   13SAPS   C38 1696   1.005   3.564   7.418 -0.1920 -0.4860  0.2308
   13SAPS   H8X 1697   0.911   3.624   7.413 -0.1575 -0.2148  2.4039
   13SAPS   H8Y 1698   1.088   3.637   7.404  0.3664 -0.7254  2.2374
   13SAPS   C39 1699   1.018   3.499   7.559 -0.2727 -0.3523 -0.0092
   13SAPS   H9X 1700   1.118   3.449   7.562 -0.1047 -0.0321 -0.3346
   13SAPS   H9Y 1701   0.937   3.423   7.557 -0.9638  0.3273  1.1823
   13SAPS  C310 1702   0.993   3.595   7.680 -0.3021 -0.1040 -0.2851
   13SAPS  H10X 1703   0.893   3.641   7.664 -1.5327 -2.4154  0.5754
   13SAPS  H10Y 1704   1.064   3.680   7.665 -2.0187  0.8903 -3.0483
   13SAPS  C311 1705   1.014   3.525   7.813  0.7557 -0.0949  0.3564
   13SAPS  H11X 1706   1.099   3.454   7.812  1.1552  0.4052 -2.2171
   13SAPS  H11Y 1707   0.929   3.456   7.833  1.8546 -2.4158 -2.6565
   13SAPS  C312 1708   1.028   3.626   7.932  0.5018  0.1162 -0.1550
   13SAPS  H12X 1709   0.943   3.698   7.934  1.6262  1.5021 -1.3279
   13SAPS  H12Y 1710   1.117   3.680   7.893 -0.0905  0.8515 -0.4901
   13SAPS  C313 1711   1.055   3.549   8.066  0.5878 -0.0022 -0.7667
   13SAPS  H13X 1712   1.152   3.496   8.066  0.4295 -0.3002 -0.0972
   13SAPS  H13Y 1713   0.983   3.466   8.085  2.6206 -0.8989  3.4517
   13SAPS  C314 1714   1.040   3.640   8.187  0.1639 -0.6511  0.1925
   13SAPS  H14X 1715   0.946   3.692   8.161 -1.0294 -2.5974  0.5422
   13SAPS  H14Y 1716   1.126   3.710   8.199  0.1148 -0.6575  0.6057
   13SAPS  C315 1717   1.034   3.565   8.322 -0.5137 -0.1358  0.1091
   13SAPS  H15X 1718   1.115   3.489   8.320  0.5618  1.0123 -0.4724
   13SAPS  H15Y 1719   0.935   3.516   8.330 -0.9623  0.9770  1.5410
   13SAPS  C316 1720   1.061   3.645   8.451  1.2155  0.0119  0.6663
   13SAPS  H16X 1721   0.978   3.718   8.463  3.2774  2.1472  2.5284
   13SAPS  H16Y 1722   1.162   3.690   8.447  1.0123  0.2461 -2.9991
   13SAPS  C317 1723   1.037   3.553   8.580  0.1458 -0.0439  0.0693
   13SAPS  H17X 1724   1.064   3.612   8.670 -1.1767  0.8423 -0.0922
   13SAPS  H17Y 1725   1.108   3.468   8.579  2.1591  1.5794  0.2739
   13SAPS  C318 1726   0.901   3.482   8.606  0.5185  0.1451  1.1375
   13SAPS  H18X 1727   0.869   3.424   8.517 -1.8032  0.6903  1.5824
   13SAPS  H18Y 1728   0.823   3.562   8.604  1.3824  0.9982  1.0746
   13SAPS  H18Z 1729   0.898   3.434   8.706  1.3414  0.6095  1.3864
   14SAPS     N 1730   0.810   6.010   5.793 -0.0065  0.2921  0.6938
   14SAPS   HN1 1731   0.792   5.935   5.862 -0.0770 -0.0477  0.3092
   14SAPS   HN2 1732   0.769   6.094   5.840  0.3817  0.9499 -0.1297
   14SAPS   HN3 1733   0.773   5.981   5.700  0.4760  2.5629 -0.2425
   14SAPS   C12 1734   0.960   6.022   5.790 -0.2175 -0.0203  0.1477
   14SAPS  H12A 1735   1.008   5.956   5.720  0.1352 -1.1906  1.4584
   14SAPS   C13 1736   0.996   6.159   5.725 -0.1940 -0.6051 -0.3012
   14SAPS  O13A 1737   0.908   6.240   5.692 -0.0784  0.1515 -0.3492
   14SAPS  O13B 1738   1.116   6.176   5.698 -0.1176 -0.2629  0.0958
   14SAPS   C11 1739   1.015   6.008   5.939  0.3021 -0.1117 -0.4675
   14SAPS  H11A 1740   0.993   6.098   5.999 -2.5562 -0.0780 -1.5137
   14SAPS  H11B 1741   1.126   6.014   5.948  0.3913 -2.1152  0.0717
   14SAPS     P 1742   0.990   5.754   5.944 -0.1585  0.3736 -0.1754
   14SAPS   O13 1743   0.859   5.730   5.875 -0.7656  0.2490  0.1797
   14SAPS   O14 1744   1.115   5.739   5.858  0.3961  0.2934  0.5107
   14SAPS   O12 1745   0.976   5.893   6.012 -0.1843 -0.5473 -0.0031
   14SAPS   O11 1746   0.995   5.643   6.056 -0.5722  0.0365  0.4313
   14SAPS    C1 1747   1.081   5.657   6.167  0.4017  0.4403 -0.8984
   14SAPS    HA 1748   1.085   5.557   6.217 -3.0621  0.8452  0.3182
   14SAPS    HB 1749   1.186   5.675   6.135  0.9020 -0.7917 -0.0101
   14SAPS    C2 1750   1.040   5.763   6.270  1.0058  0.5899 -0.8305
   14SAPS    HS 1751   1.052   5.864   6.225 -0.0646  0.7060 -0.8752
   14SAPS   O21 1752   1.123   5.750   6.386 -0.6229  0.2591  0.6037
   14SAPS   C21 1753   1.230   5.816   6.373  0.2102 -0.4343  0.2713
   14SAPS   O22 1754   1.281   5.872   6.281 -0.4939 -0.0782 -0.2745
   14SAPS   C22 1755   1.305   5.812   6.518 -0.4977 -0.7815 -0.6660
   14SAPS   H2R 1756   1.268   5.721   6.569  0.5592  0.7295  3.0057
   14SAPS   H2S 1757   1.409   5.789   6.484 -0.5024  0.0318 -1.2600
   14SAPS    C3 1758   0.894   5.747   6.314  0.1755 -0.7565  0.2251
   14SAPS    HX 1759   0.875   5.643   6.348 -0.3373  0.2914  3.2563
   14SAPS    HY 1760   0.822   5.773   6.234 -0.1569  1.7275  1.2931
   14SAPS   O31 1761   0.867   5.821   6.433  0.0307 -0.1158  0.1426
   14SAPS   C31 1762   0.735   5.804   6.467  0.1186 -0.0641  0.1985
   14SAPS   O32 1763   0.651   5.739   6.406 -0.0990 -0.0360  0.3465
   14SAPS   C32 1764   0.707   5.900   6.584  0.6037 -0.2332  0.1359
   14SAPS   H2X 1765   0.699   6.004   6.547  0.5919  1.0191  3.5109
   14SAPS   H2Y 1766   0.799   5.908   6.646 -0.1274 -1.2287  1.3789
   14SAPS   C23 1767   1.298   5.957   6.585 -0.4512  0.5578  0.4799
   14SAPS   H3R 1768   1.318   6.031   6.505  1.3341 -2.4157 -1.9535
   14SAPS   H3S 1769   1.372   5.964   6.668 -1.7573  0.1769  1.7106
   14SAPS   C24 1770   1.161   5.979   6.658  0.5523 -0.0400 -0.0498
   14SAPS   H4R 1771   1.162   5.910   6.746 -0.6483  0.2099  0.1702
   14SAPS   H4S 1772   1.082   5.946   6.587  2.1589  0.3657 -2.0526
   14SAPS   C25 1773   1.141   6.123   6.704  1.0477 -0.6113 -0.3564
   14SAPS   H5R 1774   1.184   6.200   6.638  2.5627 -0.4377  0.8058
   14SAPS   C26 1775   1.089   6.170   6.818  0.2868  0.0489  0.0237
   14SAPS   H6R 1776   1.086   6.277   6.844 -0.2483  0.2811 -0.9750
   14SAPS   C27 1777   1.053   6.076   6.932 -0.5313  0.8275  0.1095
   14SAPS   H7R 1778   1.113   6.102   7.022 -2.3952  1.9412  1.0645
   14SAPS   H7S 1779   1.070   5.969   6.909  0.9635  0.9276  0.6782
   14SAPS   C28 1780   0.903   6.086   6.944 -0.8940 -0.0681  0.5144
   14SAPS   H8R 1781   0.840   6.084   6.853 -0.9250  1.4802  0.4944
   14SAPS   C29 1782   0.834   6.092   7.064 -0.3292  0.9181 -0.0605
   14SAPS   H9R 1783   0.725   6.104   7.058 -0.1793  2.4003  0.0178
   14SAPS  C210 1784   0.883   6.097   7.205  0.0815  0.9042 -0.2734
   14SAPS  H10R 1785   0.989   6.128   7.211  0.7640 -1.2767 -0.6509
   14SAPS  H10S 1786   0.879   5.996   7.250 -2.2039  0.2280 -1.9312
   14SAPS  C211 1787   0.813   6.198   7.300 -0.3714 -1.1304  0.0844
   14SAPS  H11R 1788   0.746   6.269   7.249  2.0711  3.4779  2.9244
   14SAPS  C212 1789   0.843   6.243   7.425  0.2989 -0.0134  0.6686
   14SAPS  H12R 1790   0.780   6.321   7.469 -2.2459 -2.7458  2.0554
   14SAPS  C213 1791   0.946   6.192   7.521 -0.3626  0.3608 -0.5340
   14SAPS  H13R 1792   1.029   6.139   7.471 -0.9335 -1.2122  0.1368
   14SAPS  H13S 1793   0.888   6.122   7.585  0.5830  1.5274  1.6394
   14SAPS  C214 1794   0.998   6.302   7.608 -0.3917 -0.3174 -0.3563
   14SAPS  H14R 1795   1.078   6.360   7.560 -1.6232 -1.5500 -4.0596
   14SAPS  C215 1796   0.959   6.328   7.733  0.0929 -0.2269  0.7855
   14SAPS  H15R 1797   1.013   6.408   7.786  0.6741 -0.6960  0.9098
   14SAPS  C216 1798   0.861   6.263   7.818  0.2745 -0.4222 -0.2713
   14SAPS  H16R 1799   0.817   6.166   7.788 -1.0170 -0.1494  0.6615
   14SAPS  H16S 1800   0.778   6.335   7.838  0.8601 -0.4752  2.5495
   14SAPS  C217 1801   0.928   6.242   7.956  0.5541 -0.2291  0.1539
   14SAPS  H17R 1802   0.855   6.200   8.027  2.0219  0.5767  2.1826
   14SAPS  H17S 1803   0.968   6.337   7.998 -0.2159 -0.5019  1.5095
   14SAPS  C218 1804   1.039   6.131   7.962  0.3464 -0.2038  0.1061
   14SAPS  H18R 1805   1.099   6.135   8.055  2.7368  1.9971 -1.4506
   14SAPS  H18S 1806   1.113   6.147   7.881 -0.9642 -1.8860 -1.4697
   14SAPS  C219 1807   0.983   5.984   7.958  0.3739 -0.4114  0.4961
   14SAPS  H19R 1808   1.071   5.917   7.949  1.9519  1.4166  1.7266
   14SAPS  H19S 1809   0.915   5.973   7.871  1.5516 -0.5681 -0.4056
   14SAPS  C220 1810   0.907   5.937   8.086  0.2001 -0.6966  0.2639
   14SAPS  H20R 1811   0.913   5.826   8.083 -0.0155 -0.6617 -2.1536
   14SAPS  H20S 1812   0.805   5.981   8.085  0.5849  0.1997 -0.7499
   14SAPS  H20T 1813   0.975   5.969   8.168  0.1222 -1.9161  0.8214
   14SAPS   C33 1814   0.582   5.861   6.665  0.3733  0.3762 -0.5757
   14SAPS   H3X 1815   0.612   5.760   6.701 -1.5887  0.2766  0.8546
   14SAPS   H3Y 1816   0.495   5.850   6.596  0.2345  2.4976 -0.7483
   14SAPS   C34 1817   0.556   5.952   6.780  1.1648  0.7779  0.3587
   14SAPS   H4X 1818   0.539   6.046   6.724 -3.0610 -0.8298 -1.2767
   14SAPS   H4Y 1819   0.645   5.978   6.842  0.5109 -0.6818  1.9624
   14SAPS   C35 1820   0.424   5.927   6.858  0.1128  0.6144 -1.0062
   14SAPS   H5X 1821   0.342   5.927   6.783 -0.9238 -0.0215  0.0978
   14SAPS   H5Y 1822   0.396   6.019   6.914  5.0169  1.8914 -0.4618
   14SAPS   C36 1823   0.406   5.794   6.939  0.4141 -1.0348  0.8564
   14SAPS   H6X 1824   0.436   5.703   6.882  0.1515  0.7158 -2.1339
   14SAPS   H6Y 1825   0.298   5.785   6.964  0.5031 -0.4368  1.4679
   14SAPS   C37 1826   0.476   5.785   7.074 -0.1653 -0.1434 -0.6872
   14SAPS   H7X 1827   0.584   5.802   7.055 -0.3486  1.2376 -0.5703
   14SAPS   H7Y 1828   0.472   5.684   7.119 -0.6166  0.1566 -0.0497
   14SAPS   C38 1829   0.414   5.892   7.173  0.3736  0.2123  0.3779
   14SAPS   H8X 1830   0.305   5.875   7.181  0.2253  0.8139 -0.2715
   14SAPS   H8Y 1831   0.429   5.992   7.127  0.3240 -0.0058 -0.1190
   14SAPS   C39 1832   0.477   5.883   7.310  0.5358  0.3750 -0.1412
   14SAPS   H9X 1833   0.585   5.868   7.289 -0.0293 -1.8408 -1.6149
   14SAPS   H9Y 1834   0.444   5.793   7.367 -1.1415  0.2457 -1.2678
   14SAPS  C310 1835   0.452   6.012   7.385 -0.8200 -0.0682  0.3107
   14SAPS  H10X 1836   0.346   6.044   7.398 -0.5701  0.9783 -0.1490
   14SAPS  H10Y 1837   0.501   6.090   7.322  1.0813 -1.7061 -0.2793
   14SAPS  C311 1838   0.529   6.038   7.510  0.7659 -0.2515  0.2725
   14SAPS  H11X 1839   0.523   6.146   7.536  2.3541  0.4375 -2.0596
   14SAPS  H11Y 1840   0.635   6.011   7.494  0.8962  1.0756 -1.1774
   14SAPS  C312 1841   0.479   5.956   7.633 -0.1668  0.4699  0.1741
   14SAPS  H12X 1842   0.488   5.850   7.603  1.2041  0.4247  0.7051
   14SAPS  H12Y 1843   0.372   5.977   7.658 -0.7200 -2.0136 -0.0524
   14SAPS  C313 1844   0.559   5.985   7.755 -0.2850 -0.3754  0.7687
   14SAPS  H13X 1845   0.563   6.096   7.763 -1.0884 -0.0894 -2.2243
   14SAPS  H13Y 1846   0.662   5.946   7.744 -1.2068 -2.2467 -1.5768
   14SAPS  C314 1847   0.509   5.939   7.886 -0.4544  0.5104 -0.0317
   14SAPS  H14X 1848   0.399   5.958   7.881 -0.0263  3.8212  2.0133
   14SAPS  H14Y 1849   0.545   6.011   7.962 -0.4856  0.2247  0.2509
   14SAPS  C315 1850   0.532   5.793   7.912  0.0163 -0.0732 -0.2429
   14SAPS  H15X 1851   0.639   5.771   7.893 -0.2458 -0.0578 -1.8770
   14SAPS  H15Y 1852   0.481   5.740   7.828 -2.0995  0.1176  0.9032
   14SAPS  C316 1853   0.456   5.749   8.042  0.5562  0.3812  0.1239
   14SAPS  H16X 1854   0.426   5.643   8.029 -1.2752  0.6490  1.8894
   14SAPS  H16Y 1855   0.361   5.806   8.052  0.5671  0.5299 -0.5811
   14SAPS  C317 1856   0.553   5.761   8.163  0.0932  0.2766  0.4072
   14SAPS  H17X 1857   0.557   5.869   8.187  1.5729  0.6662 -1.5007
   14SAPS  H17Y 1858   0.658   5.728   8.144 -0.1605 -0.5951  0.4712
   14SAPS  C318 1859   0.506   5.694   8.291 -0.4988  0.2834 -0.3246
   14SAPS  H18X 1860   0.553   5.729   8.385 -1.7642 -1.4290  0.9797
   14SAPS  H18Y 1861   0.523   5.584   8.287 -0.2428  0.3068  0.0315
   14SAPS  H18Z 1862   0.396   5.710   8.300 -0.2049  1.9772  0.4753
   15SAPS     N 1863   1.250   5.304   5.636  0.0062  0.1471  0.5065
   15SAPS   HN1 1864   1.302   5.346   5.716 -1.2601 -1.9136  2.4518
   15SAPS   HN2 1865   1.299   5.320   5.546 -1.0287  0.4957 -0.0097
   15SAPS   HN3 1866   1.160   5.357   5.630 -0.0317 -0.1685 -2.0585
   15SAPS   C12 1867   1.228   5.156   5.666 -0.5252  0.3679  0.7246
   15SAPS  H12A 1868   1.241   5.096   5.577  0.5221  0.2673  0.9436
   15SAPS   C13 1869   1.331   5.100   5.765  0.0350  0.5129  0.4441
   15SAPS  O13A 1870   1.425   5.166   5.812  0.5001 -0.2808 -0.1530
   15SAPS  O13B 1871   1.321   4.980   5.801  0.0568  0.3639  0.0434
   15SAPS   C11 1872   1.083   5.124   5.702 -0.9291 -0.1076  0.3979
   15SAPS  H11A 1873   1.078   5.015   5.722  1.2428 -0.1800  0.6237
   15SAPS  H11B 1874   1.024   5.152   5.612  1.6108 -0.7711 -1.5095
   15SAPS     P 1875   0.877   5.188   5.852 -0.3561  0.6311 -0.0763
   15SAPS   O13 1876   0.808   5.308   5.801 -0.4249 -0.5331  0.4835
   15SAPS   O14 1877   0.820   5.052   5.812 -0.8941 -0.0280  0.2690
   15SAPS   O12 1878   1.025   5.203   5.805  0.1962  0.4425  0.1634
   15SAPS   O11 1879   0.887   5.197   6.001  0.3454 -0.1318  0.1564
   15SAPS    C1 1880   0.974   5.124   6.089 -0.2331 -0.2046 -0.1767
   15SAPS    HA 1881   0.920   5.058   6.160  0.0523  0.4703  0.6736
   15SAPS    HB 1882   1.031   5.050   6.029 -3.3654 -3.6262  0.8620
   15SAPS    C2 1883   1.078   5.211   6.162  0.5526  0.6953 -0.3616
   15SAPS    HS 1884   1.142   5.142   6.221  0.8790  1.4571  0.1968
   15SAPS   O21 1885   1.019   5.307   6.253 -0.4081  0.1004  0.5118
   15SAPS   C21 1886   0.956   5.247   6.351  0.1810  0.1167 -0.8870
   15SAPS   O22 1887   0.958   5.128   6.377 -0.8860 -0.1481  0.4487
   15SAPS   C22 1888   0.894   5.351   6.439 -0.5822 -0.0660 -0.2302
   15SAPS   H2R 1889   0.964   5.438   6.440 -0.9120  0.1815  1.6505
   15SAPS   H2S 1890   0.799   5.388   6.395 -0.5466  1.1714  0.7101
   15SAPS    C3 1891   1.171   5.284   6.062 -0.2177 -0.0110  0.0106
   15SAPS    HX 1892   1.112   5.338   5.986  0.9225 -0.8859 -1.5148
   15SAPS    HY 1893   1.227   5.202   6.012 -0.8100 -1.3233  1.4594
   15SAPS   O31 1894   1.263   5.376   6.131  0.0292 -0.1816 -0.3354
   15SAPS   C31 1895   1.362   5.311   6.196 -0.6759  0.7125  0.1646
   15SAPS   O32 1896   1.381   5.193   6.189 -0.5481 -0.0195 -0.2463
   15SAPS   C32 1897   1.451   5.397   6.279  0.2376  0.3284 -0.3139
   15SAPS   H2X 1898   1.486   5.478   6.212 -0.4560  0.4768 -0.4932
   15SAPS   H2Y 1899   1.539   5.337   6.311  0.9046  0.2226 -2.2502
   15SAPS   C23 1900   0.853   5.313   6.585  0.0215  1.1680  0.0052
   15SAPS   H3R 1901   0.931   5.268   6.650 -0.7586  2.8502  2.1697
   15SAPS   H3S 1902   0.770   5.240   6.571  0.2888  0.5237  1.6551
   15SAPS   C24 1903   0.787   5.429   6.663  0.1988  0.2360 -0.0247
   15SAPS   H4R 1904   0.738   5.387   6.753 -3.1151  2.3085 -0.7880
   15SAPS   H4S 1905   0.707   5.476   6.602 -1.2407 -1.6776  0.3764
   15SAPS   C25 1906   0.904   5.525   6.700 -0.1595 -1.1298 -0.1036
   15SAPS   H5R 1907   0.998   5.522   6.642 -0.0536  1.1009 -0.0904
   15SAPS   C26 1908   0.918   5.607   6.807  0.5368  0.4568  0.1234
   15SAPS   H6R 1909   1.010   5.666   6.811  2.7431 -2.9227  1.1288
   15SAPS   C27 1910   0.821   5.646   6.916  0.0217  0.2092 -0.4685
   15SAPS   H7R 1911   0.748   5.563   6.922 -0.4695  0.7332  0.9338
   15SAPS   H7S 1912   0.770   5.739   6.881  2.0841  0.6855 -2.3573
   15SAPS   C28 1913   0.870   5.672   7.060  0.4048 -0.0041  0.4624
   15SAPS   H8R 1914   0.851   5.774   7.097 -0.4902  1.0664 -2.7787
   15SAPS   C29 1915   0.937   5.583   7.143 -0.3755  0.5374 -0.2880
   15SAPS   H9R 1916   0.978   5.627   7.236 -0.1044  1.5200 -0.8645
   15SAPS  C210 1917   0.989   5.441   7.123 -0.7609  0.1075  0.7054
   15SAPS  H10R 1918   0.952   5.398   7.028 -0.2141  2.3978 -0.5686
   15SAPS  H10S 1919   0.967   5.365   7.202  0.0045 -3.1009 -2.0496
   15SAPS  C211 1920   1.137   5.452   7.102  0.6932  0.0589 -0.2408
   15SAPS  H11R 1921   1.169   5.486   7.002  2.7590 -0.8882  0.0570
   15SAPS  C212 1922   1.234   5.452   7.190  0.4452 -0.5221  0.3502
   15SAPS  H12R 1923   1.339   5.465   7.158 -0.1429  3.9410  0.0284
   15SAPS  C213 1924   1.217   5.420   7.336 -0.1888  0.3688 -0.0304
   15SAPS  H13R 1925   1.256   5.316   7.340  2.3256  1.3166  1.5067
   15SAPS  H13S 1926   1.109   5.412   7.362 -0.7138 -0.9263 -2.4514
   15SAPS  C214 1927   1.291   5.523   7.427 -0.5644  0.3155 -0.1283
   15SAPS  H14R 1928   1.306   5.614   7.367  1.6303  0.0364 -0.0441
   15SAPS  C215 1929   1.330   5.517   7.554 -0.0907 -0.3986 -0.0762
   15SAPS  H15R 1930   1.360   5.605   7.612 -1.0271 -1.0886  1.4979
   15SAPS  C216 1931   1.309   5.399   7.643 -0.7638  0.3325  0.5228
   15SAPS  H16R 1932   1.400   5.335   7.639 -2.2651 -1.8493  0.4661
   15SAPS  H16S 1933   1.235   5.327   7.603  0.6545 -1.2182  0.6369
   15SAPS  C217 1934   1.279   5.443   7.792  0.0598 -0.9688  0.2264
   15SAPS  H17R 1935   1.272   5.350   7.852  3.9102 -0.9797  0.8151
   15SAPS  H17S 1936   1.182   5.495   7.801  0.2055 -0.4398 -1.1785
   15SAPS  C218 1937   1.391   5.529   7.847 -0.6689  0.3854  0.8170
   15SAPS  H18R 1938   1.396   5.634   7.812  2.0872  0.2085  0.5858
   15SAPS  H18S 1939   1.489   5.486   7.814 -0.3654  1.1117  0.7625
   15SAPS  C219 1940   1.386   5.511   7.999 -0.3857 -0.2784 -0.2482
   15SAPS  H19R 1941   1.481   5.539   8.051 -0.2332 -1.9204  0.4057
   15SAPS  H19S 1942   1.368   5.403   8.021  0.9629 -0.6309 -0.8020
   15SAPS  C220 1943   1.271   5.583   8.058  0.6543 -0.2232  0.0354
   15SAPS  H20R 1944   1.267   5.689   8.026 -0.6378  0.4278  2.2964
   15SAPS  H20S 1945   1.273   5.574   8.168  0.1844  1.8355  0.2237
   15SAPS  H20T 1946   1.172   5.539   8.034  0.9928 -0.3700 -1.1649
   15SAPS   C33 1947   1.374   5.456   6.401 -0.0284 -0.0084 -0.1945
   15SAPS   H3X 1948   1.279   5.507   6.373 -0.8542 -0.4514  1.7451
   15SAPS   H3Y 1949   1.434   5.526   6.462  2.0760 -0.0094 -2.1606
   15SAPS   C34 1950   1.324   5.340   6.496 -0.2897 -0.2108 -0.1157
   15SAPS   H4X 1951   1.377   5.250   6.457 -0.4565 -0.6817  0.7262
   15SAPS   H4Y 1952   1.217   5.315   6.474 -0.3133  0.0713 -0.3261
   15SAPS   C35 1953   1.362   5.377   6.637 -0.3251 -0.2745  0.3834
   15SAPS   H5X 1954   1.337   5.481   6.666 -0.7081 -0.8090  2.0352
   15SAPS   H5Y 1955   1.472   5.369   6.649 -0.5475 -1.4147  1.7929
   15SAPS   C36 1956   1.308   5.289   6.748 -0.1530  0.0335 -0.0277
   15SAPS   H6X 1957   1.299   5.185   6.709  1.0389 -0.9937  2.3511
   15SAPS   H6Y 1958   1.203   5.314   6.771  0.0226  0.6298  0.1163
   15SAPS   C37 1959   1.397   5.291   6.873  0.2406 -0.2066  0.6158
   15SAPS   H7X 1960   1.392   5.387   6.928  3.2665 -0.3246  1.1428
   15SAPS   H7Y 1961   1.504   5.282   6.844 -0.2200  2.7262 -2.2839
   15SAPS   C38 1962   1.380   5.172   6.961 -0.3925 -0.2633 -0.2669
   15SAPS   H8X 1963   1.389   5.075   6.908 -1.3033 -0.7360  0.4265
   15SAPS   H8Y 1964   1.277   5.178   7.004 -0.6271  1.8285 -1.0619
   15SAPS   C39 1965   1.468   5.178   7.087 -0.0935  0.1968 -0.0844
   15SAPS   H9X 1966   1.442   5.267   7.147 -2.7348 -1.5544  1.5238
   15SAPS   H9Y 1967   1.574   5.176   7.055  0.6730  1.8064  2.2703
   15SAPS  C310 1968   1.433   5.063   7.178  0.3854  0.5496 -0.0962
   15SAPS  H10X 1969   1.448   4.965   7.128  1.5948  0.1950  0.9500
   15SAPS  H10Y 1970   1.326   5.078   7.203  0.1004 -1.2680 -0.2040
   15SAPS  C311 1971   1.522   5.061   7.300  0.3645 -0.2797 -0.4383
   15SAPS  H11X 1972   1.499   5.158   7.348 -0.0146  0.0830 -1.3431
   15SAPS  H11Y 1973   1.629   5.075   7.273  0.8213  0.1850  1.5085
   15SAPS  C312 1974   1.499   4.938   7.394  0.3011 -0.2592  0.8469
   15SAPS  H12X 1975   1.548   4.849   7.350  1.7088 -0.3406  2.5162
   15SAPS  H12Y 1976   1.388   4.926   7.400  0.4650 -1.8150  0.8690
   15SAPS  C313 1977   1.559   4.948   7.533  0.0218  0.2977  0.4541
   15SAPS  H13X 1978   1.670   4.947   7.529  0.0662 -0.0317  1.6880
   15SAPS  H13Y 1979   1.523   4.856   7.582 -2.3966  1.3882  0.7930
   15SAPS  C314 1980   1.515   5.067   7.618 -0.1715  0.5234  0.7552
   15SAPS  H14X 1981   1.415   5.111   7.600  0.1360  1.2417  0.7651
   15SAPS  H14Y 1982   1.595   5.141   7.597  2.6829 -2.1693  1.6869
   15SAPS  C315 1983   1.512   5.035   7.765 -0.3114  0.0115 -0.1805
   15SAPS  H15X 1984   1.578   4.950   7.793 -2.5810 -0.5849  3.6265
   15SAPS  H15Y 1985   1.417   5.003   7.812  0.0632 -2.3557 -0.9831
   15SAPS  C316 1986   1.561   5.153   7.851  0.1962 -0.6905  0.3573
   15SAPS  H16X 1987   1.499   5.241   7.823  1.9880  0.8395  1.1175
   15SAPS  H16Y 1988   1.669   5.172   7.835 -0.4382  2.3362 -0.6739
   15SAPS  C317 1989   1.560   5.150   7.996  0.1353  0.3068  0.1445
   15SAPS  H17X 1990   1.454   5.134   8.025 -0.3711  2.8837 -0.1907
   15SAPS  H17Y 1991   1.570   5.253   8.036  1.5386  0.7956 -1.3952
   15SAPS  C318 1992   1.678   5.078   8.060 -0.0368  0.2698 -0.0623
   15SAPS  H18X 1993   1.690   5.111   8.165  1.6973  0.6197 -0.3515
   15SAPS  H18Y 1994   1.770   5.118   8.012  0.4576  0.7544  1.2656
   15SAPS  H18Z 1995   1.679   4.967   8.052 -0.1653  0.2447  0.2818
   16SAPS     N 1996   3.118   0.722   6.525  0.1360  0.1800 -0.2076
   16SAPS   HN1 1997   3.167   0.803   6.567  0.6403 -1.8942  3.4267
   16SAPS   HN2 1998   3.047   0.759   6.459 -1.2081  1.6382  2.0082
   16SAPS   HN3 1999   3.067   0.676   6.603 -1.4157 -2.1680 -2.5358
   16SAPS   C12 2000   3.208   0.635   6.444  0.1938 -0.1346  0.4036
   16SAPS  H12A 2001   3.146   0.551   6.415 -1.4622  1.2019 -0.0473
   16SAPS   C13 2002   3.249   0.693   6.309  0.1897 -0.0954 -0.2594
   16SAPS  O13A 2003   3.187   0.793   6.265 -0.6018 -0.0131 -0.1755
   16SAPS  O13B 2004   3.319   0.624   6.228  0.1720  0.2372  0.1026
   16SAPS   C11 2005   3.347   0.596   6.523 -0.1894 -0.6317  0.1339
   16SAPS  H11A 2006   3.390   0.696   6.541 -0.5267 -0.1831 -1.5609
   16SAPS  H11B 2007   3.417   0.536   6.462  2.9814  0.9986  2.0484
   16SAPS     P 2008   3.259   0.408   6.682  0.3854  0.1376  0.1962
   16SAPS   O13 2009   3.120   0.427   6.635 -0.3269 -0.1516 -0.1380
   16SAPS   O14 2010   3.347   0.294   6.634  0.0917 -0.0743  0.6128
   16SAPS   O12 2011   3.325   0.544   6.655  0.1808  0.2204  0.2806
   16SAPS   O11 2012   3.252   0.404   6.841 -0.7725  0.2790 -0.0372
   16SAPS    C1 2013   3.214   0.515   6.914  0.2207  0.2633 -0.4560
   16SAPS    HA 2014   3.154   0.584   6.850 -2.4295 -2.3027 -0.8753
   16SAPS    HB 2015   3.148   0.468   6.990  2.5643 -1.5648  0.4994
   16SAPS    C2 2016   3.331   0.585   6.987  0.3039  1.0950 -0.2282
   16SAPS    HS 2017   3.398   0.626   6.908 -0.3389  0.5371 -1.0875
   16SAPS   O21 2018   3.398   0.481   7.062  0.4738  0.2244  0.1382
   16SAPS   C21 2019   3.492   0.515   7.146 -0.3067 -0.8745  1.2170
   16SAPS   O22 2020   3.558   0.620   7.130  0.0982  0.2305  0.2410
   16SAPS   C22 2021   3.520   0.396   7.248 -0.0246 -0.7450  0.2590
   16SAPS   H2R 2022   3.433   0.328   7.255 -1.1502  0.6168 -0.1882
   16SAPS   H2S 2023   3.612   0.356   7.201 -1.1333  0.7607 -3.3691
   16SAPS    C3 2024   3.287   0.706   7.076 -0.6343  0.2140 -0.0841
   16SAPS    HX 2025   3.255   0.777   6.997 -0.0955 -0.9456 -1.3759
   16SAPS    HY 2026   3.359   0.751   7.148  0.1233 -0.5058 -0.3823
   16SAPS   O31 2027   3.180   0.656   7.169  0.0214  0.3780  0.0628
   16SAPS   C31 2028   3.057   0.702   7.152 -0.5549 -0.0473  0.0589
   16SAPS   O32 2029   3.023   0.779   7.064  0.2032  0.0561  0.0218
   16SAPS   C32 2030   2.965   0.631   7.251  0.4355  0.2040  0.1197
   16SAPS   H2X 2031   2.983   0.523   7.236 -0.2959  0.4979 -3.3327
   16SAPS   H2Y 2032   2.860   0.650   7.220 -0.1362 -3.2746 -0.2346
   16SAPS   C23 2033   3.555   0.443   7.396 -1.1200 -0.2565 -0.3757
   16SAPS   H3R 2034   3.616   0.536   7.399 -4.4039  1.9349  1.9235
   16SAPS   H3S 2035   3.619   0.359   7.431 -1.2211 -0.8505 -1.5631
   16SAPS   C24 2036   3.436   0.455   7.491 -0.1886  0.9713 -0.5928
   16SAPS   H4R 2037   3.474   0.439   7.595  2.0140  1.3363 -1.3066
   16SAPS   H4S 2038   3.371   0.366   7.477  1.1162 -0.3290  1.4102
   16SAPS   C25 2039   3.353   0.578   7.470  0.0024 -0.0662 -0.4667
   16SAPS   H5R 2040   3.315   0.602   7.369  2.0543 -2.5085 -1.8767
   16SAPS   C26 2041   3.340   0.664   7.572  0.5395 -0.2411 -0.0686
   16SAPS   H6R 2042   3.277   0.750   7.547 -0.2006 -0.2824  1.6389
   16SAPS   C27 2043   3.391   0.637   7.717  0.7506  0.1506  0.4376
   16SAPS   H7R 2044   3.500   0.654   7.729  1.2380 -1.9379 -0.7467
   16SAPS   H7S 2045   3.370   0.532   7.747  0.8858  0.0698  0.2497
   16SAPS   C28 2046   3.322   0.729   7.814 -0.5245 -0.0441  0.6511
   16SAPS   H8R 2047   3.235   0.781   7.772 -0.7425  0.2928  1.5184
   16SAPS   C29 2048   3.345   0.750   7.947  0.2598 -0.2785  0.1680
   16SAPS   H9R 2049   3.280   0.825   7.996 -0.2288 -0.3073 -0.4335
   16SAPS  C210 2050   3.461   0.692   8.030 -0.4635  0.1433  0.4789
   16SAPS  H10R 2051   3.553   0.714   7.973  0.4491 -3.7278  0.3338
   16SAPS  H10S 2052   3.466   0.581   8.024  0.1107  0.2437 -1.0839
   16SAPS  C211 2053   3.472   0.722   8.179  0.2169  0.5858  0.7252
   16SAPS  H11R 2054   3.449   0.828   8.196 -0.7445  1.1110 -3.4696
   16SAPS  C212 2055   3.484   0.626   8.271 -0.0769  0.1873  0.3446
   16SAPS  H12R 2056   3.495   0.659   8.376 -3.9435 -0.0118  0.9086
   16SAPS  C213 2057   3.486   0.475   8.266 -0.2883  0.7048 -0.1078
   16SAPS  H13R 2058   3.458   0.426   8.170 -1.8449 -0.4376  0.9001
   16SAPS  H13S 2059   3.406   0.448   8.339  1.4163  1.0524  1.9299
   16SAPS  C214 2060   3.622   0.424   8.306 -0.4247 -0.1582  0.7259
   16SAPS  H14R 2061   3.704   0.433   8.233 -2.0322  1.1865 -0.9828
   16SAPS  C215 2062   3.652   0.371   8.425  0.2592  0.4084 -0.7072
   16SAPS  H15R 2063   3.756   0.338   8.438  0.3182  1.1646  0.8183
   16SAPS  C216 2064   3.564   0.345   8.549 -0.2726 -0.2525 -0.0041
   16SAPS  H16R 2065   3.599   0.259   8.610 -0.3573  0.4286  1.0223
   16SAPS  H16S 2066   3.463   0.315   8.512  0.6547  2.1723 -4.8134
   16SAPS  C217 2067   3.555   0.475   8.626 -0.7891 -0.3648  0.4560
   16SAPS  H17R 2068   3.508   0.555   8.566 -0.4440  0.4958  1.3127
   16SAPS  H17S 2069   3.656   0.510   8.657 -1.4942  1.9201  0.2789
   16SAPS  C218 2070   3.484   0.465   8.761 -0.8163 -0.2352 -0.3970
   16SAPS  H18R 2071   3.378   0.467   8.729 -0.8282  1.9070 -0.2502
   16SAPS  H18S 2072   3.499   0.556   8.822  0.7180  0.1396 -1.2967
   16SAPS  C219 2073   3.520   0.344   8.849  0.6342  0.3892  0.1733
   16SAPS  H19R 2074   3.489   0.247   8.803 -0.2168  0.9059 -0.3443
   16SAPS  H19S 2075   3.454   0.344   8.938 -0.7824 -1.5757 -0.8264
   16SAPS  C220 2076   3.671   0.330   8.890  0.6460  0.0294 -0.4577
   16SAPS  H20R 2077   3.728   0.277   8.811  2.8839 -0.5341  1.4691
   16SAPS  H20S 2078   3.663   0.260   8.976 -1.0357  0.0103 -0.6046
   16SAPS  H20T 2079   3.709   0.434   8.905 -3.0731  1.5761 -1.0688
   16SAPS   C33 2080   2.983   0.672   7.400 -0.4886 -0.5411 -0.7836
   16SAPS   H3X 2081   3.090   0.650   7.422 -0.8833 -0.2837  1.5888
   16SAPS   H3Y 2082   2.927   0.607   7.470  0.6021 -1.2553 -0.5520
   16SAPS   C34 2083   2.967   0.822   7.426  0.0242 -0.0356 -0.1440
   16SAPS   H4X 2084   2.871   0.860   7.386 -0.6735  0.1960  1.6941
   16SAPS   H4Y 2085   3.045   0.878   7.371 -0.4966 -0.2321 -1.0855
   16SAPS   C35 2086   2.976   0.857   7.572 -0.1429  0.1332 -0.1483
   16SAPS   H5X 2087   3.070   0.814   7.614 -0.1270  2.7435  2.7268
   16SAPS   H5Y 2088   2.892   0.810   7.627  0.8880 -0.9102  0.5411
   16SAPS   C36 2089   2.965   1.015   7.591 -0.0253  0.1264 -0.0431
   16SAPS   H6X 2090   2.871   1.045   7.540 -0.3047  0.5338  0.7152
   16SAPS   H6Y 2091   3.054   1.052   7.537  0.3073  0.2907  0.6150
   16SAPS   C37 2092   2.949   1.053   7.738  0.2767 -0.2155  1.0455
   16SAPS   H7X 2093   3.029   1.013   7.803 -0.9534 -1.3064  1.8989
   16SAPS   H7Y 2094   2.850   1.012   7.766 -1.0472  0.7667 -1.9867
   16SAPS   C38 2095   2.940   1.205   7.759 -0.0494  0.1576 -0.4207
   16SAPS   H8X 2096   2.854   1.235   7.695  1.3720 -0.2831 -2.5943
   16SAPS   H8Y 2097   3.030   1.264   7.733 -0.4839  0.5129 -1.1472
   16SAPS   C39 2098   2.894   1.234   7.904  0.4696  0.2266 -0.6338
   16SAPS   H9X 2099   2.975   1.194   7.969  0.9916 -0.2387 -1.5462
   16SAPS   H9Y 2100   2.799   1.186   7.936  0.5254  2.1089  2.6192
   16SAPS  C310 2101   2.891   1.383   7.941 -0.4284 -0.2448  0.6887
   16SAPS  H10X 2102   2.822   1.431   7.868  1.5512  0.3490 -0.8089
   16SAPS  H10Y 2103   2.988   1.433   7.926 -0.3353 -0.5173  0.3751
   16SAPS  C311 2104   2.841   1.419   8.079  0.0030  0.0536  0.3495
   16SAPS  H11X 2105   2.734   1.391   8.093  0.2337 -0.4480  1.1951
   16SAPS  H11Y 2106   2.851   1.528   8.094  0.1061 -0.1611  1.9396
   16SAPS  C312 2107   2.922   1.354   8.188  0.3808 -0.1347  0.4110
   16SAPS  H12X 2108   3.025   1.371   8.152  0.3099 -0.0457  0.2498
   16SAPS  H12Y 2109   2.910   1.245   8.170  2.2508 -0.1578 -0.8194
   16SAPS  C313 2110   2.897   1.395   8.329  0.2651  0.4086  0.0842
   16SAPS  H13X 2111   2.896   1.506   8.341 -2.0874  0.1827  2.4365
   16SAPS  H13Y 2112   2.973   1.349   8.396  0.5226  2.6541  1.3958
   16SAPS  C314 2113   2.760   1.342   8.382  0.3148  0.1226  0.5466
   16SAPS  H14X 2114   2.754   1.233   8.403  2.4006  0.3383  2.4384
   16SAPS  H14Y 2115   2.687   1.365   8.301  1.6805  1.8926 -0.2350
   16SAPS  C315 2116   2.714   1.420   8.503 -0.4229  0.0748  0.2918
   16SAPS  H15X 2117   2.616   1.371   8.523 -0.3969  0.2753  0.9357
   16SAPS  H15Y 2118   2.686   1.522   8.469  0.6357 -0.0825 -1.0932
   16SAPS  C316 2119   2.811   1.416   8.618  0.3098  0.0271 -0.3392
   16SAPS  H16X 2120   2.776   1.501   8.680  1.2941  0.5126 -0.4509
   16SAPS  H16Y 2121   2.916   1.430   8.584  0.4109 -2.0561 -0.9986
   16SAPS  C317 2122   2.804   1.288   8.695  0.4483 -0.0918 -0.5735
   16SAPS  H17X 2123   2.820   1.201   8.628  0.0988 -0.3810 -0.2844
   16SAPS  H17Y 2124   2.703   1.282   8.740  1.5788 -1.0318  1.9609
   16SAPS  C318 2125   2.912   1.256   8.802  0.7279 -0.0432 -0.4215
   16SAPS  H18X 2126   2.924   1.341   8.873 -1.9549 -0.3638  0.4387
   16SAPS  H18Y 2127   3.011   1.234   8.755  1.6804  2.1564  0.4659
   16SAPS  H18Z 2128   2.884   1.166   8.860 -2.2223 -0.4372 -2.3765
   17SAPC     N 2129   0.538   3.336  10.337 -0.4776 -0.7927  0.2004
   17SAPC   C12 2130   0.471   3.241  10.235 -0.7869  0.2713 -0.0829
   17SAPC  H12A 2131   0.385   3.282  10.186 -0.8321 -0.9368 -1.0376
   17SAPC  H12B 2132   0.430   3.155  10.285 -1.0273  0.9927  0.9679
   17SAPC   C13 2133   0.599   3.447  10.269  0.4588 -0.2903  0.1676
   17SAPC  H13A 2134   0.654   3.507  10.340 -2.2768 -1.8127  3.6973
   17SAPC  H13B 2135   0.669   3.415  10.194 -1.1004 -1.4436 -0.8284
   17SAPC  H13C 2136   0.528   3.511  10.218  0.3764 -0.9608 -0.5798
   17SAPC   C14 2137   0.440   3.386  10.431  0.4169 -0.0040 -0.8416
   17SAPC  H14A 2138   0.360   3.433  10.376 -2.4874 -1.3130  2.0549
   17SAPC  H14B 2139   0.406   3.310  10.501  2.1301 -0.7472 -0.8023
   17SAPC  H14C 2140   0.472   3.467  10.495 -3.7484  0.9879  0.1434
   17SAPC   C15 2141   0.637   3.258  10.413  0.0652  0.1826  0.1359
   17SAPC  H15A 2142   0.707   3.220  10.340 -0.8631  0.2553 -0.8087
   17SAPC  H15B 2143   0.701   3.312  10.481 -0.2122  0.0373  0.5136
   17SAPC  H15C 2144   0.587   3.176  10.462 -0.1325 -1.0260 -2.0214
   17SAPC   C11 2145   0.563   3.195  10.115  0.1337  0.1593 -0.6674
   17SAPC  H11A 2146   0.610   3.279  10.061 -1.1497  1.4256  0.1649
   17SAPC  H11B 2147   0.498   3.158  10.033  0.3378 -0.0536 -0.7355
   17SAPC     P 2148   0.655   2.957  10.191  0.1455 -0.3059 -0.2996
   17SAPC   O13 2149   0.763   2.917  10.287 -0.0290 -0.4531  0.0890
   17SAPC   O14 2150   0.523   2.921  10.238  0.5918  0.1772 -0.1123
   17SAPC   O12 2151   0.660   3.115  10.159  0.0703  0.4918 -0.2114
   17SAPC   O11 2152   0.678   2.894  10.041 -0.0381  1.0846 -0.4134
   17SAPC    C1 2153   0.799   2.908   9.968 -0.1387  0.7179 -0.3021
   17SAPC    HA 2154   0.853   3.000  10.000  0.3919  0.1784  0.3808
   17SAPC    HB 2155   0.869   2.823   9.989 -0.2177  0.4378 -1.1453
   17SAPC    C2 2156   0.781   2.935   9.822  0.1658 -0.3724  0.3416
   17SAPC    HS 2157   0.753   2.840   9.770 -0.7186  0.0707 -0.0053
   17SAPC   O21 2158   0.896   2.995   9.768  0.1437  0.5652  0.0741
   17SAPC   C21 2159   1.006   2.926   9.761  0.9815  0.1166  0.1515
   17SAPC   O22 2160   1.034   2.817   9.812 -0.9082 -0.4283  0.4593
   17SAPC   C22 2161   1.111   3.021   9.698  0.8102  0.0620  0.9077
   17SAPC   H2R 2162   1.107   3.117   9.755 -0.1085  0.3148  0.4243
   17SAPC   H2S 2163   1.210   2.972   9.709  0.2704 -1.1964  0.1239
   17SAPC    C3 2164   0.658   3.028   9.784  0.1887 -0.1831  0.5302
   17SAPC    HX 2165   0.663   3.127   9.834  0.3820 -1.2773  2.7512
   17SAPC    HY 2166   0.565   2.984   9.828  0.5039 -0.6988  0.6799
   17SAPC   O31 2167   0.637   3.025   9.639  0.2318 -0.2114  0.3214
   17SAPC   C31 2168   0.645   3.140   9.586 -0.4906  0.3294  0.3819
   17SAPC   O32 2169   0.639   3.253   9.632  0.0192 -0.3277 -0.7000
   17SAPC   C32 2170   0.676   3.110   9.443 -0.5882 -0.0759  0.6554
   17SAPC   H2X 2171   0.579   3.073   9.406 -1.1477  2.7066 -0.8451
   17SAPC   H2Y 2172   0.761   3.038   9.438  1.7263  2.6048 -0.3722
   17SAPC   C23 2173   1.091   3.049   9.549  0.0985 -0.2795  0.3428
   17SAPC   H3R 2174   0.984   3.070   9.532  0.5794  1.2258 -0.9654
   17SAPC   H3S 2175   1.117   2.956   9.495 -2.0915 -1.2781  0.9553
   17SAPC   C24 2176   1.163   3.174   9.494  0.0625  0.3559  0.1678
   17SAPC   H4R 2177   1.271   3.151   9.508  0.0800  0.5191  0.3000
   17SAPC   H4S 2178   1.138   3.265   9.553 -1.5048  2.3687 -3.4279
   17SAPC   C25 2179   1.122   3.209   9.358 -0.2789  0.1196 -0.2437
   17SAPC   H5R 2180   1.058   3.298   9.354 -1.4939 -0.6454  1.6362
   17SAPC   C26 2181   1.159   3.144   9.241 -0.8063 -0.7157  0.5152
   17SAPC   H6R 2182   1.106   3.178   9.151  1.1348 -1.8776 -1.0990
   17SAPC   C27 2183   1.258   3.025   9.219  0.1988  0.3284  0.1972
   17SAPC   H7R 2184   1.201   2.937   9.182 -0.4164  0.9578 -0.3723
   17SAPC   H7S 2185   1.299   2.998   9.319  1.7014  0.2057 -0.4405
   17SAPC   C28 2186   1.358   3.060   9.121 -0.6189  0.5988 -0.3473
   17SAPC   H8R 2187   1.443   3.115   9.165  1.7033 -2.9263 -0.1872
   17SAPC   C29 2188   1.374   2.998   9.006 -0.4870  0.3110 -0.7583
   17SAPC   H9R 2189   1.466   3.013   8.948  0.7477  0.0015  1.0991
   17SAPC  C210 2190   1.289   2.890   8.941  0.0860 -0.7080 -0.4074
   17SAPC  H10R 2191   1.186   2.929   8.960 -0.2521 -1.4236 -0.7661
   17SAPC  H10S 2192   1.294   2.791   8.990 -0.7658 -0.3717  0.3756
   17SAPC  C211 2193   1.288   2.883   8.794  0.0289 -0.2967 -0.0977
   17SAPC  H11R 2194   1.292   2.981   8.745  1.4839 -0.3693 -0.1475
   17SAPC  C212 2195   1.259   2.771   8.722  0.1498  0.0640 -0.7329
   17SAPC  H12R 2196   1.272   2.784   8.614 -1.5733  2.2652 -0.7049
   17SAPC  C213 2197   1.225   2.628   8.754 -0.3830 -0.4586 -0.2451
   17SAPC  H13R 2198   1.116   2.632   8.770 -0.6617 -2.5156 -1.4623
   17SAPC  H13S 2199   1.271   2.598   8.851 -0.7245  1.0045  0.3920
   17SAPC  C214 2200   1.268   2.532   8.649  0.0318  0.4830 -0.1769
   17SAPC  H14R 2201   1.376   2.529   8.627 -0.7827 -1.3920 -4.3977
   17SAPC  C215 2202   1.195   2.447   8.575  0.1929 -0.1725 -0.1003
   17SAPC  H15R 2203   1.248   2.374   8.512  1.9598  0.9547  0.0337
   17SAPC  C216 2204   1.046   2.441   8.585  0.0521  0.3285  0.5896
   17SAPC  H16R 2205   0.999   2.480   8.493  3.4484  0.7330 -1.0606
   17SAPC  H16S 2206   1.014   2.513   8.664 -0.8965  1.4480 -0.7981
   17SAPC  C217 2207   0.991   2.300   8.628  0.1375  0.2331  0.1558
   17SAPC  H17R 2208   1.011   2.235   8.540  0.0515 -3.0767  2.4765
   17SAPC  H17S 2209   0.882   2.305   8.649  0.0713  0.0676 -0.1429
   17SAPC  C218 2210   1.047   2.245   8.762  0.0648 -0.1881  0.0356
   17SAPC  H18R 2211   1.154   2.222   8.740  0.0716  0.1691 -0.3091
   17SAPC  H18S 2212   0.986   2.153   8.773 -1.8810  0.9554 -0.8784
   17SAPC  C219 2213   1.033   2.336   8.883  0.0078 -0.2760 -0.1652
   17SAPC  H19R 2214   0.929   2.323   8.920 -0.8359 -0.0401 -2.4364
   17SAPC  H19S 2215   1.039   2.441   8.850  0.3380 -0.6377 -1.2658
   17SAPC  C220 2216   1.132   2.318   9.001  0.4610 -0.2130  0.3066
   17SAPC  H20R 2217   1.238   2.336   8.972  0.0610 -2.1143 -2.4883
   17SAPC  H20S 2218   1.121   2.215   9.041 -2.9191  0.2669  0.7746
   17SAPC  H20T 2219   1.101   2.380   9.088  0.1131  1.2444 -0.8368
   17SAPC   C33 2220   0.713   3.244   9.372  0.4384  0.1114  0.1278
   17SAPC   H3X 2221   0.792   3.303   9.423  0.9694  0.3027 -0.9043
   17SAPC   H3Y 2222   0.625   3.310   9.367  0.4142  0.2310  1.8851
   17SAPC   C34 2223   0.753   3.210   9.233 -0.6914  0.0944 -0.3256
   17SAPC   H4X 2224   0.674   3.152   9.182 -1.0422 -0.2732  0.6334
   17SAPC   H4Y 2225   0.839   3.140   9.240 -1.1208 -0.5068 -1.0268
   17SAPC   C35 2226   0.791   3.339   9.161 -0.5625 -0.4722  0.1847
   17SAPC   H5X 2227   0.838   3.307   9.066 -1.4139 -0.4476 -0.2494
   17SAPC   H5Y 2228   0.859   3.387   9.235  1.1257 -2.0388 -0.3197
   17SAPC   C36 2229   0.673   3.432   9.130  0.3510 -1.3525  0.0248
   17SAPC   H6X 2230   0.605   3.440   9.218 -0.7720 -0.3770 -0.9064
   17SAPC   H6Y 2231   0.610   3.394   9.047 -2.0590 -0.5249  1.4290
   17SAPC   C37 2232   0.722   3.579   9.099 -0.7666  0.1769 -0.2555
   17SAPC   H7X 2233   0.792   3.582   9.013 -0.9298  1.4819 -0.3524
   17SAPC   H7Y 2234   0.778   3.592   9.194 -1.9347 -0.8315  0.5967
   17SAPC   C38 2235   0.611   3.683   9.079 -0.2302 -0.5903 -0.1107
   17SAPC   H8X 2236   0.640   3.791   9.082 -0.6896 -0.4589 -0.3597
   17SAPC   H8Y 2237   0.534   3.679   9.159 -1.0282  1.8736 -0.7194
   17SAPC   C39 2238   0.534   3.671   8.943 -0.0031 -0.2776 -0.1411
   17SAPC   H9X 2239   0.510   3.563   8.931 -0.2190 -0.1859 -0.5924
   17SAPC   H9Y 2240   0.602   3.704   8.861 -0.5877  0.1149 -0.4767
   17SAPC  C310 2241   0.414   3.765   8.931 -0.0938  0.4609 -0.1116
   17SAPC  H10X 2242   0.431   3.870   8.965  0.0219  0.1124  0.9079
   17SAPC  H10Y 2243   0.344   3.725   9.007 -0.5100 -0.6414 -1.0627
   17SAPC  C311 2244   0.353   3.755   8.796  0.2905 -0.3520  0.3339
   17SAPC  H11X 2245   0.418   3.785   8.711  1.8056  0.6457  1.8126
   17SAPC  H11Y 2246   0.281   3.837   8.776  0.9159 -0.6341 -3.2885
   17SAPC  C312 2247   0.279   3.627   8.768 -0.8892  0.5216 -0.1891
   17SAPC  H12X 2248   0.242   3.593   8.868  3.0659  2.2389  2.0007
   17SAPC  H12Y 2249   0.350   3.550   8.732 -1.0094  0.0892  0.4781
   17SAPC  C313 2250   0.166   3.643   8.665 -0.8516  0.1149 -0.3520
   17SAPC  H13X 2251   0.084   3.710   8.700  0.6481  1.0837  1.4173
   17SAPC  H13Y 2252   0.115   3.546   8.648 -1.1589  0.6100 -2.3113
   17SAPC  C314 2253   0.212   3.679   8.527 -0.2496 -0.1397  0.1229
   17SAPC  H14X 2254   0.290   3.602   8.505  0.1169 -0.4106  2.1980
   17SAPC  H14Y 2255   0.263   3.777   8.527 -0.4680  0.0751 -4.1086
   17SAPC  C315 2256   0.107   3.674   8.416  0.9136 -0.8552  0.8758
   17SAPC  H15X 2257   0.034   3.757   8.418  0.0174 -1.5256 -2.4748
   17SAPC  H15Y 2258   0.044   3.583   8.420  0.1433 -0.3682 -0.2328
   17SAPC  C316 2259   0.172   3.672   8.276  0.5208 -0.4200 -0.0970
   17SAPC  H16X 2260   0.214   3.573   8.246  2.7685  0.3963  0.2601
   17SAPC  H16Y 2261   0.265   3.733   8.283  1.2101 -1.6204  1.6204
   17SAPC  C317 2262   0.069   3.726   8.168  0.5451 -0.8109  0.2652
   17SAPC  H17X 2263  -0.017   3.657   8.182 -1.1212  1.1740  0.1043
   17SAPC  H17Y 2264   0.113   3.724   8.066 -1.0360  0.7225 -0.4953
   17SAPC  C318 2265   0.009   3.872   8.179 -0.5508 -0.2494  0.2447
   17SAPC  H18X 2266  -0.028   3.902   8.280  0.4145  0.2766  0.4474
   17SAPC  H18Y 2267   0.087   3.940   8.139  0.0282  0.0738  1.8860
   17SAPC  H18Z 2268  -0.083   3.878   8.117  0.7367  1.8582 -1.5531
   18SAPC     N 2269   1.751   3.223  10.466  0.0385  0.8291 -0.1525
   18SAPC   C12 2270   1.836   3.118  10.383  0.3517  0.7066 -0.5891
   18SAPC  H12A 2271   1.894   3.059  10.452 -0.6255  0.9967  0.5024
   18SAPC  H12B 2272   1.907   3.173  10.323 -0.4538  3.1789  0.6454
   18SAPC   C13 2273   1.666   3.318  10.382  0.1907 -0.0031  0.6109
   18SAPC  H13A 2274   1.582   3.266  10.338 -1.5112  0.7821  2.8489
   18SAPC  H13B 2275   1.625   3.399  10.441 -2.4923  0.8607 -2.3341
   18SAPC  H13C 2276   1.717   3.350  10.292 -0.2314 -1.1175 -0.0351
   18SAPC   C14 2277   1.655   3.151  10.559  0.6994  0.0548 -0.0177
   18SAPC  H14A 2278   1.628   3.214  10.642 -0.8695  0.9951 -1.2046
   18SAPC  H14B 2279   1.583   3.096  10.501 -0.4606  0.3551  1.1223
   18SAPC  H14C 2280   1.703   3.061  10.592 -0.1168 -1.1611 -2.0382
   18SAPC   C15 2281   1.838   3.310  10.554 -0.0867 -0.0361 -0.4161
   18SAPC  H15A 2282   1.878   3.391  10.494  0.7254  0.9793  1.4084
   18SAPC  H15B 2283   1.775   3.358  10.628  1.5105  2.4343 -0.5726
   18SAPC  H15C 2284   1.912   3.252  10.608  0.2553 -1.1162 -2.0188
   18SAPC   C11 2285   1.756   3.027  10.285  0.2137 -0.1038 -0.0104
   18SAPC  H11A 2286   1.827   2.964  10.227 -0.3782 -0.7009 -0.0874
   18SAPC  H11B 2287   1.693   3.087  10.216 -0.0440  0.4297  0.6775
   18SAPC     P 2288   1.548   2.877  10.319  0.5652 -0.4108  0.7113
   18SAPC   O13 2289   1.518   2.752  10.395 -0.0134 -0.1275  0.0852
   18SAPC   O14 2290   1.438   2.985  10.320  0.0899 -0.0520 -0.4696
   18SAPC   O12 2291   1.683   2.936  10.366  0.2201 -0.3682  0.2356
   18SAPC   O11 2292   1.566   2.831  10.168 -0.0045 -0.0803 -0.1188
   18SAPC    C1 2293   1.678   2.745  10.117 -0.3211  0.0616  0.5665
   18SAPC    HA 2294   1.733   2.796  10.036  1.6013 -0.3096  1.6005
   18SAPC    HB 2295   1.757   2.720  10.191 -0.3705  1.4303  1.1041
   18SAPC    C2 2296   1.628   2.613  10.061  0.4941 -0.5092 -0.3288
   18SAPC    HS 2297   1.710   2.539  10.062  1.3172  0.3445 -1.9760
   18SAPC   O21 2298   1.570   2.640   9.930  0.2385  0.0992 -0.7291
   18SAPC   C21 2299   1.655   2.657   9.834  0.0616  0.1205  0.5716
   18SAPC   O22 2300   1.775   2.658   9.843 -0.3318 -0.2166 -0.3919
   18SAPC   C22 2301   1.570   2.680   9.711  0.0441  0.0109 -0.1314
   18SAPC   H2R 2302   1.500   2.764   9.726 -1.8254 -1.4611 -0.3382
   18SAPC   H2S 2303   1.633   2.709   9.624  0.8657 -2.9799 -0.6084
   18SAPC    C3 2304   1.514   2.560  10.155  0.2615 -0.3241  0.2292
   18SAPC    HX 2305   1.429   2.632  10.151 -0.7315 -1.5619 -1.8295
   18SAPC    HY 2306   1.549   2.567  10.260 -2.3396 -0.9847  1.1776
   18SAPC   O31 2307   1.473   2.428  10.124  0.0058 -0.7508 -0.2738
   18SAPC   C31 2308   1.381   2.427  10.027  0.3425  0.3533 -0.2567
   18SAPC   O32 2309   1.307   2.513   9.988 -0.0136 -0.2051  0.0617
   18SAPC   C32 2310   1.376   2.280   9.978  0.6031  0.1226 -0.4071
   18SAPC   H2X 2311   1.308   2.215  10.038  1.1823 -1.4023 -1.3870
   18SAPC   H2Y 2312   1.475   2.230   9.984 -0.4464 -2.0624 -0.7544
   18SAPC   C23 2313   1.472   2.570   9.671 -0.2644 -0.1462 -1.0144
   18SAPC   H3R 2314   1.410   2.531   9.755  1.0583 -1.7037 -0.7387
   18SAPC   H3S 2315   1.528   2.482   9.634 -1.5674 -0.9279 -1.1864
   18SAPC   C24 2316   1.383   2.621   9.553 -0.1562 -0.8591 -0.2467
   18SAPC   H4R 2317   1.440   2.651   9.463  0.7889  2.3435  1.3283
   18SAPC   H4S 2318   1.329   2.710   9.590 -1.0188 -1.5419  0.1678
   18SAPC   C25 2319   1.285   2.511   9.518  0.6438  0.3373 -0.7181
   18SAPC   H5R 2320   1.323   2.410   9.539  0.1179  0.5008  1.1568
   18SAPC   C26 2321   1.164   2.538   9.466 -0.0591 -0.3926  0.4874
   18SAPC   H6R 2322   1.103   2.453   9.434 -1.7296  1.3476 -1.0812
   18SAPC   C27 2323   1.097   2.669   9.435  0.1554  0.4701  0.1303
   18SAPC   H7R 2324   1.095   2.675   9.324  0.4327  1.8711  0.1935
   18SAPC   H7S 2325   1.156   2.757   9.471 -1.1641  0.2206  3.0108
   18SAPC   C28 2326   0.961   2.698   9.512 -0.6150  0.2397 -0.3696
   18SAPC   H8R 2327   0.933   2.656   9.610 -0.3794  2.2203  0.5896
   18SAPC   C29 2328   0.862   2.765   9.444  0.2656  0.6696 -0.3950
   18SAPC   H9R 2329   0.770   2.783   9.501  1.6120  0.2331  1.9686
   18SAPC  C210 2330   0.864   2.815   9.294 -0.2088  0.0522 -0.0205
   18SAPC  H10R 2331   0.973   2.823   9.273  0.0809 -0.0469  1.3821
   18SAPC  H10S 2332   0.828   2.920   9.288 -1.4579 -0.3125  0.7769
   18SAPC  C211 2333   0.794   2.737   9.183  0.5069  0.0659 -0.3976
   18SAPC  H11R 2334   0.718   2.668   9.224 -0.6063  1.7565  0.4564
   18SAPC  C212 2335   0.815   2.737   9.052  0.9519  0.4239  0.6677
   18SAPC  H12R 2336   0.753   2.673   8.987 -0.2706  0.9575  1.3162
   18SAPC  C213 2337   0.923   2.825   8.989 -0.2880  0.2899  0.8979
   18SAPC  H13R 2338   1.019   2.803   9.041  1.5692 -0.4338 -2.6645
   18SAPC  H13S 2339   0.897   2.931   9.013  2.3445  0.4628  3.3150
   18SAPC  C214 2340   0.922   2.800   8.838 -0.0177 -1.2458  0.2692
   18SAPC  H14R 2341   0.917   2.698   8.798 -0.2060 -1.0348 -0.2431
   18SAPC  C215 2342   0.932   2.896   8.737  0.4423  0.4820  0.5554
   18SAPC  H15R 2343   0.919   2.857   8.635  2.2724  0.7871  0.1875
   18SAPC  C216 2344   0.935   3.048   8.746 -0.6037  0.3629  0.3143
   18SAPC  H16R 2345   1.015   3.087   8.679 -0.1501 -2.5983 -0.9421
   18SAPC  H16S 2346   0.963   3.075   8.851 -0.3518  0.0132  0.3388
   18SAPC  C217 2347   0.807   3.118   8.705 -0.6436 -0.2899 -0.2522
   18SAPC  H17R 2348   0.785   3.093   8.599 -0.8924  1.5241 -0.6419
   18SAPC  H17S 2349   0.828   3.227   8.708 -1.3264 -0.2023  1.7287
   18SAPC  C218 2350   0.686   3.087   8.786 -0.6399  0.6508 -0.3041
   18SAPC  H18R 2351   0.710   3.114   8.891 -0.4174  1.1954 -0.4973
   18SAPC  H18S 2352   0.641   2.986   8.775 -0.6374  0.5058  0.9242
   18SAPC  C219 2353   0.569   3.184   8.738 -0.7782  0.3528 -0.0015
   18SAPC  H19R 2354   0.531   3.144   8.642 -2.8306 -0.9045  1.2931
   18SAPC  H19S 2355   0.618   3.280   8.713  1.5248 -0.7125  0.2233
   18SAPC  C220 2356   0.464   3.216   8.842 -0.0523  0.6546  0.3038
   18SAPC  H20R 2357   0.509   3.229   8.943  0.0380 -1.8758  0.6169
   18SAPC  H20S 2358   0.402   3.125   8.859 -1.6637  2.0940  2.6037
   18SAPC  H20T 2359   0.406   3.308   8.820  0.4354  0.9026  0.0570
   18SAPC   C33 2360   1.314   2.259   9.828 -0.4746  0.4874 -0.9509
   18SAPC   H3X 2361   1.381   2.322   9.766  0.1291 -0.1617 -0.9693
   18SAPC   H3Y 2362   1.210   2.293   9.810 -1.3908 -0.6265  1.9550
   18SAPC   C34 2363   1.311   2.114   9.774 -0.5785 -0.1625 -0.6800
   18SAPC   H4X 2364   1.243   2.058   9.843 -0.3583 -0.7296 -0.9276
   18SAPC   H4Y 2365   1.417   2.084   9.778 -0.4840  0.2657  0.2030
   18SAPC   C35 2366   1.272   2.107   9.627 -0.2039 -0.2459 -0.4716
   18SAPC   H5X 2367   1.247   2.213   9.605 -2.9753 -0.7980 -0.1553
   18SAPC   H5Y 2368   1.173   2.056   9.622 -0.8319  1.0214 -1.4120
   18SAPC   C36 2369   1.367   2.047   9.525 -0.3949  0.4621 -0.4890
   18SAPC   H6X 2370   1.386   1.940   9.550  0.2307  0.9276  1.0976
   18SAPC   H6Y 2371   1.464   2.100   9.518 -0.3056  0.4321  0.4074
   18SAPC   C37 2372   1.302   2.031   9.390  0.3577  0.3467 -0.3470
   18SAPC   H7X 2373   1.293   2.125   9.332 -0.1830  1.2362  1.1385
   18SAPC   H7Y 2374   1.198   1.997   9.409  0.6009 -0.9901 -1.3220
   18SAPC   C38 2375   1.374   1.923   9.306 -0.2580  0.4555  0.0827
   18SAPC   H8X 2376   1.318   1.903   9.212 -0.3318  1.5017 -0.0984
   18SAPC   H8Y 2377   1.362   1.829   9.364 -2.5961  0.7544  0.1267
   18SAPC   C39 2378   1.522   1.947   9.278 -0.4485  0.8334 -0.1363
   18SAPC   H9X 2379   1.572   1.934   9.377  0.8927  2.3602 -0.6010
   18SAPC   H9Y 2380   1.539   2.050   9.243 -0.2758  0.1510 -2.0844
   18SAPC  C310 2381   1.579   1.855   9.171  0.0839  0.2039  1.1073
   18SAPC  H10X 2382   1.517   1.859   9.079  0.3778 -0.4902  0.8717
   18SAPC  H10Y 2383   1.558   1.749   9.197  0.8683 -0.6625 -1.5943
   18SAPC  C311 2384   1.726   1.886   9.132 -0.6326  0.6388  0.5137
   18SAPC  H11X 2385   1.796   1.844   9.208  0.2666  3.8193  1.5191
   18SAPC  H11Y 2386   1.737   1.995   9.118 -0.8913  0.3408 -2.1954
   18SAPC  C312 2387   1.766   1.814   8.992  0.1327  0.4012  0.1469
   18SAPC  H12X 2388   1.754   1.887   8.908 -3.4821  1.4356  1.4919
   18SAPC  H12Y 2389   1.700   1.725   8.990 -0.0812  0.5669 -0.1795
   18SAPC  C313 2390   1.906   1.750   8.983  0.1941 -0.0245 -0.3861
   18SAPC  H13X 2391   1.917   1.675   8.902 -0.4117 -0.2452 -0.2641
   18SAPC  H13Y 2392   1.935   1.696   9.076 -0.5803  0.6837  0.2864
   18SAPC  C314 2393   2.013   1.853   8.957 -0.4234  0.0114  0.5640
   18SAPC  H14X 2394   1.993   1.947   9.011 -1.7305  0.3559 -0.4856
   18SAPC  H14Y 2395   2.008   1.875   8.848  1.2522 -0.8813  0.2892
   18SAPC  C315 2396   2.151   1.806   9.005 -0.4852 -0.7985  0.1036
   18SAPC  H15X 2397   2.145   1.779   9.112  1.7780  1.7368  0.9336
   18SAPC  H15Y 2398   2.222   1.889   8.984 -1.8188 -0.5642 -3.9722
   18SAPC  C316 2399   2.204   1.689   8.921 -0.3405 -0.7305 -0.2425
   18SAPC  H16X 2400   2.130   1.608   8.937  0.0880 -0.9841  0.4991
   18SAPC  H16Y 2401   2.296   1.658   8.975 -1.0919 -0.9602  0.9308
   18SAPC  C317 2402   2.231   1.708   8.775 -0.0358 -0.3415 -0.2423
   18SAPC  H17X 2403   2.262   1.813   8.755 -1.4499 -0.0416 -0.9667
   18SAPC  H17Y 2404   2.139   1.698   8.713 -1.4009  0.3067  1.6403
   18SAPC  C318 2405   2.338   1.614   8.714  0.5520 -0.1087 -0.1762
   18SAPC  H18X 2406   2.319   1.609   8.605  0.6013  0.5092 -0.2163
   18SAPC  H18Y 2407   2.335   1.509   8.751 -0.2100 -0.2707 -0.6960
   18SAPC  H18Z 2408   2.439   1.657   8.732  1.0452 -0.2544 -2.4386
   19SAPC     N 2409   0.629   4.316  10.493 -0.8192 -0.1586 -0.3612
   19SAPC   C12 2410   0.627   4.462  10.514  0.4888 -0.2769 -0.4351
   19SAPC  H12A 2411   0.584   4.519  10.433 -1.1508 -1.0759 -0.1396
   19SAPC  H12B 2412   0.726   4.505  10.511  0.2481  0.2122 -2.0855
   19SAPC   C13 2413   0.714   4.256  10.596  0.0271 -0.1944  0.1591
   19SAPC  H13A 2414   0.674   4.266  10.696  2.2988 -0.7262  1.1736
   19SAPC  H13B 2415   0.720   4.148  10.601  0.6766 -0.0684  3.0925
   19SAPC  H13C 2416   0.816   4.292  10.594 -0.0468  0.0173  0.1385
   19SAPC   C14 2417   0.489   4.252  10.498 -0.3931  0.3820  0.0873
   19SAPC  H14A 2418   0.443   4.289  10.588  0.0777 -1.3144  1.0538
   19SAPC  H14B 2419   0.435   4.283  10.409  1.0932  2.4791 -0.1144
   19SAPC  H14C 2420   0.510   4.146  10.501  3.7552  1.1488  1.2820
   19SAPC   C15 2421   0.692   4.289  10.361  0.2569 -0.2522  0.5906
   19SAPC  H15A 2422   0.627   4.322  10.281 -0.6349 -0.2415  1.3068
   19SAPC  H15B 2423   0.783   4.344  10.344  1.0962 -1.4067  1.3119
   19SAPC  H15C 2424   0.713   4.184  10.362  1.2102 -0.0802 -1.2738
   19SAPC   C11 2425   0.552   4.513  10.644 -0.5421 -0.4649  0.0795
   19SAPC  H11A 2426   0.578   4.619  10.664 -2.8617 -0.1692  1.6888
   19SAPC  H11B 2427   0.597   4.456  10.728  0.5914  0.7089  0.2808
   19SAPC     P 2428   0.327   4.577  10.531  0.4949 -0.4266  0.3118
   19SAPC   O13 2429   0.241   4.492  10.446  0.8650 -0.5325 -0.0809
   19SAPC   O14 2430   0.258   4.684  10.609 -0.4165  0.5247  0.1476
   19SAPC   O12 2431   0.409   4.488  10.635 -0.1153 -1.2326 -0.3038
   19SAPC   O11 2432   0.435   4.644  10.444 -0.0233 -0.1883  0.0218
   19SAPC    C1 2433   0.463   4.782  10.412  0.3351 -0.1677 -0.4154
   19SAPC    HA 2434   0.398   4.857  10.462  1.6798  2.1284 -1.9961
   19SAPC    HB 2435   0.559   4.812  10.461 -0.4390 -0.1356  1.1021
   19SAPC    C2 2436   0.466   4.790  10.257 -0.3104 -0.0669  0.7143
   19SAPC    HS 2437   0.463   4.898  10.233 -0.2298  0.0967  1.4457
   19SAPC   O21 2438   0.343   4.743  10.194  0.1061  0.4059  0.1521
   19SAPC   C21 2439   0.228   4.785  10.240 -0.6019 -0.3330 -0.7022
   19SAPC   O22 2440   0.212   4.870  10.321  0.5534 -0.3827 -0.3833
   19SAPC   C22 2441   0.119   4.702  10.171  0.7560  0.4166 -0.2389
   19SAPC   H2R 2442   0.146   4.595  10.178  2.0457  0.7393 -0.1230
   19SAPC   H2S 2443   0.028   4.720  10.233  1.3137  1.8890  0.1777
   19SAPC    C3 2444   0.589   4.722  10.193 -0.1196  0.1531  0.4031
   19SAPC    HX 2445   0.613   4.619  10.227  0.4447  1.2627  3.5215
   19SAPC    HY 2446   0.677   4.775  10.236  1.3003 -2.3092  0.6673
   19SAPC   O31 2447   0.578   4.722  10.052 -0.1517  0.0757  0.2625
   19SAPC   C31 2448   0.517   4.614   9.998 -0.1636 -0.1686  0.2251
   19SAPC   O32 2449   0.468   4.519  10.055  0.7967  0.0359 -0.1688
   19SAPC   C32 2450   0.534   4.627   9.848  0.4417  0.6457 -0.3209
   19SAPC   H2X 2451   0.626   4.574   9.817  0.9257  1.9819 -1.2303
   19SAPC   H2Y 2452   0.550   4.736   9.829  1.1221  0.7016  0.5235
   19SAPC   C23 2453   0.101   4.734  10.024 -0.2500 -0.1129 -0.4813
   19SAPC   H3R 2454   0.019   4.670   9.986  0.9220 -0.4965 -2.4506
   19SAPC   H3S 2455   0.193   4.706   9.969  1.2600  0.8907  1.4601
   19SAPC   C24 2456   0.060   4.879   9.988  0.3933  0.1830  0.4740
   19SAPC   H4R 2457   0.054   4.890   9.878 -0.2455  0.8124  0.5710
   19SAPC   H4S 2458   0.133   4.953  10.028 -1.3137  2.1033  0.1306
   19SAPC   C25 2459  -0.079   4.909  10.048  0.1665  0.0699 -0.3852
   19SAPC   H5R 2460  -0.079   4.899  10.157 -0.8891 -0.3386 -0.4187
   19SAPC   C26 2461  -0.190   4.942   9.977  0.1731  1.1119 -1.1201
   19SAPC   H6R 2462  -0.289   4.939  10.025  0.3244 -0.4590 -0.8808
   19SAPC   C27 2463  -0.195   4.953   9.824  0.8204 -0.5175  0.6426
   19SAPC   H7R 2464  -0.203   4.854   9.775  5.5958  0.6279 -2.8272
   19SAPC   H7S 2465  -0.097   4.982   9.781  1.6110 -1.1204  1.9918
   19SAPC   C28 2466  -0.293   5.051   9.759 -0.0570 -0.0917  0.4062
   19SAPC   H8R 2467  -0.397   5.016   9.761 -0.6621  1.5597 -1.1692
   19SAPC   C29 2468  -0.262   5.172   9.708  0.2921  0.5489  0.9752
   19SAPC   H9R 2469  -0.338   5.231   9.655  0.1098  1.0010  1.7361
   19SAPC  C210 2470  -0.118   5.221   9.703  0.1987  0.2611 -0.0609
   19SAPC  H10R 2471  -0.060   5.149   9.642  0.4462  0.3882  0.0213
   19SAPC  H10S 2472  -0.075   5.215   9.806 -1.8388  0.2236  0.8105
   19SAPC  C211 2473  -0.088   5.359   9.645 -0.1232  0.3225  0.3264
   19SAPC  H11R 2474  -0.053   5.435   9.717 -1.8436 -1.2362  2.8856
   19SAPC  C212 2475  -0.120   5.404   9.525  0.7891  1.0526 -0.1368
   19SAPC  H12R 2476  -0.109   5.511   9.502  0.9270  0.6005 -2.3129
   19SAPC  C213 2477  -0.187   5.338   9.408  0.4582  0.7190  0.5841
   19SAPC  H13R 2478  -0.264   5.414   9.381  0.7857  2.0570  3.2123
   19SAPC  H13S 2479  -0.237   5.243   9.437 -0.2675  0.9847  0.2125
   19SAPC  C214 2480  -0.083   5.324   9.295  0.3681 -0.3270 -0.5044
   19SAPC  H14R 2481  -0.048   5.220   9.298  3.5000  0.6462 -1.6308
   19SAPC  C215 2482  -0.041   5.415   9.208  0.1692  0.3296  0.1119
   19SAPC  H15R 2483   0.045   5.391   9.143  1.1985 -0.5656  1.7833
   19SAPC  C216 2484  -0.097   5.559   9.210 -0.9308  0.4362 -0.7050
   19SAPC  H16R 2485  -0.015   5.603   9.270  0.9137 -3.5806 -0.1078
   19SAPC  H16S 2486  -0.191   5.570   9.267  0.0056  0.8052  0.7689
   19SAPC  C217 2487  -0.105   5.609   9.064  0.0992  0.2361 -0.6336
   19SAPC  H17R 2488  -0.188   5.558   9.011 -0.8528 -0.5334  1.5290
   19SAPC  H17S 2489  -0.015   5.583   9.005 -0.2455  2.2248 -2.0838
   19SAPC  C218 2490  -0.137   5.755   9.046  0.4544  0.1860 -0.0496
   19SAPC  H18R 2491  -0.054   5.816   9.088  0.4887  0.4752 -0.5399
   19SAPC  H18S 2492  -0.230   5.774   9.104  0.4928  0.8550 -0.2042
   19SAPC  C219 2493  -0.140   5.790   8.891 -0.1271  0.0779 -0.8561
   19SAPC  H19R 2494  -0.199   5.884   8.886  0.7432  0.5918 -1.6233
   19SAPC  H19S 2495  -0.182   5.706   8.832 -0.3454  1.8845 -3.3260
   19SAPC  C220 2496   0.006   5.825   8.850  0.4234  0.2458 -0.0561
   19SAPC  H20R 2497   0.056   5.726   8.847  0.3994  0.2707 -1.9242
   19SAPC  H20S 2498   0.062   5.898   8.912  1.6190  0.4519 -1.3606
   19SAPC  H20T 2499  -0.003   5.873   8.750  0.0708  0.4170  0.0542
   19SAPC   C33 2500   0.418   4.583   9.760 -0.2355  0.1262  0.8784
   19SAPC   H3X 2501   0.323   4.637   9.783 -1.9100 -1.9732 -0.8580
   19SAPC   H3Y 2502   0.402   4.474   9.773 -2.0091  0.1347 -0.9864
   19SAPC   C34 2503   0.450   4.610   9.614 -0.8192  0.0059  0.3972
   19SAPC   H4X 2504   0.549   4.566   9.590 -2.1595 -2.6167 -0.5505
   19SAPC   H4Y 2505   0.459   4.716   9.583 -0.7909 -0.2891 -0.6183
   19SAPC   C35 2506   0.344   4.553   9.526  0.2577 -0.0767  0.0681
   19SAPC   H5X 2507   0.247   4.606   9.540  0.9189  1.8765 -2.5433
   19SAPC   H5Y 2508   0.331   4.443   9.539 -0.4883  0.3765  3.9758
   19SAPC   C36 2509   0.373   4.584   9.379  0.3314 -0.3705 -0.5065
   19SAPC   H6X 2510   0.290   4.543   9.316 -1.7971  0.5921  1.5765
   19SAPC   H6Y 2511   0.471   4.541   9.350 -0.1457 -1.2879 -0.7891
   19SAPC   C37 2512   0.361   4.733   9.333  0.1071  0.0345 -0.0610
   19SAPC   H7X 2513   0.428   4.805   9.384 -1.0020 -0.3156  1.9595
   19SAPC   H7Y 2514   0.256   4.762   9.352  0.4992  0.0315  2.2293
   19SAPC   C38 2515   0.380   4.751   9.178 -0.5563  0.4962  0.5423
   19SAPC   H8X 2516   0.347   4.851   9.143 -0.5602 -0.7159 -3.0771
   19SAPC   H8Y 2517   0.326   4.677   9.116  1.6462 -2.7142  2.2963
   19SAPC   C39 2518   0.534   4.732   9.141  0.0386  0.5050 -0.7602
   19SAPC   H9X 2519   0.578   4.639   9.182 -0.5082  0.6064  0.0668
   19SAPC   H9Y 2520   0.587   4.817   9.188 -3.1293  2.7110 -0.9703
   19SAPC  C310 2521   0.557   4.740   8.990  0.2050  0.2199 -0.2946
   19SAPC  H10X 2522   0.519   4.644   8.949 -1.9047 -0.1886  2.4894
   19SAPC  H10Y 2523   0.668   4.741   8.980  0.1826 -0.3218 -0.6121
   19SAPC  C311 2524   0.504   4.861   8.909 -0.0700 -0.0710 -0.2873
   19SAPC  H11X 2525   0.568   4.949   8.931  0.7630 -0.2265 -2.0445
   19SAPC  H11Y 2526   0.397   4.878   8.934  0.1604  1.0679 -0.0492
   19SAPC  C312 2527   0.508   4.818   8.760  0.1769  0.7205  0.2835
   19SAPC  H12X 2528   0.440   4.734   8.734  0.9918 -1.0633  3.6963
   19SAPC  H12Y 2529   0.617   4.801   8.749 -0.2273 -0.6961 -1.6587
   19SAPC  C313 2530   0.478   4.938   8.667 -0.0254  0.7051 -0.2808
   19SAPC  H13X 2531   0.523   4.922   8.567  0.2055  0.9370 -0.2185
   19SAPC  H13Y 2532   0.520   5.033   8.708 -3.5798  0.4773  4.3371
   19SAPC  C314 2533   0.329   4.965   8.652 -0.1343 -0.5271 -0.2110
   19SAPC  H14X 2534   0.277   4.984   8.748  1.2209 -0.4741  0.5279
   19SAPC  H14Y 2535   0.286   4.864   8.631  0.9221 -1.0169 -0.0554
   19SAPC  C315 2536   0.290   5.072   8.547  0.8230  0.1930  0.5169
   19SAPC  H15X 2537   0.382   5.113   8.500  0.4794  3.1240  2.2489
   19SAPC  H15Y 2538   0.229   5.146   8.604  2.1092 -0.0794  2.2928
   19SAPC  C316 2539   0.188   5.017   8.444  0.7996  0.1295  0.0229
   19SAPC  H16X 2540   0.098   4.984   8.500  0.7735 -0.4352 -0.3517
   19SAPC  H16Y 2541   0.240   4.946   8.377 -2.1697 -0.9394 -1.2010
   19SAPC  C317 2542   0.143   5.128   8.356  0.2481  0.5236  0.5418
   19SAPC  H17X 2543   0.229   5.164   8.295  0.0787 -1.2191 -0.7978
   19SAPC  H17Y 2544   0.098   5.211   8.414 -1.4568  0.5321 -0.7323
   19SAPC  C318 2545   0.037   5.078   8.251  0.0816  0.3059  1.0127
   19SAPC  H18X 2546  -0.009   5.157   8.187 -0.5859 -0.8154  0.0766
   19SAPC  H18Y 2547  -0.043   5.023   8.305  0.4868 -1.2830  0.0289
   19SAPC  H18Z 2548   0.080   5.004   8.180 -0.3773  1.6420 -0.7100
   20SAPC     N 2549   6.730   1.007  11.150  0.8569 -0.0705 -0.2464
   20SAPC   C12 2550   6.742   1.073  11.015 -0.3762  0.8266  0.2507
   20SAPC  H12A 2551   6.766   1.178  11.025  1.0816  0.5873 -0.6139
   20SAPC  H12B 2552   6.645   1.074  10.967 -0.1434  1.7480 -0.2052
   20SAPC   C13 2553   6.870   0.993  11.212 -0.4507 -0.0732  0.1191
   20SAPC  H13A 2554   6.930   0.922  11.157 -1.9073  0.5006 -2.2975
   20SAPC  H13B 2555   6.930   1.082  11.221  1.0374 -1.2955  2.9309
   20SAPC  H13C 2556   6.855   0.967  11.316 -0.0231  0.3308  0.2823
   20SAPC   C14 2557   6.647   1.099  11.241  0.3313 -0.1514  0.3097
   20SAPC  H14A 2558   6.543   1.095  11.213 -0.1990  3.2988  1.5258
   20SAPC  H14B 2559   6.668   1.084  11.346  3.1919  3.8104  0.4140
   20SAPC  H14C 2560   6.678   1.201  11.222  1.7369 -0.7416 -0.6446
   20SAPC   C15 2561   6.669   0.864  11.137  0.7892  0.1536 -0.0335
   20SAPC  H15A 2562   6.561   0.869  11.134  0.7675 -0.8204 -1.5867
   20SAPC  H15B 2563   6.703   0.807  11.052 -0.5702  0.3181 -0.7026
   20SAPC  H15C 2564   6.709   0.804  11.218  0.3363  0.2409  0.2596
   20SAPC   C11 2565   6.823   1.009  10.898 -0.4914 -0.0088  0.7158
   20SAPC  H11A 2566   6.928   1.019  10.934  0.2964  0.1231 -1.5323
   20SAPC  H11B 2567   6.827   1.070  10.805 -1.1599  1.9054  1.9074
   20SAPC     P 2568   6.897   0.762  10.883  0.1364 -0.5267  0.4046
   20SAPC   O13 2569   6.964   0.772  11.014 -0.9867  0.5672  0.4290
   20SAPC   O14 2570   6.842   0.631  10.844  0.2953  0.0762  0.3658
   20SAPC   O12 2571   6.779   0.870  10.879 -0.0073 -0.0953 -0.2400
   20SAPC   O11 2572   6.992   0.817  10.778  0.5488 -0.5536 -0.0724
   20SAPC    C1 2573   7.106   0.738  10.740  0.1103 -0.6295  0.0589
   20SAPC    HA 2574   7.197   0.788  10.782 -0.4738 -0.4321  1.1087
   20SAPC    HB 2575   7.116   0.634  10.777 -2.9988 -0.9675  0.0684
   20SAPC    C2 2576   7.127   0.729  10.583  0.0272  0.1680  0.0840
   20SAPC    HS 2577   7.234   0.709  10.560  0.5471  2.4941  0.2836
   20SAPC   O21 2578   7.080   0.846  10.513 -0.7607 -0.3742 -0.4749
   20SAPC   C21 2579   7.130   0.963  10.529 -0.1868  0.2052 -0.2348
   20SAPC   O22 2580   7.227   0.992  10.593  0.0052  0.4578 -0.5594
   20SAPC   C22 2581   7.054   1.066  10.446 -0.9527 -0.1928  0.9445
   20SAPC   H2R 2582   6.964   1.080  10.511 -1.4886 -0.3610  0.2415
   20SAPC   H2S 2583   7.114   1.158  10.436 -2.6404  0.8902  0.5541
   20SAPC    C3 2584   7.042   0.604  10.533 -0.3196  0.1678  0.0826
   20SAPC    HX 2585   6.934   0.626  10.547 -0.3286  1.8797 -2.3650
   20SAPC    HY 2586   7.073   0.513  10.588  0.6592 -1.1182 -2.5414
   20SAPC   O31 2587   7.087   0.589  10.397 -0.7740 -0.0466  0.2068
   20SAPC   C31 2588   7.002   0.627  10.306 -0.2263  0.7823  0.2079
   20SAPC   O32 2589   6.894   0.682  10.318  0.1344  0.5315 -0.4562
   20SAPC   C32 2590   7.049   0.585  10.166 -0.2600 -0.2396 -0.6855
   20SAPC   H2X 2591   7.071   0.476  10.171 -0.0500 -0.1248  1.1029
   20SAPC   H2Y 2592   7.149   0.627  10.144 -0.0333  0.1776  1.1318
   20SAPC   C23 2593   7.001   1.021  10.306 -0.5974  0.2087  0.3535
   20SAPC   H3R 2594   6.945   1.105  10.260  2.8163  3.0607  1.1320
   20SAPC   H3S 2595   6.932   0.938  10.329 -0.0206 -1.0810 -2.3930
   20SAPC   C24 2596   7.108   0.979  10.200 -0.2933  0.0206  0.0285
   20SAPC   H4R 2597   7.064   0.905  10.131  1.6500 -1.6777  0.5587
   20SAPC   H4S 2598   7.184   0.918  10.255  0.7235  0.4077 -0.9270
   20SAPC   C25 2599   7.177   1.094  10.125  0.5350  0.3990  0.1549
   20SAPC   H5R 2600   7.235   1.155  10.196  1.8053 -0.5595 -0.0595
   20SAPC   C26 2601   7.173   1.121   9.992 -0.4886 -0.1570  0.2020
   20SAPC   H6R 2602   7.237   1.202   9.953  0.4030 -0.6927  0.5465
   20SAPC   C27 2603   7.103   1.039   9.889 -0.3575 -0.0451  0.7525
   20SAPC   H7R 2604   7.056   0.951   9.936  0.5682  0.2979  2.3687
   20SAPC   H7S 2605   7.159   0.990   9.807 -0.9416  0.1097  0.2565
   20SAPC   C28 2606   7.001   1.120   9.819 -0.5408 -0.8685  0.4649
   20SAPC   H8R 2607   6.922   1.154   9.888 -0.2700  0.8715 -0.0491
   20SAPC   C29 2608   6.987   1.145   9.687 -0.5517 -0.3116  0.1541
   20SAPC   H9R 2609   6.904   1.214   9.665  0.4261  0.9289  0.2823
   20SAPC  C210 2610   7.079   1.117   9.570  0.3838 -0.2273  0.3988
   20SAPC  H10R 2611   7.021   1.060   9.494  1.8333 -0.0547 -0.8579
   20SAPC  H10S 2612   7.156   1.049   9.612  0.5407 -0.3972 -0.1648
   20SAPC  C211 2613   7.148   1.236   9.510  0.8916 -0.3270  0.5827
   20SAPC  H11R 2614   7.215   1.302   9.569  2.1990  0.1089 -1.3509
   20SAPC  C212 2615   7.157   1.265   9.378  0.1309  0.0367  0.1684
   20SAPC  H12R 2616   7.215   1.354   9.350 -2.3411  0.7689 -2.8373
   20SAPC  C213 2617   7.103   1.178   9.264 -0.1153 -0.6599  0.0939
   20SAPC  H13R 2618   6.992   1.181   9.261 -0.2542 -2.8210  1.5130
   20SAPC  H13S 2619   7.124   1.071   9.285  0.4262 -0.4747  0.5234
   20SAPC  C214 2620   7.178   1.222   9.141 -1.0122  0.4524  0.1296
   20SAPC  H14R 2621   7.286   1.204   9.132 -1.0775  0.9908 -2.0109
   20SAPC  C215 2622   7.117   1.281   9.041 -0.1435 -0.4392  0.0296
   20SAPC  H15R 2623   7.183   1.317   8.961  0.3320  0.7429  0.9371
   20SAPC  C216 2624   6.971   1.315   9.028  0.0931 -0.0759 -0.8782
   20SAPC  H16R 2625   6.953   1.424   9.018  1.1194  0.4471  2.4668
   20SAPC  H16S 2626   6.914   1.284   9.119  0.8532 -0.9226 -0.6813
   20SAPC  C217 2627   6.893   1.247   8.914 -0.0718  0.7036  0.1505
   20SAPC  H17R 2628   6.917   1.138   8.919 -0.7681  0.3881 -2.4682
   20SAPC  H17S 2629   6.938   1.282   8.819  0.2976 -1.9100 -0.6995
   20SAPC  C218 2630   6.741   1.266   8.922 -0.0401  0.2700 -0.7955
   20SAPC  H18R 2631   6.717   1.373   8.940 -1.0813  0.0692 -0.9531
   20SAPC  H18S 2632   6.699   1.213   9.010  1.5704  0.7092  0.2656
   20SAPC  C219 2633   6.678   1.207   8.798 -0.3015 -0.8593 -0.5490
   20SAPC  H19R 2634   6.667   1.096   8.805 -3.1469 -0.5692  0.4195
   20SAPC  H19S 2635   6.725   1.241   8.704 -0.0666  0.5301  0.0555
   20SAPC  C220 2636   6.540   1.262   8.785 -0.7718 -0.6155  0.3183
   20SAPC  H20R 2637   6.534   1.372   8.773 -3.6693 -0.6969  0.6194
   20SAPC  H20S 2638   6.480   1.228   8.872  1.0836 -0.4530  1.6932
   20SAPC  H20T 2639   6.487   1.211   8.702 -1.1164  0.7111 -0.2892
   20SAPC   C33 2640   6.955   0.613  10.050  0.4347  0.4125  0.1815
   20SAPC   H3X 2641   6.920   0.718  10.059 -0.7826 -0.0247  0.7750
   20SAPC   H3Y 2642   6.870   0.543  10.066 -0.3039  1.2696  0.0014
   20SAPC   C34 2643   7.018   0.597   9.921 -0.1384  0.3003  0.0025
   20SAPC   H4X 2644   7.033   0.491   9.891 -4.2696 -0.4471  0.2406
   20SAPC   H4Y 2645   7.108   0.659   9.900  0.5576  0.0019  2.0013
   20SAPC   C35 2646   6.914   0.642   9.819  0.9202  0.5342  1.1888
   20SAPC   H5X 2647   6.890   0.750   9.830  1.8285  0.7804  0.7766
   20SAPC   H5Y 2648   6.820   0.587   9.841  1.1463 -0.5284 -0.3758
   20SAPC   C36 2649   6.951   0.614   9.669  0.1106 -0.3163  0.0022
   20SAPC   H6X 2650   6.851   0.618   9.620  0.7812 -1.3199 -1.4802
   20SAPC   H6Y 2651   6.997   0.515   9.649  1.8741 -0.0914  2.7262
   20SAPC   C37 2652   7.053   0.714   9.608  0.4625 -0.1492  0.2227
   20SAPC   H7X 2653   7.132   0.728   9.684  1.6890 -1.2757 -0.8228
   20SAPC   H7Y 2654   6.988   0.804   9.596  1.4013  0.9923  3.3868
   20SAPC   C38 2655   7.102   0.685   9.467  0.1394 -0.9113 -0.1834
   20SAPC   H8X 2656   7.012   0.655   9.409  0.9696 -0.6625 -1.6400
   20SAPC   H8Y 2657   7.169   0.597   9.474  0.5305 -0.6597 -0.7516
   20SAPC   C39 2658   7.169   0.788   9.383 -0.2370  0.0241  0.7278
   20SAPC   H9X 2659   7.255   0.842   9.428 -0.1597  1.6234 -1.2808
   20SAPC   H9Y 2660   7.090   0.863   9.359 -1.6282 -2.5850 -3.2957
   20SAPC  C310 2661   7.220   0.733   9.250  0.7552  0.5752 -0.0593
   20SAPC  H10X 2662   7.135   0.676   9.206  0.1588  1.5785 -0.2140
   20SAPC  H10Y 2663   7.309   0.671   9.272  0.6454  0.0162 -1.1494
   20SAPC  C311 2664   7.258   0.842   9.155 -0.3274 -0.0528  0.1299
   20SAPC  H11X 2665   7.302   0.921   9.219 -1.0332 -0.1240  0.7083
   20SAPC  H11Y 2666   7.173   0.894   9.106  1.4931  1.3375 -1.6198
   20SAPC  C312 2667   7.359   0.799   9.047 -0.6898  0.3757  0.4978
   20SAPC  H12X 2668   7.315   0.718   8.985  0.2124 -0.3517  0.7998
   20SAPC  H12Y 2669   7.445   0.762   9.108 -0.9785  1.1990  1.4320
   20SAPC  C313 2670   7.410   0.908   8.947 -0.0824  0.0554  0.2316
   20SAPC  H13X 2671   7.504   0.885   8.893  0.0484  1.7313 -0.2720
   20SAPC  H13Y 2672   7.434   1.005   8.996  1.1905  0.2232 -0.6976
   20SAPC  C314 2673   7.305   0.949   8.838 -0.6110 -0.3066  0.0152
   20SAPC  H14X 2674   7.211   0.989   8.882 -1.2131 -0.0636 -1.4458
   20SAPC  H14Y 2675   7.279   0.851   8.792 -0.9219 -0.2383  0.0426
   20SAPC  C315 2676   7.350   1.051   8.732 -0.1593  0.2975 -0.7765
   20SAPC  H15X 2677   7.451   1.030   8.692  0.0000 -2.0271  0.7122
   20SAPC  H15Y 2678   7.349   1.157   8.764  1.0768 -0.3959  1.7085
   20SAPC  C316 2679   7.257   1.041   8.608 -0.2567  0.0218 -0.4985
   20SAPC  H16X 2680   7.232   0.933   8.599 -0.1581 -0.0931  0.4639
   20SAPC  H16Y 2681   7.303   1.079   8.515 -0.2763 -1.5993 -1.1843
   20SAPC  C317 2682   7.122   1.112   8.645  0.0754  0.1109 -0.2603
   20SAPC  H17X 2683   7.154   1.213   8.679 -2.2925  0.2320  1.7284
   20SAPC  H17Y 2684   7.071   1.062   8.730  0.7114  0.5354  0.3948
   20SAPC  C318 2685   7.029   1.133   8.521  0.3990 -0.1665 -0.2307
   20SAPC  H18X 2686   6.925   1.137   8.560  1.6462 -3.0475  3.7167
   20SAPC  H18Y 2687   7.037   1.043   8.456  1.7941  0.5297 -1.0453
   20SAPC  H18Z 2688   7.063   1.220   8.460 -0.8403  0.1353 -0.4971
   21SAPC     N 2689   6.628   6.635  10.688 -0.4057 -0.8020  0.2496
   21SAPC   C12 2690   6.740   6.666  10.785 -0.4575  0.4752  0.2226
   21SAPC  H12A 2691   6.814   6.587  10.778 -1.0518  0.0181 -1.0788
   21SAPC  H12B 2692   6.695   6.668  10.883  0.4491  1.4703  0.6252
   21SAPC   C13 2693   6.679   6.597  10.554 -0.2253  0.6850 -0.0711
   21SAPC  H13A 2694   6.758   6.523  10.559  1.1807  2.1187 -0.7567
   21SAPC  H13B 2695   6.605   6.575  10.479  0.2056  0.7589 -0.5245
   21SAPC  H13C 2696   6.742   6.679  10.522  1.8912 -0.8966 -0.1001
   21SAPC   C14 2697   6.545   6.518  10.736 -0.4131  0.0600 -0.3835
   21SAPC  H14A 2698   6.595   6.422  10.734  0.2757  0.4018  0.3414
   21SAPC  H14B 2699   6.515   6.534  10.838  1.2575  1.9643 -0.1578
   21SAPC  H14C 2700   6.450   6.509  10.685 -0.1695  0.2714 -0.8809
   21SAPC   C15 2701   6.535   6.749  10.678 -0.2853 -0.0089 -0.6681
   21SAPC  H15A 2702   6.593   6.839  10.668 -3.1995  2.4668  3.2700
   21SAPC  H15B 2703   6.468   6.741  10.594  0.6375  1.7495 -1.5809
   21SAPC  H15C 2704   6.485   6.766  10.773  0.3222 -0.6782 -0.2212
   21SAPC   C11 2705   6.806   6.801  10.772 -0.0449  0.6169  0.6056
   21SAPC  H11A 2706   6.887   6.815  10.846  1.1438  1.5198 -0.8209
   21SAPC  H11B 2707   6.729   6.881  10.785  0.0788  1.4648 -3.0504
   21SAPC     P 2708   6.992   6.754  10.614  0.1759 -0.2742 -0.2463
   21SAPC   O13 2709   7.018   6.633  10.689  0.1722 -0.1760  0.2349
   21SAPC   O14 2710   7.004   6.739  10.468  0.0049  0.5860  0.0004
   21SAPC   O12 2711   6.848   6.815  10.636 -0.0985  0.1691  0.5413
   21SAPC   O11 2712   7.091   6.864  10.670 -0.3129  0.2299 -0.1875
   21SAPC    C1 2713   7.061   7.001  10.635 -0.0979  0.6058 -1.3923
   21SAPC    HA 2714   6.956   7.035  10.620 -0.7815 -0.0502  1.4389
   21SAPC    HB 2715   7.089   7.070  10.718  0.9624  0.1517 -1.3710
   21SAPC    C2 2716   7.143   7.059  10.513 -0.0764  0.4941  0.4114
   21SAPC    HS 2717   7.127   7.169  10.508  1.1488  0.7164  1.2094
   21SAPC   O21 2718   7.104   6.999  10.388 -0.3922 -0.3337  0.4678
   21SAPC   C21 2719   6.996   7.052  10.334 -0.0252 -0.3948 -0.0016
   21SAPC   O22 2720   6.938   7.154  10.380 -0.3949  0.1737 -0.2002
   21SAPC   C22 2721   6.943   6.963  10.224 -0.3692 -1.0455 -0.4028
   21SAPC   H2R 2722   7.029   6.917  10.171 -0.3186 -1.2104 -0.1820
   21SAPC   H2S 2723   6.907   6.876  10.283  0.4502 -0.9407  0.2665
   21SAPC    C3 2724   7.293   7.041  10.538  0.1591 -0.2003  0.0410
   21SAPC    HX 2725   7.321   6.934  10.549 -0.6574 -0.4978 -0.7017
   21SAPC    HY 2726   7.315   7.094  10.633  1.7029 -0.7149 -0.0172
   21SAPC   O31 2727   7.361   7.113  10.432  0.3653 -0.5330  0.0714
   21SAPC   C31 2728   7.385   7.049  10.325 -0.2888  0.1852  0.0005
   21SAPC   O32 2729   7.360   6.929  10.295  0.1436 -0.2880 -0.4705
   21SAPC   C32 2730   7.418   7.149  10.214  0.3869 -0.7428 -0.2367
   21SAPC   H2X 2731   7.521   7.185  10.235  0.2730  0.6029 -1.8973
   21SAPC   H2Y 2732   7.351   7.234  10.237  2.1427  1.0969 -1.7335
   21SAPC   C23 2733   6.844   7.021  10.123  0.2026  0.3397  0.7300
   21SAPC   H3R 2734   6.847   7.132  10.134  0.7572  0.3695  0.3178
   21SAPC   H3S 2735   6.740   6.996  10.154 -0.4334  1.0446 -0.7746
   21SAPC   C24 2736   6.868   6.966   9.979 -0.1209  0.3142 -0.8171
   21SAPC   H4R 2737   6.783   6.992   9.911 -0.1647  2.2494 -0.0644
   21SAPC   H4S 2738   6.870   6.856   9.990 -1.7946  0.4299  0.9688
   21SAPC   C25 2739   6.985   7.024   9.899  0.3661 -0.4601  0.4728
   21SAPC   H5R 2740   7.072   7.031   9.966  1.0007  1.1131 -0.5022
   21SAPC   C26 2741   7.005   7.046   9.767  0.3362  0.5802  0.3182
   21SAPC   H6R 2742   7.091   7.111   9.742  0.2013  0.4837 -0.3992
   21SAPC   C27 2743   6.911   7.020   9.654 -0.2946  0.4411  0.0133
   21SAPC   H7R 2744   6.922   7.110   9.589  1.4162 -0.9694 -1.7150
   21SAPC   H7S 2745   6.808   7.015   9.697 -0.3474 -1.2039 -0.2856
   21SAPC   C28 2746   6.921   6.894   9.574 -0.1947 -0.3219  0.0046
   21SAPC   H8R 2747   6.894   6.800   9.625 -0.6343  0.8295  1.9517
   21SAPC   C29 2748   6.945   6.886   9.447 -0.4059  0.2641  0.7624
   21SAPC   H9R 2749   6.950   6.788   9.397  0.1628  0.8838 -0.4295
   21SAPC  C210 2750   6.971   7.000   9.350 -0.5276  0.3191 -0.1588
   21SAPC  H10R 2751   7.059   7.061   9.379 -0.9791  0.8694  0.0745
   21SAPC  H10S 2752   6.884   7.070   9.346 -0.9911 -0.2404  0.0221
   21SAPC  C211 2753   7.005   6.961   9.211 -0.7530  0.0607 -0.0088
   21SAPC  H11R 2754   7.046   6.859   9.211  1.8274  1.0184  1.9120
   21SAPC  C212 2755   6.981   7.019   9.091 -0.4896 -0.0673  0.3169
   21SAPC  H12R 2756   7.023   6.978   8.997 -1.9454 -1.1801  0.1154
   21SAPC  C213 2757   6.907   7.149   9.072 -0.1261 -0.4952 -0.4915
   21SAPC  H13R 2758   6.983   7.230   9.084 -1.9796  1.3590 -0.9805
   21SAPC  H13S 2759   6.835   7.170   9.154  1.8865  1.4296  0.8592
   21SAPC  C214 2760   6.849   7.139   8.943  0.5852 -0.7989 -0.0721
   21SAPC  H14R 2761   6.757   7.078   8.939 -1.7755  2.6154  0.1226
   21SAPC  C215 2762   6.897   7.186   8.825 -0.2185  0.2627 -0.1363
   21SAPC  H15R 2763   6.846   7.162   8.730 -0.2456  0.3363 -0.1409
   21SAPC  C216 2764   7.025   7.268   8.810 -0.1047  0.2159 -0.4547
   21SAPC  H16R 2765   7.112   7.200   8.796 -1.1828 -1.2528 -0.1453
   21SAPC  H16S 2766   7.048   7.319   8.907 -1.3063 -1.3749  0.6956
   21SAPC  C217 2767   7.013   7.382   8.706 -0.2229 -0.0864 -0.1613
   21SAPC  H17R 2768   6.972   7.352   8.607 -0.0061 -0.6544 -0.0818
   21SAPC  H17S 2769   7.116   7.419   8.688 -0.5756  0.2154 -1.6377
   21SAPC  C218 2770   6.922   7.501   8.748  1.1021  0.6976 -0.3757
   21SAPC  H18R 2771   6.957   7.546   8.843  0.7244  0.4075 -0.0971
   21SAPC  H18S 2772   6.820   7.462   8.771 -0.5816  4.0531 -1.8720
   21SAPC  C219 2773   6.912   7.612   8.643  0.0718  0.9830  1.1532
   21SAPC  H19R 2774   6.868   7.569   8.551  0.2893 -0.2494  1.6062
   21SAPC  H19S 2775   7.014   7.650   8.624 -0.9411  1.8714 -3.0266
   21SAPC  C220 2776   6.827   7.719   8.693 -0.1030  0.2375 -0.3731
   21SAPC  H20R 2777   6.809   7.808   8.629 -0.1739 -0.7678 -1.7598
   21SAPC  H20S 2778   6.863   7.758   8.791 -0.5476 -0.3712  0.0338
   21SAPC  H20T 2779   6.726   7.675   8.706 -0.6260  1.1647 -1.2412
   21SAPC   C33 2780   7.389   7.104  10.071 -0.4868  0.3492 -0.6692
   21SAPC   H3X 2781   7.285   7.067  10.065 -0.3899  0.1858 -1.4544
   21SAPC   H3Y 2782   7.458   7.020  10.048 -0.7479 -0.1626  0.3856
   21SAPC   C34 2783   7.396   7.215   9.967 -0.2173 -0.2987  0.7340
   21SAPC   H4X 2784   7.494   7.269   9.973 -0.8499  0.8500  0.9375
   21SAPC   H4Y 2785   7.322   7.297   9.982  0.1182  0.3427 -1.0234
   21SAPC   C35 2786   7.380   7.169   9.825  0.7582  0.6193  0.1038
   21SAPC   H5X 2787   7.291   7.104   9.812  0.2947  1.2403  0.1636
   21SAPC   H5Y 2788   7.475   7.117   9.800  0.9891  0.8659  0.4743
   21SAPC   C36 2789   7.368   7.279   9.721 -0.0046 -0.8307  0.0818
   21SAPC   H6X 2790   7.433   7.362   9.756 -0.0700 -0.2497 -1.1565
   21SAPC   H6Y 2791   7.264   7.317   9.712 -0.1056 -1.0677  0.2368
   21SAPC   C37 2792   7.414   7.234   9.578 -0.1635  0.1801  0.2204
   21SAPC   H7X 2793   7.512   7.184   9.590 -0.2953 -0.0396  0.3695
   21SAPC   H7Y 2794   7.431   7.326   9.517 -1.8932 -0.8457 -1.8431
   21SAPC   C38 2795   7.301   7.156   9.515 -1.0377  0.3726  0.0400
   21SAPC   H8X 2796   7.217   7.226   9.496 -0.1872  1.7378  1.1739
   21SAPC   H8Y 2797   7.267   7.071   9.578 -2.2770  0.6374 -0.2601
   21SAPC   C39 2798   7.339   7.088   9.382 -0.3541 -0.5185 -1.2194
   21SAPC   H9X 2799   7.288   6.990   9.365 -0.0836 -0.9790  0.5498
   21SAPC   H9Y 2800   7.443   7.048   9.379 -1.0764 -2.4344 -1.2313
   21SAPC  C310 2801   7.333   7.180   9.258 -0.7926 -0.5756  0.0019
   21SAPC  H10X 2802   7.383   7.269   9.301  1.3606 -1.7906  0.0714
   21SAPC  H10Y 2803   7.228   7.210   9.238 -0.8919 -0.3590  0.8034
   21SAPC  C311 2804   7.415   7.138   9.129  0.1003  0.8394 -0.1256
   21SAPC  H11X 2805   7.370   7.056   9.068 -0.9128  0.8015  0.6639
   21SAPC  H11Y 2806   7.512   7.098   9.164 -1.3221 -0.7958  2.1253
   21SAPC  C312 2807   7.434   7.262   9.035  0.3730  0.1045 -0.1720
   21SAPC  H12X 2808   7.485   7.353   9.073  1.1932 -1.2343  2.0071
   21SAPC  H12Y 2809   7.332   7.296   9.007  1.2382  1.4074 -1.8614
   21SAPC  C313 2810   7.506   7.223   8.898  0.5769 -0.4958  0.7651
   21SAPC  H13X 2811   7.446   7.152   8.837  0.8653  1.3051 -1.7128
   21SAPC  H13Y 2812   7.603   7.176   8.923 -0.6699 -3.6045 -0.0043
   21SAPC  C314 2813   7.525   7.350   8.819 -0.4891  0.5327  0.3383
   21SAPC  H14X 2814   7.596   7.420   8.868  0.5217 -0.5972  0.4995
   21SAPC  H14Y 2815   7.424   7.395   8.807  0.2229  1.2463 -3.4899
   21SAPC  C315 2816   7.578   7.321   8.678 -0.3799  0.6124 -0.7894
   21SAPC  H15X 2817   7.493   7.285   8.616 -0.2332 -1.2424  0.0512
   21SAPC  H15Y 2818   7.651   7.237   8.678  0.4893  1.3580 -1.0829
   21SAPC  C316 2819   7.616   7.459   8.610 -0.0652  0.0876 -0.3038
   21SAPC  H16X 2820   7.663   7.434   8.512 -0.7323 -1.1885 -0.3083
   21SAPC  H16Y 2821   7.683   7.513   8.682  0.7295  0.8557 -1.6018
   21SAPC  C317 2822   7.492   7.541   8.582 -0.1700  0.0271  0.5362
   21SAPC  H17X 2823   7.528   7.636   8.536 -1.4375  0.1625 -0.1982
   21SAPC  H17Y 2824   7.439   7.578   8.672 -0.7613  2.8722 -0.9084
   21SAPC  C318 2825   7.384   7.496   8.489 -0.0671  0.0649 -0.4720
   21SAPC  H18X 2826   7.334   7.406   8.531  0.2893 -0.5560 -1.3630
   21SAPC  H18Y 2827   7.438   7.463   8.397 -1.3869 -2.7673 -0.2937
   21SAPC  H18Z 2828   7.307   7.573   8.468  0.2606  0.5059 -0.0639
   22SAPC     N 2829   6.626   5.275  11.080 -0.6122 -0.6452  0.1856
   22SAPC   C12 2830   6.515   5.255  10.973 -0.4440 -0.5630  0.1404
   22SAPC  H12A 2831   6.448   5.340  10.971  0.8633  0.4744 -1.7322
   22SAPC  H12B 2832   6.463   5.169  11.011 -1.4443 -0.1457 -0.2641
   22SAPC   C13 2833   6.712   5.399  11.049 -0.0963  0.3565 -0.3086
   22SAPC  H13A 2834   6.655   5.491  11.043  0.5215  0.6517 -1.7406
   22SAPC  H13B 2835   6.788   5.422  11.123 -0.2625  0.7823 -0.2697
   22SAPC  H13C 2836   6.772   5.377  10.962 -0.3573 -2.4885  0.1858
   22SAPC   C14 2837   6.559   5.296  11.214  0.2287  0.1041  0.3404
   22SAPC  H14A 2838   6.609   5.242  11.294 -0.7298 -1.4041 -0.0413
   22SAPC  H14B 2839   6.552   5.400  11.241  0.1308  0.7929 -2.2829
   22SAPC  H14C 2840   6.458   5.256  11.217  0.1545  0.3437  1.4175
   22SAPC   C15 2841   6.718   5.158  11.092 -0.1069 -0.0616 -0.1876
   22SAPC  H15A 2842   6.673   5.063  11.118  0.8491 -0.7414 -0.9961
   22SAPC  H15B 2843   6.756   5.148  10.992  0.1720  2.3918 -0.3536
   22SAPC  H15C 2844   6.799   5.169  11.164  0.1684 -1.0959 -0.3341
   22SAPC   C11 2845   6.569   5.230  10.829 -0.2754  0.4455 -0.4668
   22SAPC  H11A 2846   6.649   5.301  10.801 -0.7975  0.6776 -1.3967
   22SAPC  H11B 2847   6.497   5.244  10.745 -0.4241 -0.6206 -0.5194
   22SAPC     P 2848   6.565   4.963  10.826  0.1659  0.3080 -0.2344
   22SAPC   O13 2849   6.650   4.849  10.870  0.8091  0.4177  0.0984
   22SAPC   O14 2850   6.438   4.977  10.901 -0.1927 -0.2311 -0.2304
   22SAPC   O12 2851   6.633   5.099  10.818  0.2957 -0.0551 -0.4622
   22SAPC   O11 2852   6.529   4.945  10.675  0.0858  0.0095  0.4389
   22SAPC    C1 2853   6.412   4.982  10.603 -0.5355 -0.0754 -0.1328
   22SAPC    HA 2854   6.332   4.905  10.601 -1.3740  0.6468  2.2792
   22SAPC    HB 2855   6.356   5.067  10.649 -1.5122 -0.3186 -0.8687
   22SAPC    C2 2856   6.447   5.026  10.461  0.5125 -0.1240 -0.0064
   22SAPC    HS 2857   6.365   5.088  10.419  0.8117  0.0120 -0.3948
   22SAPC   O21 2858   6.468   4.908  10.381 -0.2134  0.2861 -0.5900
   22SAPC   C21 2859   6.386   4.893  10.272  0.6282  0.6819  0.0832
   22SAPC   O22 2860   6.302   4.973  10.238  0.1549  0.0858 -0.0565
   22SAPC   C22 2861   6.399   4.747  10.212 -0.5871 -0.3179  0.0247
   22SAPC   H2R 2862   6.508   4.738  10.192  0.1886  3.6641  2.0284
   22SAPC   H2S 2863   6.366   4.677  10.292 -0.5438 -0.5000 -0.1170
   22SAPC    C3 2864   6.584   5.108  10.452  0.1192 -0.1998 -0.0351
   22SAPC    HX 2865   6.657   5.051  10.513 -0.4861  2.5732  3.4572
   22SAPC    HY 2866   6.573   5.201  10.511 -0.7267 -0.0724 -0.3902
   22SAPC   O31 2867   6.618   5.134  10.311 -0.2000 -0.3921  0.1876
   22SAPC   C31 2868   6.556   5.244  10.252 -0.7045  0.8841 -0.1221
   22SAPC   O32 2869   6.484   5.319  10.310  0.0537  0.5232  0.5232
   22SAPC   C32 2870   6.604   5.247  10.104 -0.2333 -0.3751  0.3424
   22SAPC   H2X 2871   6.535   5.185  10.043 -2.0660  1.5422  0.4470
   22SAPC   H2Y 2872   6.708   5.209  10.115  0.4188  1.1674 -0.2622
   22SAPC   C23 2873   6.307   4.725  10.085  0.4144  0.3579 -0.3214
   22SAPC   H3R 2874   6.325   4.812  10.018 -0.3916 -0.0175 -1.0261
   22SAPC   H3S 2875   6.202   4.740  10.118 -0.1646 -0.3530 -1.8254
   22SAPC   C24 2876   6.335   4.594  10.018 -0.7190 -0.6863 -0.3943
   22SAPC   H4R 2877   6.257   4.575   9.941  1.9288 -1.4258 -2.9678
   22SAPC   H4S 2878   6.322   4.522  10.102  1.5352 -0.5292  0.1213
   22SAPC   C25 2879   6.474   4.573   9.954  0.1155  0.2830 -0.1272
   22SAPC   H5R 2880   6.563   4.603  10.011 -0.2628  2.8160 -0.8180
   22SAPC   C26 2881   6.488   4.534   9.825 -0.8907  0.3012 -0.2648
   22SAPC   H6R 2882   6.591   4.542   9.786 -0.4475 -0.1649  0.7954
   22SAPC   C27 2883   6.383   4.509   9.719 -0.4223 -0.0246  0.8981
   22SAPC   H7R 2884   6.281   4.503   9.764 -2.0268  2.1304 -2.2319
   22SAPC   H7S 2885   6.381   4.405   9.680 -0.3540  0.2913  0.0223
   22SAPC   C28 2886   6.395   4.619   9.613 -0.3920 -0.1564 -0.2216
   22SAPC   H8R 2887   6.453   4.704   9.653 -1.4060  0.7743 -0.7139
   22SAPC   C29 2888   6.323   4.619   9.500  0.5884 -1.1017 -0.1613
   22SAPC   H9R 2889   6.327   4.714   9.444  0.2851 -1.9526 -1.6409
   22SAPC  C210 2890   6.223   4.521   9.450  0.3554  0.1585  0.5002
   22SAPC  H10R 2891   6.121   4.536   9.492  0.4215 -0.0164  0.7259
   22SAPC  H10S 2892   6.252   4.420   9.486  0.3053 -0.6478 -1.6126
   22SAPC  C211 2893   6.212   4.510   9.301  0.0136 -0.1137  0.3377
   22SAPC  H11R 2894   6.276   4.440   9.246  0.6831  0.1772  0.7394
   22SAPC  C212 2895   6.125   4.583   9.218 -0.2360  0.2279 -0.3010
   22SAPC  H12R 2896   6.139   4.581   9.109  1.2622 -1.3289 -0.1101
   22SAPC  C213 2897   6.030   4.680   9.272  0.3929  0.1724 -0.1559
   22SAPC  H13R 2898   6.009   4.764   9.202  2.3601 -1.2891 -2.6148
   22SAPC  H13S 2899   6.074   4.717   9.367 -1.8696 -2.4904  2.0107
   22SAPC  C214 2900   5.900   4.618   9.300  0.3443  0.3901 -0.3716
   22SAPC  H14R 2901   5.880   4.527   9.243 -1.0543  2.2889 -3.0330
   22SAPC  C215 2902   5.805   4.674   9.378  0.3638 -0.4664 -0.3307
   22SAPC  H15R 2903   5.714   4.612   9.385  0.3954 -0.6399 -1.3562
   22SAPC  C216 2904   5.819   4.806   9.452 -0.1381 -0.2337 -0.0972
   22SAPC  H16R 2905   5.714   4.841   9.468 -0.0332 -0.3788  0.9008
   22SAPC  H16S 2906   5.866   4.878   9.382 -3.3714  0.9172 -1.2004
   22SAPC  C217 2907   5.902   4.812   9.577  0.4223  0.0180 -0.6498
   22SAPC  H17R 2908   5.906   4.910   9.630 -0.4647 -1.0545  1.4586
   22SAPC  H17S 2909   6.007   4.817   9.543  1.1222  0.0607  1.4187
   22SAPC  C218 2910   5.867   4.706   9.684 -0.5117  0.0868  0.2473
   22SAPC  H18R 2911   5.919   4.609   9.666 -0.4708  0.2891 -0.7352
   22SAPC  H18S 2912   5.758   4.684   9.678 -1.1548  2.6552  1.8316
   22SAPC  C219 2913   5.896   4.754   9.824  0.3338  0.2403 -0.6121
   22SAPC  H19R 2914   5.823   4.836   9.842  1.9341  2.2113 -2.8933
   22SAPC  H19S 2915   5.998   4.798   9.829  0.2614  0.2351  1.5171
   22SAPC  C220 2916   5.865   4.648   9.928  0.2744 -0.2358  0.5278
   22SAPC  H20R 2917   5.926   4.559   9.903 -1.6254 -1.0925 -1.1802
   22SAPC  H20S 2918   5.758   4.619   9.924  0.8504 -2.5068  0.9985
   22SAPC  H20T 2919   5.897   4.707  10.017 -0.0361 -1.1510  1.2524
   22SAPC   C33 2920   6.607   5.385  10.040 -0.2616 -0.5613 -0.7046
   22SAPC   H3X 2921   6.662   5.391   9.944 -0.4755  0.5289 -0.7566
   22SAPC   H3Y 2922   6.658   5.444  10.119 -1.5768 -0.8537  0.3756
   22SAPC   C34 2923   6.464   5.442   9.995 -0.2277 -0.1849  0.4103
   22SAPC   H4X 2924   6.401   5.456  10.086 -2.5404  1.5873 -1.4031
   22SAPC   H4Y 2925   6.411   5.380   9.920 -0.5881  0.9000 -0.2350
   22SAPC   C35 2926   6.486   5.581   9.944 -0.4174 -0.5812  0.0417
   22SAPC   H5X 2927   6.544   5.580   9.849 -0.8886  2.0916 -0.3015
   22SAPC   H5Y 2928   6.549   5.630  10.021 -0.5943  3.0260 -2.0230
   22SAPC   C36 2929   6.351   5.660   9.929 -0.0278  0.2818  0.3332
   22SAPC   H6X 2930   6.372   5.770   9.930 -0.9733  0.4800 -0.6764
   22SAPC   H6Y 2931   6.286   5.630  10.013 -0.3439 -0.1658 -0.0726
   22SAPC   C37 2932   6.279   5.620   9.798 -0.0480  0.2942 -0.3871
   22SAPC   H7X 2933   6.170   5.636   9.814 -0.5962 -3.6363  0.5073
   22SAPC   H7Y 2934   6.272   5.509   9.789 -0.9340  0.2623  0.5479
   22SAPC   C38 2935   6.332   5.679   9.667  0.3728 -0.7195  0.2193
   22SAPC   H8X 2936   6.442   5.668   9.654  0.6233  2.8613 -1.4406
   22SAPC   H8Y 2937   6.301   5.785   9.656  0.1135 -0.6992  1.1444
   22SAPC   C39 2938   6.267   5.606   9.541 -0.1383 -0.7126 -0.5913
   22SAPC   H9X 2939   6.159   5.633   9.547 -0.5672 -2.6988  1.6420
   22SAPC   H9Y 2940   6.283   5.499   9.565  1.8263 -0.6199 -1.4466
   22SAPC  C310 2941   6.318   5.652   9.406 -1.4766 -0.4896 -0.4007
   22SAPC  H10X 2942   6.414   5.603   9.377 -0.8318  1.7412 -2.1818
   22SAPC  H10Y 2943   6.340   5.761   9.409  1.0343 -0.9177 -1.9912
   22SAPC  C311 2944   6.212   5.615   9.302  0.2061 -0.2983  0.1009
   22SAPC  H11X 2945   6.122   5.681   9.297  1.5602  1.5146 -1.3574
   22SAPC  H11Y 2946   6.168   5.514   9.313  1.7461 -0.8996  0.8635
   22SAPC  C312 2947   6.263   5.620   9.154  0.0537 -0.2151  0.4616
   22SAPC  H12X 2948   6.370   5.590   9.155 -0.1495 -1.0433 -0.7101
   22SAPC  H12Y 2949   6.256   5.723   9.113 -0.7170  0.2381  1.6872
   22SAPC  C313 2950   6.191   5.523   9.055  0.3688  0.1418  0.2964
   22SAPC  H13X 2951   6.084   5.551   9.063  0.1698 -0.5039 -0.1315
   22SAPC  H13Y 2952   6.214   5.417   9.078  2.2937  0.6717  0.9212
   22SAPC  C314 2953   6.222   5.554   8.907 -0.3398 -0.4242  0.6660
   22SAPC  H14X 2954   6.325   5.535   8.871  0.7978  1.2121  2.9176
   22SAPC  H14Y 2955   6.178   5.652   8.876 -2.0604 -1.2358  0.4777
   22SAPC  C315 2956   6.140   5.458   8.811 -0.7299  0.1653 -0.2555
   22SAPC  H15X 2957   6.139   5.358   8.859 -2.9643 -0.3581 -1.3352
   22SAPC  H15Y 2958   6.195   5.466   8.716  0.0524  1.5728  0.3023
   22SAPC  C316 2959   5.996   5.503   8.787  0.0154  0.1547  0.7537
   22SAPC  H16X 2960   5.976   5.612   8.771 -1.2029 -0.6528 -4.2368
   22SAPC  H16Y 2961   5.933   5.476   8.874 -1.2654  1.0509  0.1354
   22SAPC  C317 2962   5.925   5.443   8.663  0.6713 -0.3578  0.1864
   22SAPC  H17X 2963   5.993   5.468   8.579 -1.1280  2.9980 -0.3731
   22SAPC  H17Y 2964   5.830   5.499   8.644  1.4902  1.4237  1.1546
   22SAPC  C318 2965   5.896   5.298   8.669  0.6376 -0.1796 -0.0812
   22SAPC  H18X 2966   5.863   5.269   8.567 -0.2125  0.9849 -0.1599
   22SAPC  H18Y 2967   5.818   5.276   8.746  2.5193  0.2273  1.9966
   22SAPC  H18Z 2968   5.986   5.238   8.693 -1.3107 -2.7984  0.8454
   23SAPC     N 2969   1.573   5.753  11.121  0.0438 -0.7249 -0.0901
   23SAPC   C12 2970   1.478   5.715  11.004  0.0939  0.1965  0.2168
   23SAPC  H12A 2971   1.385   5.684  11.048  1.0870 -0.6114  1.8032
   23SAPC  H12B 2972   1.515   5.632  10.946 -2.4299 -0.3157 -0.6889
   23SAPC   C13 2973   1.580   5.634  11.216 -0.7792 -0.2432 -0.6768
   23SAPC  H13A 2974   1.640   5.552  11.177 -0.0486 -0.1125  0.1532
   23SAPC  H13B 2975   1.620   5.675  11.307  1.5709  0.3182 -1.9050
   23SAPC  H13C 2976   1.484   5.592  11.242 -2.0053  3.2026  0.5480
   23SAPC   C14 2977   1.717   5.786  11.082  0.3609 -0.4174 -1.0072
   23SAPC  H14A 2978   1.769   5.820  11.170  0.1401  3.4914 -2.2702
   23SAPC  H14B 2979   1.772   5.718  11.019  1.1604 -1.2355  0.5562
   23SAPC  H14C 2980   1.713   5.875  11.021  1.2729 -0.9268 -1.8178
   23SAPC   C15 2981   1.512   5.865  11.205 -0.6924  0.1434  1.0052
   23SAPC  H15A 2982   1.564   5.874  11.299 -0.8638  1.5124  0.9816
   23SAPC  H15B 2983   1.505   5.955  11.144 -1.4636 -0.2315  0.5332
   23SAPC  H15C 2984   1.410   5.843  11.229 -0.3270 -0.3763  2.0952
   23SAPC   C11 2985   1.443   5.828  10.910  0.5251  0.1486  0.8041
   23SAPC  H11A 2986   1.396   5.920  10.949  0.8631  1.4810 -1.8499
   23SAPC  H11B 2987   1.360   5.786  10.850  0.8839  0.9729 -0.2835
   23SAPC     P 2988   1.616   5.783  10.715 -0.6232  0.1762  0.3618
   23SAPC   O13 2989   1.740   5.846  10.664 -0.2841  0.0435  0.7688
   23SAPC   O14 2990   1.623   5.642  10.766 -0.3654  0.2694 -0.7181
   23SAPC   O12 2991   1.562   5.864  10.834 -0.3087  0.1361  0.1492
   23SAPC   O11 2992   1.504   5.783  10.602  0.1527 -0.3530 -0.3074
   23SAPC    C1 2993   1.404   5.893  10.593 -0.4050 -0.3253  0.6942
   23SAPC    HA 2994   1.304   5.851  10.567 -0.4270  0.6345 -0.8379
   23SAPC    HB 2995   1.395   5.945  10.691  3.4711  0.1732  0.8577
   23SAPC    C2 2996   1.446   6.012  10.500 -0.6504 -0.2497 -0.3696
   23SAPC    HS 2997   1.391   6.096  10.547  1.2983  0.6248  0.3905
   23SAPC   O21 2998   1.401   5.978  10.365  0.0289 -0.4349  0.1149
   23SAPC   C21 2999   1.380   6.088  10.287 -0.3881 -0.3358  0.0141
   23SAPC   O22 3000   1.371   6.206  10.326  0.1242  0.0535 -0.2461
   23SAPC   C22 3001   1.373   6.047  10.143  0.1552 -0.0828  0.4099
   23SAPC   H2R 3002   1.472   6.042  10.093 -0.9547  0.1011 -1.8632
   23SAPC   H2S 3003   1.324   5.947  10.131 -2.0530  1.0571 -0.4261
   23SAPC    C3 3004   1.597   6.051  10.505 -0.2478 -0.5642  0.4605
   23SAPC    HX 3005   1.656   5.962  10.475  1.3222  1.1874 -1.8689
   23SAPC    HY 3006   1.615   6.085  10.609  2.3128 -0.3422 -0.0237
   23SAPC   O31 3007   1.615   6.161  10.410 -0.0100  0.7826 -0.6349
   23SAPC   C31 3008   1.734   6.203  10.372  0.0322 -0.1905 -0.1771
   23SAPC   O32 3009   1.839   6.156  10.414  0.2751 -0.2684 -0.3408
   23SAPC   C32 3010   1.720   6.311  10.261 -0.2488  0.0070  0.3328
   23SAPC   H2X 3011   1.652   6.381  10.313 -1.0692 -0.8234  0.3819
   23SAPC   H2Y 3012   1.671   6.275  10.168  0.3864 -1.3971  0.5240
   23SAPC   C23 3013   1.279   6.150  10.064 -0.0801 -0.0124 -0.7938
   23SAPC   H3R 3014   1.325   6.181   9.968  0.0768 -2.2339 -1.4423
   23SAPC   H3S 3015   1.282   6.247  10.119 -1.5533  1.0830 -2.5694
   23SAPC   C24 3016   1.130   6.121  10.051  0.2772  0.3128  0.1341
   23SAPC   H4R 3017   1.088   6.084  10.147 -1.4773  2.8555  0.4009
   23SAPC   H4S 3018   1.113   6.043   9.973  4.0320  1.3893 -1.9260
   23SAPC   C25 3019   1.049   6.238  10.008  0.0772 -0.7144 -0.1658
   23SAPC   H5R 3020   1.001   6.283  10.096  0.4312 -1.9826  0.6934
   23SAPC   C26 3021   1.020   6.297   9.890  0.3085  0.0180 -0.1695
   23SAPC   H6R 3022   0.957   6.386   9.881 -0.4950 -0.5904 -0.6029
   23SAPC   C27 3023   1.073   6.251   9.755 -0.2085  0.4569  0.0943
   23SAPC   H7R 3024   1.181   6.226   9.760 -0.0219  1.2576  0.0446
   23SAPC   H7S 3025   1.067   6.330   9.677 -1.2348 -0.9122 -1.2417
   23SAPC   C28 3026   1.006   6.128   9.703  0.3073  0.0187 -0.4017
   23SAPC   H8R 3027   0.969   6.060   9.781 -1.1995  2.6204  1.2354
   23SAPC   C29 3028   0.994   6.092   9.574 -0.4694  0.0714  0.5061
   23SAPC   H9R 3029   0.942   5.997   9.556 -2.0967  0.9052  0.6888
   23SAPC  C210 3030   1.052   6.163   9.454  0.3013 -0.1389  0.1196
   23SAPC  H10R 3031   1.160   6.136   9.448  0.5556  0.7434  0.5904
   23SAPC  H10S 3032   1.049   6.273   9.468  0.2086 -0.0494 -0.6245
   23SAPC  C211 3033   0.992   6.127   9.322  0.4530  0.1425 -0.6044
   23SAPC  H11R 3034   0.895   6.076   9.325  0.8718 -0.6945 -1.2055
   23SAPC  C212 3035   1.039   6.146   9.197 -0.5851 -0.5546 -0.2300
   23SAPC  H12R 3036   0.976   6.114   9.113  0.5234 -1.4424 -0.7334
   23SAPC  C213 3037   1.159   6.226   9.155 -0.4128 -0.0479  0.7047
   23SAPC  H13R 3038   1.248   6.163   9.174  0.6242  0.9660 -0.6761
   23SAPC  H13S 3039   1.166   6.303   9.235 -1.2263 -0.0980  0.8334
   23SAPC  C214 3040   1.168   6.290   9.020  0.4420 -0.5864  0.1616
   23SAPC  H14R 3041   1.208   6.393   9.023  0.7599 -0.7371  2.8152
   23SAPC  C215 3042   1.135   6.230   8.902 -0.0664  0.3727  0.3717
   23SAPC  H15R 3043   1.144   6.286   8.808 -0.5892 -0.4783 -0.1931
   23SAPC  C216 3044   1.090   6.088   8.872  0.0782 -0.2425 -0.5259
   23SAPC  H16R 3045   0.980   6.087   8.882  0.1066 -0.4454 -0.2222
   23SAPC  H16S 3046   1.128   6.012   8.943 -1.0385 -0.5503 -0.2539
   23SAPC  C217 3047   1.120   6.039   8.726 -0.6509 -0.2186  0.6073
   23SAPC  H17R 3048   1.102   5.929   8.724  1.7151 -0.6714  1.8758
   23SAPC  H17S 3049   1.222   6.064   8.690 -0.0067 -2.7473  0.5976
   23SAPC  C218 3050   1.020   6.096   8.620 -0.2628  0.2510 -0.2327
   23SAPC  H18R 3051   1.024   6.206   8.604 -0.9824  0.1256 -1.4007
   23SAPC  H18S 3052   0.920   6.064   8.655  0.1426 -1.3114 -0.4514
   23SAPC  C219 3053   1.026   6.026   8.483  0.0569  0.1244  0.0446
   23SAPC  H19R 3054   0.941   6.070   8.425  1.2803  3.5154  0.7180
   23SAPC  H19S 3055   0.999   5.918   8.486  0.1311  0.0655 -1.1996
   23SAPC  C220 3056   1.159   6.038   8.411 -0.2901  0.4222 -1.0734
   23SAPC  H20R 3057   1.246   5.993   8.463 -0.7874 -2.2693 -2.4632
   23SAPC  H20S 3058   1.181   6.145   8.390  1.5021  0.1359 -0.7104
   23SAPC  H20T 3059   1.157   5.987   8.312 -0.2763  0.9780 -1.3614
   23SAPC   C33 3060   1.857   6.383  10.233  0.0488  0.1544 -0.0756
   23SAPC   H3X 3061   1.932   6.307  10.202 -0.2414  0.0835 -0.6131
   23SAPC   H3Y 3062   1.889   6.442  10.321  2.2230  2.2076 -2.1690
   23SAPC   C34 3063   1.848   6.489  10.117 -0.0185  0.0414  0.1560
   23SAPC   H4X 3064   1.944   6.545  10.115  0.2583 -0.4557 -0.5683
   23SAPC   H4Y 3065   1.764   6.560  10.135 -1.1117 -0.0920 -3.8337
   23SAPC   C35 3066   1.837   6.424   9.977 -0.5107  0.2524 -0.3382
   23SAPC   H5X 3067   1.752   6.352   9.975  0.5860 -1.0258 -2.5629
   23SAPC   H5Y 3068   1.936   6.374   9.965 -0.2915  1.0394 -1.8684
   23SAPC   C36 3069   1.816   6.511   9.860 -0.3094 -0.4084  0.1102
   23SAPC   H6X 3070   1.907   6.571   9.840 -1.3437  0.7706 -1.1906
   23SAPC   H6Y 3071   1.735   6.587   9.861 -0.7585 -0.8920  0.8546
   23SAPC   C37 3072   1.778   6.434   9.725  0.1107 -0.1752  0.0385
   23SAPC   H7X 3073   1.670   6.412   9.743 -0.0415  0.3383 -0.2559
   23SAPC   H7Y 3074   1.840   6.342   9.713  2.0100  0.7268  2.4859
   23SAPC   C38 3075   1.795   6.529   9.605  0.0618 -0.4250 -0.0175
   23SAPC   H8X 3076   1.764   6.629   9.642 -0.6927 -0.5194 -0.3823
   23SAPC   H8Y 3077   1.727   6.485   9.529  0.7875 -2.2186  0.3330
   23SAPC   C39 3078   1.943   6.544   9.550  0.2725 -0.2414  0.2741
   23SAPC   H9X 3079   1.993   6.445   9.543  0.0028 -0.1545 -4.1459
   23SAPC   H9Y 3080   2.003   6.600   9.625  0.4772 -2.1042  1.5378
   23SAPC  C310 3081   1.949   6.616   9.411  0.5333 -0.1060 -0.6431
   23SAPC  H10X 3082   1.911   6.718   9.432  0.3943 -0.6717  2.0512
   23SAPC  H10Y 3083   1.893   6.556   9.337  0.1579 -0.7709  0.1704
   23SAPC  C311 3084   2.094   6.625   9.375  0.6103  1.1473 -0.7430
   23SAPC  H11X 3085   2.120   6.518   9.356  1.1555  0.8833  1.4073
   23SAPC  H11Y 3086   2.166   6.661   9.451  1.4212 -0.3600 -0.7678
   23SAPC  C312 3087   2.122   6.695   9.244 -0.1018  0.5909 -0.0169
   23SAPC  H12X 3088   2.228   6.681   9.214  0.1071 -1.5168  1.5674
   23SAPC  H12Y 3089   2.104   6.803   9.261 -0.3510  1.0215 -2.7110
   23SAPC  C313 3090   2.039   6.651   9.120  1.0467  0.3158  0.4940
   23SAPC  H13X 3091   1.933   6.662   9.154  0.9432  0.3203  0.1703
   23SAPC  H13Y 3092   2.039   6.542   9.100  0.5376  0.2022  1.0639
   23SAPC  C314 3093   2.051   6.721   8.984  0.0386  0.7086 -0.2296
   23SAPC  H14X 3094   1.978   6.686   8.908  0.6227  0.5065 -0.7026
   23SAPC  H14Y 3095   2.154   6.707   8.943  1.0125  1.8447  1.7142
   23SAPC  C315 3096   2.041   6.871   9.013 -0.1003  0.5634 -0.3691
   23SAPC  H15X 3097   2.098   6.915   9.098  0.4331 -0.9077  0.0492
   23SAPC  H15Y 3098   1.936   6.901   9.031 -0.7583 -1.1024 -1.2774
   23SAPC  C316 3099   2.081   6.956   8.890 -0.9213 -0.2193 -0.3937
   23SAPC  H16X 3100   2.189   6.946   8.865 -1.4829  0.5285 -3.3140
   23SAPC  H16Y 3101   2.065   7.065   8.906  2.5197  0.4546 -1.0193
   23SAPC  C317 3102   2.000   6.928   8.761 -0.5832  0.0178 -0.0068
   23SAPC  H17X 3103   1.894   6.960   8.770 -0.2433  1.2839 -0.4096
   23SAPC  H17Y 3104   2.003   6.821   8.729 -1.1625 -0.3693  1.1784
   23SAPC  C318 3105   2.053   7.006   8.644 -0.9122  0.1221  0.5529
   23SAPC  H18X 3106   2.046   7.117   8.651 -0.5427  0.1849 -0.0578
   23SAPC  H18Y 3107   1.991   6.986   8.554 -0.5255 -0.7741  0.4863
   23SAPC  H18Z 3108   2.158   6.979   8.623 -0.8526  0.9210 -0.1947
   24SAPC     N 3109   4.252   6.350  11.293 -0.1309 -1.0362 -0.2852
   24SAPC   C12 3110   4.186   6.289  11.174 -0.3556  0.4995  0.7287
   24SAPC  H12A 3111   4.078   6.291  11.173 -0.3736  0.4259 -2.4736
   24SAPC  H12B 3112   4.211   6.184  11.170 -2.1983  0.1256 -1.6998
   24SAPC   C13 3113   4.394   6.299  11.296 -0.0516 -0.1918 -0.1418
   24SAPC  H13A 3114   4.436   6.327  11.201 -1.2254  1.4659 -0.2038
   24SAPC  H13B 3115   4.445   6.359  11.371 -0.1915  0.7918 -0.8186
   24SAPC  H13C 3116   4.396   6.192  11.312  0.5430 -0.1259  0.2197
   24SAPC   C14 3117   4.253   6.500  11.295  1.0013 -0.3790  0.5078
   24SAPC  H14A 3118   4.298   6.544  11.206  0.7869  1.4298  1.2627
   24SAPC  H14B 3119   4.154   6.543  11.299  0.6600 -1.1563  0.4711
   24SAPC  H14C 3120   4.313   6.534  11.378 -0.5365 -1.2028  1.9839
   24SAPC   C15 3121   4.187   6.309  11.419 -0.1137  0.1826  0.1289
   24SAPC  H15A 3122   4.087   6.343  11.442  0.8961  1.0514  3.5264
   24SAPC  H15B 3123   4.191   6.201  11.427  0.7678 -0.1362 -3.5039
   24SAPC  H15C 3124   4.239   6.366  11.495  0.8595 -0.3500 -0.1269
   24SAPC   C11 3125   4.214   6.345  11.032 -0.0670  0.2785 -0.0690
   24SAPC  H11A 3126   4.169   6.277  10.957  0.4013 -0.3365  0.1985
   24SAPC  H11B 3127   4.319   6.356  10.997  0.8859  0.2154  2.6022
   24SAPC     P 3128   4.008   6.513  11.004 -0.0506  0.3775 -0.0716
   24SAPC   O13 3129   3.940   6.395  11.065  0.0041  0.1683  0.0487
   24SAPC   O14 3130   3.983   6.646  11.057 -0.1416 -0.1280  0.2876
   24SAPC   O12 3131   4.167   6.479  11.010 -0.6311  0.3062 -0.1263
   24SAPC   O11 3132   3.978   6.519  10.853  0.2292  0.2033 -0.1316
   24SAPC    C1 3133   4.052   6.491  10.737  0.7580  0.4518  0.1469
   24SAPC    HA 3134   4.127   6.414  10.768 -0.0268 -0.3728  0.0246
   24SAPC    HB 3135   3.997   6.438  10.656  2.0513  0.9964 -1.1197
   24SAPC    C2 3136   4.125   6.614  10.674  0.3422  0.2391  0.1013
   24SAPC    HS 3137   4.161   6.681  10.756 -0.2093 -0.1417  0.6499
   24SAPC   O21 3138   4.032   6.679  10.582  0.5254 -0.0710  0.2501
   24SAPC   C21 3139   3.952   6.767  10.628 -0.0121 -0.2972  0.0511
   24SAPC   O22 3140   3.942   6.809  10.739 -0.7643  0.3944 -1.5053
   24SAPC   C22 3141   3.867   6.815  10.511 -0.5955  0.0491 -0.4655
   24SAPC   H2R 3142   3.933   6.867  10.438  0.4299 -2.0676 -1.0966
   24SAPC   H2S 3143   3.813   6.726  10.472 -0.4648 -0.4042  0.3659
   24SAPC    C3 3144   4.254   6.563  10.597 -0.0377 -0.1574 -0.4739
   24SAPC    HX 3145   4.330   6.532  10.672 -0.8316  1.3794  0.9964
   24SAPC    HY 3146   4.297   6.639  10.529 -0.4806 -0.7583 -1.4424
   24SAPC   O31 3147   4.228   6.443  10.514 -0.3742 -0.1593 -0.2179
   24SAPC   C31 3148   4.222   6.457  10.382  0.3455 -0.1808 -0.2114
   24SAPC   O32 3149   4.255   6.557  10.319  0.4569  0.4178 -0.5061
   24SAPC   C32 3150   4.175   6.319  10.320 -0.4625 -0.8381  0.6307
   24SAPC   H2X 3151   4.119   6.350  10.230  1.5975  0.3318 -0.2910
   24SAPC   H2Y 3152   4.100   6.267  10.383 -2.5390  0.0901 -1.0190
   24SAPC   C23 3153   3.763   6.922  10.555  0.2062 -0.5946  0.7980
   24SAPC   H3R 3154   3.817   7.013  10.591 -0.5475 -0.2998  1.1983
   24SAPC   H3S 3155   3.688   6.882  10.626 -1.6887  0.3991 -0.5950
   24SAPC   C24 3156   3.670   6.962  10.430 -0.2145 -0.0779 -1.3481
   24SAPC   H4R 3157   3.588   7.015  10.483  1.5211  2.0144 -0.6653
   24SAPC   H4S 3158   3.628   6.868  10.387 -1.2792  0.1775 -0.8938
   24SAPC   C25 3159   3.747   7.037  10.326  0.3424 -0.3627  0.4406
   24SAPC   H5R 3160   3.847   7.073  10.356  0.6305 -1.3799  0.7033
   24SAPC   C26 3161   3.726   7.050  10.195 -0.5713 -0.7037 -0.3575
   24SAPC   H6R 3162   3.793   7.111  10.133 -0.1467  0.7724  1.5178
   24SAPC   C27 3163   3.607   6.988  10.111  0.1209 -0.5540  0.5098
   24SAPC   H7R 3164   3.553   7.077  10.071  1.9121 -0.1245 -0.9892
   24SAPC   H7S 3165   3.533   6.937  10.177 -1.5856 -1.2504 -1.8518
   24SAPC   C28 3166   3.664   6.890  10.005 -0.6096  0.1984 -0.7071
   24SAPC   H8R 3167   3.718   6.948   9.928 -0.9684  0.1009 -1.0300
   24SAPC   C29 3168   3.658   6.758   9.989 -0.0312 -0.0902 -0.4934
   24SAPC   H9R 3169   3.724   6.714   9.913 -0.8516  0.7493 -1.7127
   24SAPC  C210 3170   3.585   6.655  10.079 -0.4180 -0.2363 -0.3671
   24SAPC  H10R 3171   3.490   6.689  10.126  0.1992  1.8668 -0.5674
   24SAPC  H10S 3172   3.658   6.637  10.161  0.0626 -1.5777 -1.0852
   24SAPC  C211 3173   3.540   6.529  10.006  0.1596 -0.1743 -0.1042
   24SAPC  H11R 3174   3.442   6.543   9.958 -1.7259 -2.5731  2.8726
   24SAPC  C212 3175   3.597   6.404  10.019  0.2755 -0.1963  0.9382
   24SAPC  H12R 3176   3.562   6.321   9.955  0.1102  1.1329 -0.7446
   24SAPC  C213 3177   3.731   6.376  10.083  0.5259  1.1445  0.6451
   24SAPC  H13R 3178   3.729   6.289  10.153 -1.0631 -0.9251 -1.8538
   24SAPC  H13S 3179   3.758   6.462  10.148 -1.0509  1.8958  0.3307
   24SAPC  C214 3180   3.837   6.354   9.975 -0.0976 -0.0413 -0.4106
   24SAPC  H14R 3181   3.844   6.255   9.929 -0.3428 -0.5798  0.7089
   24SAPC  C215 3182   3.946   6.435   9.939  0.5545 -0.8025 -0.0423
   24SAPC  H15R 3183   4.018   6.397   9.866  1.3786 -1.6369  1.1702
   24SAPC  C216 3184   3.977   6.578   9.984  0.2482  0.2946 -0.1590
   24SAPC  H16R 3185   3.936   6.606  10.083 -1.4172 -1.4959 -0.3043
   24SAPC  H16S 3186   3.939   6.646   9.905 -2.3216 -0.2990  0.5307
   24SAPC  C217 3187   4.130   6.618   9.989  0.2542 -0.4363  0.4057
   24SAPC  H17R 3188   4.188   6.552   9.921  1.9400  0.5072  0.8890
   24SAPC  H17S 3189   4.185   6.600  10.083 -1.7306  1.9844  2.1157
   24SAPC  C218 3190   4.159   6.762   9.965  0.0678 -0.5361 -0.2156
   24SAPC  H18R 3191   4.145   6.787   9.858  0.9892  0.6145 -0.0804
   24SAPC  H18S 3192   4.263   6.794   9.987 -1.0967  1.4820  2.7824
   24SAPC  C219 3193   4.086   6.869  10.048 -0.3270 -0.1144  0.3621
   24SAPC  H19R 3194   3.980   6.863  10.017 -0.0276 -1.4804 -0.4651
   24SAPC  H19S 3195   4.115   6.969  10.011  1.0131 -1.2562 -1.8345
   24SAPC  C220 3196   4.081   6.852  10.202 -0.6799  0.1384 -0.3452
   24SAPC  H20R 3197   4.053   6.951  10.243 -2.4450 -1.0598  1.4508
   24SAPC  H20S 3198   4.180   6.822  10.242 -0.5494 -1.8043 -2.0232
   24SAPC  H20T 3199   3.995   6.786  10.227 -1.5819  1.6163  0.4747
   24SAPC   C33 3200   4.295   6.226  10.280  0.3441 -0.1514 -0.1754
   24SAPC   H3X 3201   4.245   6.131  10.251 -0.2792  0.3818 -0.8683
   24SAPC   H3Y 3202   4.364   6.196  10.362 -1.2788 -1.9082  0.5922
   24SAPC   C34 3203   4.367   6.289  10.165  1.1920  0.4846 -0.8825
   24SAPC   H4X 3204   4.429   6.376  10.196 -0.6558  1.8963 -1.0957
   24SAPC   H4Y 3205   4.287   6.331  10.101 -2.8462  1.7609  4.6714
   24SAPC   C35 3206   4.462   6.190  10.083  0.7796 -0.8818 -0.4916
   24SAPC   H5X 3207   4.392   6.132  10.019  0.5762 -1.6910  0.4479
   24SAPC   H5Y 3208   4.507   6.110  10.146  1.5031  0.5273  0.8241
   24SAPC   C36 3209   4.577   6.257  10.013  0.0808  0.1199 -0.6247
   24SAPC   H6X 3210   4.645   6.185   9.963 -0.0867  0.8322 -1.9086
   24SAPC   H6Y 3211   4.645   6.306  10.085 -2.3271 -0.0301  1.8574
   24SAPC   C37 3212   4.539   6.354   9.897  0.6036  0.2554 -0.5144
   24SAPC   H7X 3213   4.476   6.434   9.940 -1.2208 -0.8940 -0.9714
   24SAPC   H7Y 3214   4.470   6.298   9.830 -0.6781 -1.4669  2.1625
   24SAPC   C38 3215   4.654   6.401   9.825  0.1014  0.7414 -0.1036
   24SAPC   H8X 3216   4.721   6.317   9.797 -0.4552 -0.3328  1.6618
   24SAPC   H8Y 3217   4.708   6.472   9.891 -2.0674  0.2460  2.3112
   24SAPC   C39 3218   4.611   6.465   9.690 -0.2182 -0.4926  0.1860
   24SAPC   H9X 3219   4.560   6.389   9.627 -0.6623  0.4562 -0.6134
   24SAPC   H9Y 3220   4.708   6.486   9.640  0.3856 -1.0224  1.1354
   24SAPC  C310 3221   4.534   6.600   9.700 -1.1752 -0.2806 -0.1489
   24SAPC  H10X 3222   4.602   6.685   9.718 -0.7400 -0.2155 -1.9801
   24SAPC  H10Y 3223   4.452   6.580   9.772 -2.0091 -2.5524 -1.6501
   24SAPC  C311 3224   4.457   6.641   9.574  0.0055  0.1765  0.5206
   24SAPC  H11X 3225   4.395   6.728   9.607  0.4948  0.5290  0.5162
   24SAPC  H11Y 3226   4.393   6.554   9.550  1.4739 -0.6819 -0.3430
   24SAPC  C312 3227   4.550   6.680   9.454 -0.2380 -0.4589 -0.5282
   24SAPC  H12X 3228   4.619   6.597   9.427 -0.7228 -1.8122  2.1983
   24SAPC  H12Y 3229   4.603   6.774   9.480 -0.9465  0.1040 -1.1076
   24SAPC  C313 3230   4.472   6.705   9.323 -0.6339  0.0404 -0.5980
   24SAPC  H13X 3231   4.429   6.808   9.328 -0.6670 -0.0880  2.5910
   24SAPC  H13Y 3232   4.394   6.626   9.323  0.1513 -0.7375 -0.5674
   24SAPC  C314 3233   4.572   6.696   9.204  0.6739  1.0157 -0.9431
   24SAPC  H14X 3234   4.615   6.594   9.196 -2.8139 -0.4515 -2.4765
   24SAPC  H14Y 3235   4.652   6.767   9.233  0.2721  0.2430  2.1843
   24SAPC  C315 3236   4.517   6.738   9.068 -0.4563  0.2963 -0.4153
   24SAPC  H15X 3237   4.418   6.692   9.048 -0.2589  0.5413 -1.9646
   24SAPC  H15Y 3238   4.579   6.681   8.996 -0.1804 -1.8777  1.4915
   24SAPC  C316 3239   4.523   6.886   9.045 -0.3659 -0.4898 -0.2995
   24SAPC  H16X 3240   4.626   6.920   9.069  1.3064 -1.8781 -4.9760
   24SAPC  H16Y 3241   4.465   6.936   9.125 -1.6952  0.8276 -2.0408
   24SAPC  C317 3242   4.478   6.932   8.904 -0.9148 -0.6407 -0.7530
   24SAPC  H17X 3243   4.464   7.042   8.916  1.5606 -0.3248 -0.4532
   24SAPC  H17Y 3244   4.385   6.875   8.880 -0.5881 -0.7602 -1.7479
   24SAPC  C318 3245   4.570   6.917   8.789 -0.4821 -0.1949 -0.1953
   24SAPC  H18X 3246   4.574   6.811   8.758  1.4849 -0.1349 -0.1954
   24SAPC  H18Y 3247   4.676   6.942   8.810 -0.2955 -0.5900 -0.6643
   24SAPC  H18Z 3248   4.536   6.981   8.705  0.0111 -0.9593 -0.9828
   25SAPC     N 3249   0.044   5.019   5.888  0.2971  0.3725  0.0518
   25SAPC   C12 3250  -0.064   4.914   5.929  0.2744  0.6136  0.5552
   25SAPC  H12A 3251  -0.010   4.833   5.977 -0.6861 -0.6769 -0.5265
   25SAPC  H12B 3252  -0.094   4.874   5.834  0.5928 -2.5733  1.7412
   25SAPC   C13 3253   0.163   4.946   5.821 -0.3895 -0.0129 -0.2678
   25SAPC  H13A 3254   0.176   4.852   5.873 -2.3042  0.2284  0.6966
   25SAPC  H13B 3255   0.162   4.930   5.714  1.0084 -1.6001 -0.0584
   25SAPC  H13C 3256   0.260   4.990   5.840  0.5607 -1.7321 -1.0451
   25SAPC   C14 3257  -0.017   5.105   5.785  0.0628 -0.4199 -0.4969
   25SAPC  H14A 3258  -0.080   5.170   5.843  2.2982  0.4915  0.9761
   25SAPC  H14B 3259   0.061   5.172   5.751 -1.2947  1.2061 -0.4423
   25SAPC  H14C 3260  -0.075   5.062   5.704 -0.2595 -0.5731 -0.1860
   25SAPC   C15 3261   0.075   5.091   6.014  1.2863  0.1114  0.5293
   25SAPC  H15A 3262  -0.014   5.144   6.045 -2.0370 -3.1942 -2.8252
   25SAPC  H15B 3263   0.093   5.017   6.090 -1.3996 -0.6373  0.4746
   25SAPC  H15C 3264   0.159   5.159   6.009  0.8432  0.6071 -0.4319
   25SAPC   C11 3265  -0.187   4.945   6.016 -0.1650  0.1514 -0.2951
   25SAPC  H11A 3266  -0.153   4.972   6.118 -2.4809 -1.1240  0.8605
   25SAPC  H11B 3267  -0.261   4.863   6.024 -0.5160  0.5340  0.4683
   25SAPC     P 3268  -0.310   5.183   6.047 -0.2442  0.1782 -0.0446
   25SAPC   O13 3269  -0.195   5.256   6.100  0.2855  0.2389  0.5292
   25SAPC   O14 3270  -0.400   5.253   5.955 -0.3058  0.3030  0.0134
   25SAPC   O12 3271  -0.256   5.059   5.966  0.0403  0.6026  0.8399
   25SAPC   O11 3272  -0.395   5.112   6.160 -1.0126  0.1498 -0.2329
   25SAPC    C1 3273  -0.424   5.171   6.285  0.6686  0.1671  0.1172
   25SAPC    HA 3274  -0.445   5.280   6.277  0.3843  0.0569 -0.7397
   25SAPC    HB 3275  -0.518   5.132   6.329  1.4942 -1.9554  0.0580
   25SAPC    C2 3276  -0.306   5.141   6.379  0.3886 -0.2476 -0.4438
   25SAPC    HS 3277  -0.220   5.196   6.337 -0.6651  1.0215 -0.9656
   25SAPC   O21 3278  -0.287   5.004   6.369 -0.3009  0.0734 -1.4117
   25SAPC   C21 3279  -0.165   4.954   6.368  0.3850  0.1582 -0.1576
   25SAPC   O22 3280  -0.059   5.018   6.359 -0.1902  0.2471 -0.6573
   25SAPC   C22 3281  -0.170   4.806   6.377 -0.0142 -0.0561 -0.0702
   25SAPC   H2R 3282  -0.272   4.763   6.392  0.3842 -0.9575  0.0700
   25SAPC   H2S 3283  -0.129   4.781   6.277  0.6932 -1.6785  0.6113
   25SAPC    C3 3284  -0.332   5.180   6.529  0.0051  0.1344  0.4693
   25SAPC    HX 3285  -0.431   5.140   6.557 -0.4033  0.6227 -0.2569
   25SAPC    HY 3286  -0.337   5.290   6.516 -1.4041  0.3105  2.3467
   25SAPC   O31 3287  -0.235   5.122   6.618  0.7024  0.2152 -0.1195
   25SAPC   C31 3288  -0.120   5.191   6.609 -1.3293  0.1762 -0.7937
   25SAPC   O32 3289  -0.107   5.303   6.567 -0.4427  0.3846 -0.3531
   25SAPC   C32 3290  -0.001   5.103   6.670  0.9535  0.9817  0.1133
   25SAPC   H2X 3291   0.081   5.150   6.611 -0.7539  1.5011 -1.9115
   25SAPC   H2Y 3292  -0.010   4.996   6.641 -3.2792  0.1279  4.0446
   25SAPC   C23 3293  -0.066   4.759   6.485  0.2105  0.5084 -0.1243
   25SAPC   H3R 3294   0.026   4.821   6.485  2.1346 -2.2694  1.3085
   25SAPC   H3S 3295  -0.037   4.652   6.476  1.0642  0.8239 -1.2721
   25SAPC   C24 3296  -0.133   4.763   6.623  0.3708 -0.7615  0.1624
   25SAPC   H4R 3297  -0.198   4.853   6.619  0.3789 -0.7960 -0.7982
   25SAPC   H4S 3298  -0.054   4.788   6.697 -2.0566  1.8863  1.9533
   25SAPC   C25 3299  -0.220   4.642   6.646 -0.2341 -0.6601 -0.1699
   25SAPC   H5R 3300  -0.300   4.628   6.572 -0.8417 -0.7590  0.5034
   25SAPC   C26 3301  -0.209   4.554   6.743  0.0975  0.5558  0.1225
   25SAPC   H6R 3302  -0.296   4.487   6.756  0.4367 -0.0223 -0.5188
   25SAPC   C27 3303  -0.112   4.552   6.854  0.0552  0.0918  0.1026
   25SAPC   H7R 3304  -0.085   4.656   6.882 -0.2476  0.1568  0.1490
   25SAPC   H7S 3305  -0.019   4.492   6.837  1.4803  2.3082 -0.0648
   25SAPC   C28 3306  -0.188   4.487   6.970 -0.6969 -0.4070 -0.8298
   25SAPC   H8R 3307  -0.233   4.393   6.934 -0.5524 -0.3782 -1.0896
   25SAPC   C29 3308  -0.199   4.538   7.102 -0.6980 -0.1134  0.3289
   25SAPC   H9R 3309  -0.261   4.481   7.172 -1.6833 -1.8910 -1.9133
   25SAPC  C210 3310  -0.151   4.679   7.136 -0.5320  0.1665  0.1701
   25SAPC  H10R 3311  -0.235   4.751   7.124  0.6423  1.3323 -1.1493
   25SAPC  H10S 3312  -0.082   4.717   7.059 -0.5708 -0.4468 -0.1752
   25SAPC  C211 3313  -0.090   4.688   7.276 -0.0934 -0.4074 -0.0769
   25SAPC  H11R 3314   0.019   4.681   7.284 -0.0911  0.0356  0.3108
   25SAPC  C212 3315  -0.160   4.708   7.385 -0.6739 -0.2874  0.1729
   25SAPC  H12R 3316  -0.111   4.733   7.480 -0.2922 -0.8169  0.1123
   25SAPC  C213 3317  -0.312   4.722   7.396  0.0024 -0.3718  0.4064
   25SAPC  H13R 3318  -0.356   4.639   7.456 -2.5332  0.2008 -0.6021
   25SAPC  H13S 3319  -0.360   4.703   7.298 -2.4538 -0.9264  1.6691
   25SAPC  C214 3320  -0.356   4.855   7.456  0.4884 -0.2430  0.6396
   25SAPC  H14R 3321  -0.395   4.931   7.387  1.7455 -1.1670 -1.1230
   25SAPC  C215 3322  -0.362   4.886   7.588 -0.2565  0.1157  0.5097
   25SAPC  H15R 3323  -0.422   4.976   7.608 -1.1630  0.2694 -2.6413
   25SAPC  C216 3324  -0.320   4.785   7.696 -0.3666  0.4143  0.3833
   25SAPC  H16R 3325  -0.211   4.766   7.680 -0.5571 -1.5048  1.2641
   25SAPC  H16S 3326  -0.377   4.691   7.703  1.1063 -0.4261  1.4330
   25SAPC  C217 3327  -0.332   4.839   7.839  0.1862 -0.7326  0.8158
   25SAPC  H17R 3328  -0.440   4.856   7.859  0.5299 -0.4607  2.5256
   25SAPC  H17S 3329  -0.283   4.939   7.844  1.1819 -1.2520  1.6668
   25SAPC  C218 3330  -0.255   4.758   7.943  0.5740 -0.1991 -0.2613
   25SAPC  H18R 3331  -0.149   4.783   7.922  0.2732  1.8104  0.4427
   25SAPC  H18S 3332  -0.280   4.652   7.920  0.2705 -0.2088  0.1056
   25SAPC  C219 3333  -0.299   4.786   8.093  0.5075 -0.1688 -0.5774
   25SAPC  H19R 3334  -0.410   4.778   8.092  0.5033 -0.2167  0.2134
   25SAPC  H19S 3335  -0.284   4.890   8.129  1.0389 -0.9422  1.5063
   25SAPC  C220 3336  -0.234   4.695   8.197 -0.0909  0.0594 -0.7162
   25SAPC  H20R 3337  -0.124   4.710   8.197 -0.2841  1.5909 -0.6535
   25SAPC  H20S 3338  -0.256   4.588   8.178  2.2491 -0.7256  0.8622
   25SAPC  H20T 3339  -0.263   4.713   8.303 -0.4346 -0.4705 -0.7179
   25SAPC   C33 3340   0.009   5.133   6.823  0.3691 -0.1972 -0.3926
   25SAPC   H3X 3341   0.020   5.243   6.839  0.0279 -0.1048 -0.7904
   25SAPC   H3Y 3342   0.097   5.071   6.851  0.8328 -0.0316 -1.4565
   25SAPC   C34 3343  -0.104   5.079   6.903  0.0445  0.6034  0.4392
   25SAPC   H4X 3344  -0.090   4.970   6.919  0.9746  0.1478 -3.0910
   25SAPC   H4Y 3345  -0.201   5.096   6.853 -0.2767 -1.3992  0.3460
   25SAPC   C35 3346  -0.093   5.148   7.038 -0.8603  0.1305  0.0167
   25SAPC   H5X 3347  -0.146   5.245   7.033 -0.7507  0.3523  2.7869
   25SAPC   H5Y 3348   0.014   5.170   7.055 -0.8015 -0.7772  0.8541
   25SAPC   C36 3349  -0.159   5.073   7.145  0.2724  0.0136 -0.1857
   25SAPC   H6X 3350  -0.110   4.974   7.161  0.5250  0.3743  1.3342
   25SAPC   H6Y 3351  -0.266   5.065   7.119 -0.4898  3.6004  1.5088
   25SAPC   C37 3352  -0.168   5.149   7.275 -0.2807 -0.2614 -0.6858
   25SAPC   H7X 3353  -0.262   5.126   7.329  0.2741  0.8437  0.7771
   25SAPC   H7Y 3354  -0.174   5.258   7.256  2.5318 -0.3750 -2.6814
   25SAPC   C38 3355  -0.055   5.106   7.371  0.1341 -0.0749 -0.3983
   25SAPC   H8X 3356   0.047   5.131   7.335 -0.2810  3.2587  0.6175
   25SAPC   H8Y 3357  -0.060   4.995   7.380 -0.6848 -0.2288 -2.4375
   25SAPC   C39 3358  -0.081   5.162   7.510 -0.4259 -0.2043 -0.5401
   25SAPC   H9X 3359  -0.171   5.113   7.552 -0.7657  1.0753  0.2525
   25SAPC   H9Y 3360  -0.100   5.271   7.505 -0.2365 -0.1093  0.7064
   25SAPC  C310 3361   0.039   5.128   7.610 -0.2880 -0.2257 -0.2081
   25SAPC  H10X 3362   0.130   5.169   7.562  0.2944 -0.7259  0.4489
   25SAPC  H10Y 3363   0.048   5.018   7.616 -1.5089 -0.3171  0.1210
   25SAPC  C311 3364   0.007   5.196   7.743 -0.3530  0.4576 -0.0988
   25SAPC  H11X 3365  -0.075   5.155   7.805 -0.5010 -1.1717 -1.3384
   25SAPC  H11Y 3366  -0.025   5.300   7.721  0.6606  0.5874 -1.0268
   25SAPC  C312 3367   0.139   5.198   7.824 -0.1326  0.4471 -0.0507
   25SAPC  H12X 3368   0.228   5.233   7.767 -0.2056  2.6789  1.1232
   25SAPC  H12Y 3369   0.167   5.093   7.849 -2.1215 -0.1615 -0.3170
   25SAPC  C313 3370   0.121   5.287   7.949  0.1397  0.6732 -0.5011
   25SAPC  H13X 3371   0.086   5.218   8.029 -2.8951  2.1786 -0.4472
   25SAPC  H13Y 3372   0.045   5.367   7.938 -0.0753  0.3606 -1.3963
   25SAPC  C314 3373   0.260   5.346   7.987  0.1622 -0.3465  0.6018
   25SAPC  H14X 3374   0.251   5.407   8.080  1.1042 -1.0814  1.1737
   25SAPC  H14Y 3375   0.300   5.417   7.912 -0.0387  0.6008  1.3706
   25SAPC  C315 3376   0.354   5.237   8.019 -0.6672 -0.4436 -0.9051
   25SAPC  H15X 3377   0.401   5.189   7.930  0.6644  1.5356 -1.2841
   25SAPC  H15Y 3378   0.299   5.161   8.079  0.2540 -0.5709 -0.2053
   25SAPC  C316 3379   0.470   5.289   8.110 -0.0053 -0.1564  0.4515
   25SAPC  H16X 3380   0.432   5.300   8.214  0.8718 -2.4528  1.0536
   25SAPC  H16Y 3381   0.505   5.385   8.068 -0.3812  0.4414  1.4894
   25SAPC  C317 3382   0.591   5.197   8.134 -0.2599  0.5400 -0.0095
   25SAPC  H17X 3383   0.545   5.096   8.139  0.0331  0.3249 -1.3671
   25SAPC  H17Y 3384   0.637   5.219   8.232  2.4027 -2.9636 -0.3691
   25SAPC  C318 3385   0.684   5.193   8.012  0.4124  0.2554  0.3589
   25SAPC  H18X 3386   0.636   5.150   7.922  0.2702  2.5998 -0.7339
   25SAPC  H18Y 3387   0.781   5.142   8.029  0.5317 -0.1270 -1.3457
   25SAPC  H18Z 3388   0.712   5.296   7.980  3.5780 -1.0277 -1.3122
   26SAPC     N 3389   6.081   6.469   6.370  0.1580  0.3556 -0.4351
   26SAPC   C12 3390   6.194   6.388   6.430  0.0557 -0.9840  0.2115
   26SAPC  H12A 3391   6.157   6.343   6.521  0.4053  0.3020  1.0063
   26SAPC  H12B 3392   6.283   6.446   6.449 -0.1388 -0.3518 -0.8084
   26SAPC   C13 3393   6.042   6.582   6.459 -0.1532  0.2666 -0.2304
   26SAPC  H13A 3394   5.976   6.550   6.538  0.1588  2.2468  0.8518
   26SAPC  H13B 3395   6.132   6.618   6.507 -0.5568 -0.6869  1.2597
   26SAPC  H13C 3396   5.986   6.662   6.414 -0.7705  0.3322  0.6491
   26SAPC   C14 3397   6.108   6.520   6.231 -0.2680 -0.2817  0.9049
   26SAPC  H14A 3398   6.022   6.568   6.187  1.2932  2.5876  0.7887
   26SAPC  H14B 3399   6.189   6.592   6.237  0.8368 -1.3259 -0.9664
   26SAPC  H14C 3400   6.147   6.438   6.173  0.9314 -0.3129  1.7473
   26SAPC   C15 3401   5.968   6.372   6.354  0.0705 -0.8075 -0.5455
   26SAPC  H15A 3402   6.005   6.293   6.290 -1.0845 -2.7419  1.1265
   26SAPC  H15B 3403   5.932   6.325   6.444 -1.5238 -3.4918 -2.5089
   26SAPC  H15C 3404   5.890   6.419   6.297  1.1536  1.0039 -0.5890
   26SAPC   C11 3405   6.239   6.268   6.332 -0.4788  0.3973  0.7940
   26SAPC  H11A 3406   6.161   6.191   6.309  0.3377  0.2892 -1.7347
   26SAPC  H11B 3407   6.300   6.209   6.404  0.4941  0.6108  0.1406
   26SAPC     P 3408   6.441   6.382   6.203 -0.2182 -0.3132  0.2277
   26SAPC   O13 3409   6.546   6.284   6.178 -0.8423  0.1144  0.7605
   26SAPC   O14 3410   6.431   6.497   6.114 -0.1450 -0.3445 -0.1586
   26SAPC   O12 3411   6.299   6.308   6.205  0.0420  0.5726 -0.3394
   26SAPC   O11 3412   6.456   6.441   6.350  0.3337 -0.5843 -0.1611
   26SAPC    C1 3413   6.542   6.547   6.379 -0.0780 -0.0443 -0.0917
   26SAPC    HA 3414   6.628   6.504   6.435  1.5518  0.3766 -2.2235
   26SAPC    HB 3415   6.584   6.600   6.291  0.0378  1.9611  1.1528
   26SAPC    C2 3416   6.475   6.647   6.476  0.7029  0.1545  0.1579
   26SAPC    HS 3417   6.554   6.716   6.512 -1.4046  1.8193  1.7452
   26SAPC   O21 3418   6.406   6.576   6.585  0.1079  0.4418  0.1389
   26SAPC   C21 3419   6.480   6.532   6.674  0.1323  0.3876 -0.2891
   26SAPC   O22 3420   6.605   6.532   6.678  0.4972 -0.5391 -0.0906
   26SAPC   C22 3421   6.403   6.475   6.786  0.3886  0.1122  0.0803
   26SAPC   H2R 3422   6.294   6.492   6.772  0.1602 -0.0377  1.6078
   26SAPC   H2S 3423   6.416   6.365   6.780 -0.0390  0.1534 -2.1624
   26SAPC    C3 3424   6.373   6.730   6.400 -0.3542 -0.0248 -0.0656
   26SAPC    HX 3425   6.296   6.661   6.359  1.7441 -2.3226 -0.2665
   26SAPC    HY 3426   6.421   6.785   6.316 -1.1509  0.1497 -0.4220
   26SAPC   O31 3427   6.314   6.833   6.473  0.7720  0.4163  0.0221
   26SAPC   C31 3428   6.384   6.943   6.496  0.3885 -0.8943  0.4283
   26SAPC   O32 3429   6.506   6.952   6.476 -0.3112 -0.0935 -0.2507
   26SAPC   C32 3430   6.291   7.058   6.538 -0.7019  0.2144  0.0498
   26SAPC   H2X 3431   6.189   7.017   6.551 -1.2462  1.0525 -1.4497
   26SAPC   H2Y 3432   6.298   7.134   6.457  0.5996  0.0150 -0.0321
   26SAPC   C23 3433   6.449   6.534   6.922  0.1351 -0.3490  0.5578
   26SAPC   H3R 3434   6.448   6.645   6.922 -1.2568 -0.3140 -2.4171
   26SAPC   H3S 3435   6.553   6.501   6.942  0.0409 -0.7623  0.3851
   26SAPC   C24 3436   6.358   6.483   7.032 -0.4388 -1.2327 -0.0302
   26SAPC   H4R 3437   6.379   6.377   7.061 -0.4578 -1.5310 -1.0875
   26SAPC   H4S 3438   6.255   6.478   6.991 -0.6458  0.1563  0.3148
   26SAPC   C25 3439   6.350   6.567   7.157 -0.3281 -0.2364  0.9111
   26SAPC   H5R 3440   6.300   6.662   7.133  0.4076 -0.4378 -1.5865
   26SAPC   C26 3441   6.411   6.542   7.274 -0.0055  0.6316  0.1398
   26SAPC   H6R 3442   6.394   6.603   7.364 -0.0821  2.4132 -1.0611
   26SAPC   C27 3443   6.483   6.407   7.309  0.0917 -0.3527  0.0857
   26SAPC   H7R 3444   6.554   6.388   7.225  0.2306  1.9183 -0.3442
   26SAPC   H7S 3445   6.418   6.319   7.290 -0.3959 -0.9577  4.1693
   26SAPC   C28 3446   6.559   6.393   7.438 -0.3505 -0.8378 -0.6738
   26SAPC   H8R 3447   6.664   6.366   7.427 -0.4054 -1.2120 -0.2626
   26SAPC   C29 3448   6.500   6.397   7.557  0.0894  0.1665  0.7171
   26SAPC   H9R 3449   6.563   6.393   7.647  2.9858 -0.0562 -1.2637
   26SAPC  C210 3450   6.346   6.418   7.584 -0.2579 -0.8913  0.3798
   26SAPC  H10R 3451   6.295   6.324   7.613 -1.2516 -1.5166 -3.1307
   26SAPC  H10S 3452   6.296   6.449   7.490  2.5150  1.4802 -0.4008
   26SAPC  C211 3453   6.344   6.522   7.696  0.2299  0.5790  0.9160
   26SAPC  H11R 3454   6.374   6.622   7.661  1.0547  0.1142  0.2541
   26SAPC  C212 3455   6.266   6.501   7.807 -0.7320 -0.2844  0.3031
   26SAPC  H12R 3456   6.265   6.575   7.888 -2.4696  0.1952 -0.1310
   26SAPC  C213 3457   6.180   6.379   7.849  0.1431 -0.6406  0.3344
   26SAPC  H13R 3458   6.241   6.287   7.860  0.2777 -0.4970  0.8091
   26SAPC  H13S 3459   6.116   6.357   7.761  0.2242 -0.3403  0.1995
   26SAPC  C214 3460   6.089   6.379   7.967  0.0383  0.5660  0.5313
   26SAPC  H14R 3461   5.982   6.395   7.944 -0.1361 -1.4394 -0.1509
   26SAPC  C215 3462   6.137   6.375   8.090 -0.2966  0.2070 -0.2224
   26SAPC  H15R 3463   6.070   6.378   8.177 -0.2545 -2.0791 -0.0710
   26SAPC  C216 3464   6.285   6.358   8.129  0.4128 -0.1187 -0.4827
   26SAPC  H16R 3465   6.347   6.427   8.067 -0.3754 -0.6796 -1.9245
   26SAPC  H16S 3466   6.319   6.254   8.112 -0.8946 -0.2955 -2.0498
   26SAPC  C217 3467   6.303   6.380   8.272  0.2565  0.2976  0.1817
   26SAPC  H17R 3468   6.226   6.332   8.336 -1.6480  0.8923 -1.6253
   26SAPC  H17S 3469   6.301   6.490   8.292  1.6949  0.5660 -1.0599
   26SAPC  C218 3470   6.437   6.339   8.332 -0.7043 -0.2068  0.7482
   26SAPC  H18R 3471   6.523   6.374   8.272 -0.3639 -1.3038  0.6051
   26SAPC  H18S 3472   6.450   6.229   8.338  1.9377  0.0910  0.8747
   26SAPC  C219 3473   6.448   6.393   8.472 -0.3934  0.0438  0.2742
   26SAPC  H19R 3474   6.412   6.498   8.473 -2.3372 -0.6004 -0.1817
   26SAPC  H19S 3475   6.558   6.388   8.488 -0.3302 -0.8547 -0.3462
   26SAPC  C220 3476   6.384   6.312   8.587  0.0774 -0.6194  0.8889
   26SAPC  H20R 3477   6.416   6.354   8.684 -0.6743  2.5356 -0.1629
   26SAPC  H20S 3478   6.416   6.206   8.575  2.1446  0.2891 -2.4656
   26SAPC  H20T 3479   6.273   6.318   8.576  0.3397 -0.1253 -1.9657
   26SAPC   C33 3480   6.337   7.111   6.679  0.0311 -0.1357  0.2273
   26SAPC   H3X 3481   6.263   7.181   6.722  0.2767  0.7573 -0.7472
   26SAPC   H3Y 3482   6.434   7.166   6.667 -0.5301  1.5730  3.2175
   26SAPC   C34 3483   6.357   6.997   6.784 -0.0341 -0.6207 -0.3428
   26SAPC   H4X 3484   6.429   6.921   6.747  1.0882 -0.5150  1.5283
   26SAPC   H4Y 3485   6.258   6.948   6.792 -0.4085  0.2128  0.2349
   26SAPC   C35 3486   6.403   7.035   6.924  0.2398  0.1725  0.9424
   26SAPC   H5X 3487   6.355   7.134   6.938 -0.5730 -0.3020  1.4640
   26SAPC   H5Y 3488   6.513   7.053   6.923  0.3747 -0.6037  0.0192
   26SAPC   C36 3489   6.371   6.934   7.029 -0.2416  0.2718  0.1707
   26SAPC   H6X 3490   6.430   6.839   7.027  0.2820  0.5861  0.7278
   26SAPC   H6Y 3491   6.264   6.906   7.017 -0.1889  0.3230 -0.4383
   26SAPC   C37 3492   6.379   7.000   7.168  0.3810 -0.2323  0.5896
   26SAPC   H7X 3493   6.299   7.076   7.176 -1.8020 -2.3476 -0.2406
   26SAPC   H7Y 3494   6.478   7.048   7.167 -0.3122  1.2979  2.9535
   26SAPC   C38 3495   6.355   6.902   7.288  0.0834  0.2479  0.2562
   26SAPC   H8X 3496   6.409   6.807   7.268 -0.7186 -0.1300 -0.1352
   26SAPC   H8Y 3497   6.249   6.868   7.295 -0.3828  1.4142 -0.8698
   26SAPC   C39 3498   6.395   6.962   7.422  0.3548  0.1991 -0.1538
   26SAPC   H9X 3499   6.338   7.054   7.448  1.6823  0.7140  1.0018
   26SAPC   H9Y 3500   6.502   6.993   7.421  0.2344  0.6450  0.4166
   26SAPC  C310 3501   6.361   6.859   7.531 -0.4785  0.3553  0.4401
   26SAPC  H10X 3502   6.450   6.793   7.533  0.2401  1.2422 -1.2503
   26SAPC  H10Y 3503   6.270   6.798   7.511  0.3003 -0.4603 -0.6506
   26SAPC  C311 3504   6.351   6.917   7.677  0.3373  0.0455 -0.0875
   26SAPC  H11X 3505   6.322   6.831   7.741 -0.5714  1.1925  1.0735
   26SAPC  H11Y 3506   6.267   6.990   7.673  0.0572 -0.2610  0.2917
   26SAPC  C312 3507   6.486   6.987   7.726  0.6147  0.3934 -0.2305
   26SAPC  H12X 3508   6.504   7.058   7.642 -1.7416  0.4875 -0.7133
   26SAPC  H12Y 3509   6.562   6.909   7.707 -1.5583 -1.4028 -1.9529
   26SAPC  C313 3510   6.491   7.046   7.868 -0.4456  0.6317 -0.2937
   26SAPC  H13X 3511   6.459   6.970   7.943 -2.7017  2.0141  0.1981
   26SAPC  H13Y 3512   6.420   7.130   7.853 -0.9247  0.1896 -0.5536
   26SAPC  C314 3513   6.629   7.102   7.904  0.6025  0.0824  0.8153
   26SAPC  H14X 3514   6.676   7.118   7.804 -0.5477 -1.5997 -0.0213
   26SAPC  H14Y 3515   6.693   7.020   7.944 -0.9152 -2.2779 -1.4075
   26SAPC  C315 3516   6.630   7.236   7.984  0.0126 -0.6334 -0.3162
   26SAPC  H15X 3517   6.573   7.315   7.931 -0.0523  0.5135  1.4287
   26SAPC  H15Y 3518   6.737   7.265   7.986 -0.2401  0.3577 -0.9422
   26SAPC  C316 3519   6.580   7.222   8.125  0.3075 -0.4185 -0.0243
   26SAPC  H16X 3520   6.657   7.163   8.178  0.0300  0.7515  1.7380
   26SAPC  H16Y 3521   6.481   7.173   8.136  0.5873 -0.6294  1.6107
   26SAPC  C317 3522   6.564   7.359   8.196 -0.3887 -0.0130 -0.1637
   26SAPC  H17X 3523   6.630   7.427   8.138  1.4248 -1.5616  0.0475
   26SAPC  H17Y 3524   6.604   7.357   8.299 -0.0967  0.8190 -0.2536
   26SAPC  C318 3525   6.421   7.408   8.210  0.2890 -0.2829  0.6029
   26SAPC  H18X 3526   6.409   7.507   8.259 -2.7157  0.3049 -1.1533
   26SAPC  H18Y 3527   6.361   7.332   8.266 -0.2161 -1.1403 -1.0654
   26SAPC  H18Z 3528   6.378   7.421   8.108  1.9682  0.3882 -0.0185
   27SAPC     N 3529   3.717   0.506   6.715  0.1973  0.4372 -0.0575
   27SAPC   C12 3530   3.822   0.546   6.819 -0.7019 -0.1640  0.9823
   27SAPC  H12A 3531   3.775   0.611   6.890 -0.5936  0.6528  0.3115
   27SAPC  H12B 3532   3.907   0.601   6.782 -1.0902  1.1021  1.9677
   27SAPC   C13 3533   3.647   0.630   6.669  0.0960 -0.6419  0.6787
   27SAPC  H13A 3534   3.711   0.688   6.604 -2.7699 -0.0843 -1.7410
   27SAPC  H13B 3535   3.561   0.610   6.607  0.2938  0.7947 -0.0602
   27SAPC  H13C 3536   3.612   0.698   6.745  0.2120 -0.3808  0.5001
   27SAPC   C14 3537   3.787   0.439   6.597 -0.4147 -0.1996  0.0304
   27SAPC  H14A 3538   3.840   0.351   6.629 -3.0929 -1.7241  0.4834
   27SAPC  H14B 3539   3.710   0.393   6.536 -0.7984 -3.1375  2.6355
   27SAPC  H14C 3540   3.847   0.512   6.544  0.9200 -1.7829 -0.6757
   27SAPC   C15 3541   3.619   0.407   6.762 -0.2559  0.0228 -0.7534
   27SAPC  H15A 3542   3.671   0.314   6.783 -0.6947 -0.1516 -0.4121
   27SAPC  H15B 3543   3.574   0.432   6.857  0.7311  2.5988 -0.9419
   27SAPC  H15C 3544   3.555   0.381   6.679 -1.2928 -1.7061  0.5392
   27SAPC   C11 3545   3.863   0.421   6.912 -0.7744  0.5992  0.0892
   27SAPC  H11A 3546   3.784   0.410   6.989 -1.9819  3.5541 -0.6573
   27SAPC  H11B 3547   3.949   0.460   6.970 -1.6259  2.3276  0.2173
   27SAPC     P 3548   4.032   0.258   6.806  0.3225 -0.3702 -0.3976
   27SAPC   O13 3549   4.092   0.346   6.709  0.6898 -0.4677 -0.2640
   27SAPC   O14 3550   4.102   0.243   6.933  0.0722  0.3696  0.0317
   27SAPC   O12 3551   3.888   0.303   6.832  0.5342  0.1643 -0.1695
   27SAPC   O11 3552   4.014   0.114   6.737 -0.5911 -0.4781 -0.2473
   27SAPC    C1 3553   3.892   0.056   6.687  0.3396 -0.1897 -0.5135
   27SAPC    HA 3554   3.808   0.129   6.693  1.9900  1.6146  1.4149
   27SAPC    HB 3555   3.897   0.037   6.578 -0.5836 -1.5970 -0.3331
   27SAPC    C2 3556   3.858  -0.079   6.762  0.1042 -0.0106  0.3039
   27SAPC    HS 3557   3.762  -0.125   6.728  0.4012 -0.9969  0.7833
   27SAPC   O21 3558   3.851  -0.060   6.904 -0.1098 -0.0372  0.0801
   27SAPC   C21 3559   3.745   0.011   6.944  0.5151  0.3102 -0.7952
   27SAPC   O22 3560   3.653   0.051   6.874  0.4835 -0.1861 -0.2588
   27SAPC   C22 3561   3.753   0.024   7.089 -0.5988  0.8188 -0.1121
   27SAPC   H2R 3562   3.810  -0.059   7.135 -2.0102  0.8411  1.7203
   27SAPC   H2S 3563   3.802   0.122   7.106  2.0555 -0.0220 -2.5074
   27SAPC    C3 3564   3.977  -0.173   6.729  0.7671 -0.9117  0.1404
   27SAPC    HX 3565   4.063  -0.120   6.774 -1.1679  1.0700  1.6104
   27SAPC    HY 3566   3.977  -0.189   6.619  1.4476  0.6700 -0.0911
   27SAPC   O31 3567   3.974  -0.303   6.803  0.1795 -0.5662 -0.5524
   27SAPC   C31 3568   4.086  -0.377   6.783 -0.3214 -1.0116  0.5557
   27SAPC   O32 3569   4.182  -0.345   6.714 -0.0773  0.2322 -0.1657
   27SAPC   C32 3570   4.065  -0.510   6.856 -0.2373 -0.1458  0.7617
   27SAPC   H2X 3571   3.991  -0.557   6.787  0.5466  0.3108 -0.4082
   27SAPC   H2Y 3572   4.016  -0.480   6.951  2.2039  1.6064  1.5051
   27SAPC   C23 3573   3.612   0.037   7.161 -0.9818  0.9533  0.1830
   27SAPC   H3R 3574   3.548  -0.052   7.139  1.7870 -1.5294  1.9212
   27SAPC   H3S 3575   3.552   0.121   7.119 -2.5164  0.4787  1.3859
   27SAPC   C24 3576   3.635   0.053   7.309 -0.6786 -0.5163 -0.2517
   27SAPC   H4R 3577   3.698   0.136   7.347 -0.3609 -2.1750  2.9830
   27SAPC   H4S 3578   3.701  -0.034   7.328 -0.0224 -0.2048 -1.0703
   27SAPC   C25 3579   3.495   0.058   7.368  0.1981 -0.4091  0.4009
   27SAPC   H5R 3580   3.417   0.066   7.291  0.0788  0.1317  0.5779
   27SAPC   C26 3581   3.480   0.074   7.497 -0.2839 -0.1089 -0.7440
   27SAPC   H6R 3582   3.381   0.092   7.541  0.7336  0.5164  1.3824
   27SAPC   C27 3583   3.591   0.080   7.608  0.4707  0.0084  0.1836
   27SAPC   H7R 3584   3.680   0.133   7.570  0.2394  1.2769  1.3423
   27SAPC   H7S 3585   3.623  -0.024   7.630 -1.1607 -0.7098 -0.7221
   27SAPC   C28 3586   3.543   0.156   7.731 -0.0596  0.2977 -0.0158
   27SAPC   H8R 3587   3.567   0.263   7.729  1.1171  0.0475 -0.0366
   27SAPC   C29 3588   3.473   0.115   7.839 -0.1990 -0.6968  0.0871
   27SAPC   H9R 3589   3.450   0.191   7.915  2.3687  0.2301 -0.0160
   27SAPC  C210 3590   3.422  -0.026   7.863 -0.2335 -0.3169  0.7473
   27SAPC  H10R 3591   3.411  -0.073   7.763  1.6935 -1.0709  0.8674
   27SAPC  H10S 3592   3.326  -0.011   7.918  0.3573  2.1654  1.1646
   27SAPC  C211 3593   3.521  -0.109   7.949  0.7344 -0.0165  0.3088
   27SAPC  H11R 3594   3.602  -0.158   7.893  0.2719  1.5104 -1.7956
   27SAPC  C212 3595   3.521  -0.114   8.086 -0.5638  0.4790  0.2481
   27SAPC  H12R 3596   3.600  -0.176   8.130 -0.7230 -0.8783 -1.3364
   27SAPC  C213 3597   3.429  -0.038   8.178  0.1145 -0.3558 -0.6115
   27SAPC  H13R 3598   3.340  -0.099   8.205  1.1483 -2.0201 -0.8951
   27SAPC  H13S 3599   3.384   0.049   8.126  0.7267  0.5079  0.2954
   27SAPC  C214 3600   3.491   0.017   8.307  0.2902  0.3513  0.2762
   27SAPC  H14R 3601   3.527   0.121   8.300  1.9845 -0.1986  0.5112
   27SAPC  C215 3602   3.499  -0.044   8.428 -0.4692  0.1007 -0.0108
   27SAPC  H15R 3603   3.562   0.001   8.506  0.2032 -0.0165 -0.4792
   27SAPC  C216 3604   3.455  -0.184   8.462  0.3396  0.4781  0.1671
   27SAPC  H16R 3605   3.471  -0.253   8.377 -3.7801 -1.5894  0.9403
   27SAPC  H16S 3606   3.348  -0.165   8.483 -0.1418 -1.5378 -0.3293
   27SAPC  C217 3607   3.530  -0.231   8.589  0.2537 -0.3653  0.6190
   27SAPC  H17R 3608   3.519  -0.158   8.671 -0.5235  2.5184 -1.9840
   27SAPC  H17S 3609   3.638  -0.253   8.570  1.0948  1.3390  3.2280
   27SAPC  C218 3610   3.478  -0.360   8.643 -0.3640  0.2901 -0.0147
   27SAPC  H18R 3611   3.476  -0.430   8.556  2.7267  0.5867 -0.3709
   27SAPC  H18S 3612   3.372  -0.345   8.670 -0.1870  2.7229 -0.5037
   27SAPC  C219 3613   3.558  -0.426   8.758  0.0550  0.0353 -0.1959
   27SAPC  H19R 3614   3.566  -0.355   8.843 -2.3804  0.3038 -0.1680
   27SAPC  H19S 3615   3.656  -0.458   8.715  0.4401  1.7384 -0.6313
   27SAPC  C220 3616   3.484  -0.553   8.799  0.0021  0.1277  0.1372
   27SAPC  H20R 3617   3.453  -0.619   8.715  0.8053 -1.3767  1.0152
   27SAPC  H20S 3618   3.388  -0.534   8.853  0.4906 -2.4431  2.0005
   27SAPC  H20T 3619   3.555  -0.606   8.867  0.6609  0.2658 -0.4400
   27SAPC   C33 3620   4.187  -0.604   6.878  0.2103  0.8297  0.4911
   27SAPC   H3X 3621   4.245  -0.553   6.958  2.0922 -0.7555  0.1835
   27SAPC   H3Y 3622   4.250  -0.597   6.786 -2.6226  1.7081 -1.4467
   27SAPC   C34 3623   4.158  -0.751   6.917  0.2726  0.3899  0.1357
   27SAPC   H4X 3624   4.249  -0.813   6.916  1.1314  1.6228  0.8133
   27SAPC   H4Y 3625   4.093  -0.799   6.840  0.9116  2.4701 -1.7809
   27SAPC   C35 3626   4.089  -0.767   7.055  0.1907 -0.0145 -0.9994
   27SAPC   H5X 3627   4.050  -0.871   7.058  0.8512 -0.2435  0.3127
   27SAPC   H5Y 3628   4.003  -0.699   7.072  0.5261 -0.2439  1.9763
   27SAPC   C36 3629   4.183  -0.740   7.172  0.6732 -0.4428  0.1014
   27SAPC   H6X 3630   4.215  -0.634   7.167 -1.5411  0.2762  0.6119
   27SAPC   H6Y 3631   4.265  -0.816   7.170  2.0246  0.9733  0.4078
   27SAPC   C37 3632   4.104  -0.768   7.302 -0.9483 -0.4150 -0.7447
   27SAPC   H7X 3633   4.055  -0.867   7.287 -0.4806 -0.4983 -1.8124
   27SAPC   H7Y 3634   4.036  -0.683   7.323  0.1026  0.1625  0.3730
   27SAPC   C38 3635   4.190  -0.784   7.434 -0.0969  0.6812  0.2056
   27SAPC   H8X 3636   4.267  -0.706   7.449  0.0164  0.5465  0.3241
   27SAPC   H8Y 3637   4.234  -0.886   7.428 -0.9488  0.3546 -0.7675
   27SAPC   C39 3638   4.099  -0.784   7.558  0.6933 -0.3017 -0.7888
   27SAPC   H9X 3639   4.024  -0.865   7.550 -2.4850  2.6638 -2.5389
   27SAPC   H9Y 3640   4.027  -0.699   7.559  0.1386 -0.6879  4.4746
   27SAPC  C310 3641   4.184  -0.776   7.686 -0.0246 -0.2822 -0.2010
   27SAPC  H10X 3642   4.252  -0.689   7.684  0.7653 -0.8987 -0.6426
   27SAPC  H10Y 3643   4.258  -0.858   7.695  1.8084  1.4578  0.9468
   27SAPC  C311 3644   4.096  -0.772   7.810  0.5455  0.2194 -0.7803
   27SAPC  H11X 3645   4.058  -0.875   7.819  0.4753  0.4020  1.2199
   27SAPC  H11Y 3646   4.022  -0.690   7.792  0.6185  0.5895  0.5841
   27SAPC  C312 3647   4.186  -0.742   7.936 -0.3801 -0.4660  0.5408
   27SAPC  H12X 3648   4.257  -0.660   7.913  0.5160 -1.3180  0.2309
   27SAPC  H12Y 3649   4.244  -0.832   7.965  0.6572  0.7965  2.4586
   27SAPC  C313 3650   4.109  -0.705   8.066  1.3905  0.3703 -0.2190
   27SAPC  H13X 3651   4.016  -0.765   8.075  0.7626  1.5259  1.4380
   27SAPC  H13Y 3652   4.063  -0.603   8.068  0.2630 -0.1220 -0.7406
   27SAPC  C314 3653   4.194  -0.728   8.194  0.6918 -0.2638  0.3785
   27SAPC  H14X 3654   4.287  -0.667   8.196 -1.0212  2.3936  2.4376
   27SAPC  H14Y 3655   4.224  -0.835   8.204 -2.0575 -1.2547 -1.4149
   27SAPC  C315 3656   4.107  -0.710   8.321 -0.3103 -0.4402  0.2497
   27SAPC  H15X 3657   4.015  -0.772   8.315  0.6902 -2.3649  3.7849
   27SAPC  H15Y 3658   4.069  -0.607   8.339  0.2343 -0.4960  1.7623
   27SAPC  C316 3659   4.198  -0.748   8.439 -0.1595  0.2331 -0.5744
   27SAPC  H16X 3660   4.299  -0.701   8.439 -0.4318  0.8854  2.2256
   27SAPC  H16Y 3661   4.205  -0.858   8.429  0.1176  0.2907 -1.0435
   27SAPC  C317 3662   4.140  -0.721   8.579  0.2014 -0.1527  0.2062
   27SAPC  H17X 3663   4.037  -0.761   8.585  0.6017 -0.9130  2.4443
   27SAPC  H17Y 3664   4.115  -0.613   8.593  0.5004 -0.1497  0.7269
   27SAPC  C318 3665   4.209  -0.773   8.704 -0.3978 -0.0818 -0.2072
   27SAPC  H18X 3666   4.205  -0.884   8.709  0.3044 -0.1831 -1.7008
   27SAPC  H18Y 3667   4.158  -0.736   8.796 -0.4669 -0.8455  0.0675
   27SAPC  H18Z 3668   4.317  -0.749   8.699 -0.2225 -0.3663  1.6614
   28SAPC     N 3669   2.808   3.161   6.296 -0.1729 -0.1004 -0.3847
   28SAPC   C12 3670   2.659   3.210   6.290  0.7089  0.1353  0.7930
   28SAPC  H12A 3671   2.596   3.126   6.270  2.2144 -0.4164 -1.8548
   28SAPC  H12B 3672   2.647   3.279   6.208  2.2633  0.7748  1.0816
   28SAPC   C13 3673   2.857   3.099   6.169  0.4895  0.1181  0.5793
   28SAPC  H13A 3674   2.800   3.009   6.154  0.4395  0.0840  0.9729
   28SAPC  H13B 3675   2.852   3.164   6.083 -0.1623  1.1700  1.3966
   28SAPC  H13C 3676   2.960   3.070   6.182  0.1955 -2.0298 -1.5766
   28SAPC   C14 3677   2.893   3.277   6.344  0.3751  0.7640 -0.3847
   28SAPC  H14A 3678   2.847   3.325   6.429 -0.6861 -1.6098  0.4349
   28SAPC  H14B 3679   2.994   3.245   6.369 -0.2811 -0.4517  0.7437
   28SAPC  H14C 3680   2.895   3.350   6.264 -3.4476  1.2418 -0.1357
   28SAPC   C15 3681   2.814   3.049   6.400 -0.3717 -0.3528 -1.1147
   28SAPC  H15A 3682   2.756   2.962   6.376 -2.4285  0.7231 -0.1449
   28SAPC  H15B 3683   2.918   3.019   6.409 -0.3238  0.1956  0.3811
   28SAPC  H15C 3684   2.784   3.084   6.498 -0.1401 -2.4367 -0.2586
   28SAPC   C11 3685   2.602   3.274   6.415  0.0037 -0.5755 -0.2917
   28SAPC  H11A 3686   2.601   3.200   6.498 -0.5357  1.8813  1.9510
   28SAPC  H11B 3687   2.493   3.276   6.394  0.2020  1.9477 -1.1739
   28SAPC     P 3688   2.626   3.519   6.348  0.2265 -0.0799 -0.1152
   28SAPC   O13 3689   2.757   3.584   6.323  0.0222 -0.0082  0.2496
   28SAPC   O14 3690   2.555   3.472   6.232  0.2941 -0.2358 -0.1395
   28SAPC   O12 3691   2.648   3.404   6.444 -0.3169  0.2792 -0.3538
   28SAPC   O11 3692   2.533   3.621   6.430  0.0842 -0.2256  0.0005
   28SAPC    C1 3693   2.563   3.658   6.562 -0.1829 -0.7408  0.1906
   28SAPC    HA 3694   2.671   3.638   6.578 -0.3121 -1.2962  0.3724
   28SAPC    HB 3695   2.543   3.767   6.572  0.6951 -0.5238 -0.3130
   28SAPC    C2 3696   2.470   3.579   6.664  0.0318 -0.3408 -0.5360
   28SAPC    HS 3697   2.481   3.471   6.637  0.5917 -0.9670  2.0576
   28SAPC   O21 3698   2.330   3.621   6.651 -0.1152 -0.3086  0.1491
   28SAPC   C21 3699   2.257   3.544   6.571 -0.1780  0.5039  0.1873
   28SAPC   O22 3700   2.295   3.443   6.516  0.3538 -0.3823  0.0829
   28SAPC   C22 3701   2.120   3.605   6.551  0.0678 -0.2583  0.2244
   28SAPC   H2R 3702   2.123   3.704   6.602 -1.1620 -0.9493  1.6906
   28SAPC   H2S 3703   2.111   3.622   6.441  1.7733 -1.7784 -0.1570
   28SAPC    C3 3704   2.517   3.604   6.804  0.5980 -0.2628  0.2553
   28SAPC    HX 3705   2.500   3.708   6.841 -0.7206 -0.0650 -0.9055
   28SAPC    HY 3706   2.626   3.586   6.793  0.4769 -1.3475  0.7668
   28SAPC   O31 3707   2.453   3.515   6.897 -0.8496  0.5328  0.2326
   28SAPC   C31 3708   2.489   3.386   6.912  0.2113  0.2446 -0.0684
   28SAPC   O32 3709   2.589   3.336   6.873 -0.4721 -0.2392  0.2403
   28SAPC   C32 3710   2.374   3.315   6.991  0.2789  0.4331  0.0754
   28SAPC   H2X 3711   2.395   3.206   6.988  1.8295  0.7565 -2.0017
   28SAPC   H2Y 3712   2.271   3.333   6.951 -0.7349 -0.7607  2.0912
   28SAPC   C23 3713   2.015   3.516   6.609  0.0374  0.4906 -0.3410
   28SAPC   H3R 3714   1.997   3.417   6.563 -1.3581  0.0422  1.0971
   28SAPC   H3S 3715   1.924   3.579   6.600 -0.7876 -0.6330  0.0077
   28SAPC   C24 3716   2.040   3.488   6.763  0.2852  0.3588  0.4024
   28SAPC   H4R 3717   1.996   3.389   6.790  0.7905  0.7434  2.7206
   28SAPC   H4S 3718   2.147   3.461   6.777  0.5345 -0.3710 -2.5408
   28SAPC   C25 3719   2.016   3.603   6.855  0.6556  0.2961  0.3828
   28SAPC   H5R 3720   2.041   3.702   6.813 -0.7631 -0.3657 -2.1146
   28SAPC   C26 3721   1.974   3.603   6.992 -0.6160  0.5503 -0.8132
   28SAPC   H6R 3722   1.965   3.695   7.051  1.7945  0.6894 -0.6086
   28SAPC   C27 3723   1.942   3.472   7.073 -0.6180  0.0917 -0.5659
   28SAPC   H7R 3724   2.043   3.436   7.100 -0.5957 -0.4500 -1.3629
   28SAPC   H7S 3725   1.885   3.394   7.019 -0.1244  0.5662 -1.7863
   28SAPC   C28 3726   1.855   3.500   7.189  0.3604 -0.3136 -0.8194
   28SAPC   H8R 3727   1.749   3.519   7.168  0.3893  0.9184  0.1261
   28SAPC   C29 3728   1.894   3.506   7.315 -0.2408 -0.2688  0.6147
   28SAPC   H9R 3729   1.814   3.531   7.385 -1.4820  2.3417 -1.6528
   28SAPC  C210 3730   2.041   3.488   7.364  0.3180 -0.7136  0.4351
   28SAPC  H10R 3731   2.112   3.550   7.306 -0.1889 -1.3123 -0.8258
   28SAPC  H10S 3732   2.077   3.385   7.343 -2.0162 -1.1817 -1.4207
   28SAPC  C211 3733   2.039   3.524   7.507 -0.4812  0.6735  0.0755
   28SAPC  H11R 3734   2.011   3.629   7.524 -0.5628  0.5882  0.4891
   28SAPC  C212 3735   2.039   3.440   7.611  0.0033  0.2240  0.7628
   28SAPC  H12R 3736   2.026   3.480   7.712 -0.5094 -0.6033  1.0238
   28SAPC  C213 3737   2.063   3.296   7.600 -0.4454  0.3681 -0.2697
   28SAPC  H13R 3738   2.173   3.286   7.613 -0.6866 -2.2660  0.0155
   28SAPC  H13S 3739   2.046   3.260   7.497 -0.5203  1.7774 -0.7535
   28SAPC  C214 3740   1.994   3.207   7.709  0.0274 -0.7591  0.4796
   28SAPC  H14R 3741   1.913   3.142   7.670 -0.8155  0.1973  0.6181
   28SAPC  C215 3742   2.022   3.211   7.835 -0.0787  0.4808 -0.5089
   28SAPC  H15R 3743   1.969   3.139   7.900 -0.6925 -1.5440 -3.1962
   28SAPC  C216 3744   2.126   3.294   7.910 -0.3611  0.3569 -0.5729
   28SAPC  H16R 3745   2.077   3.367   7.977 -0.7011  0.4314 -0.8995
   28SAPC  H16S 3746   2.197   3.350   7.845  2.4079  0.3482  2.2958
   28SAPC  C217 3747   2.216   3.204   7.991  0.1823  0.2418 -0.4801
   28SAPC  H17R 3748   2.228   3.106   7.941 -1.4612 -0.2535  0.0545
   28SAPC  H17S 3749   2.162   3.191   8.088  1.3515  0.7499  0.2543
   28SAPC  C218 3750   2.351   3.267   8.027 -0.0661 -0.2575 -0.5959
   28SAPC  H18R 3751   2.336   3.356   8.091  0.2443 -3.2949  3.8994
   28SAPC  H18S 3752   2.404   3.289   7.932  0.1231  0.1464 -0.3957
   28SAPC  C219 3753   2.433   3.176   8.109  0.3862  0.1776  0.4646
   28SAPC  H19R 3754   2.450   3.086   8.047 -3.0598  0.7874 -1.4994
   28SAPC  H19S 3755   2.379   3.160   8.204  0.8927 -0.1502  0.6928
   28SAPC  C220 3756   2.573   3.227   8.156  0.4065 -0.0936 -0.2729
   28SAPC  H20R 3757   2.560   3.335   8.181 -1.0164 -0.1846 -0.5799
   28SAPC  H20S 3758   2.650   3.218   8.077  1.2280  0.7601  0.4244
   28SAPC  H20T 3759   2.603   3.161   8.240  0.2881  0.2756  0.0618
   28SAPC   C33 3760   2.376   3.363   7.141  0.0485  1.5374  0.4746
   28SAPC   H3X 3761   2.281   3.334   7.190  0.5177  0.0513  0.5163
   28SAPC   H3Y 3762   2.390   3.473   7.154  3.8096  1.0436  1.2514
   28SAPC   C34 3763   2.466   3.280   7.229 -0.2870 -0.0862  0.2108
   28SAPC   H4X 3764   2.576   3.293   7.214  0.1835 -1.8919  1.8335
   28SAPC   H4Y 3765   2.448   3.171   7.218  0.5680 -0.3393  1.2028
   28SAPC   C35 3766   2.445   3.313   7.380 -0.2159  0.3355 -0.8156
   28SAPC   H5X 3767   2.339   3.294   7.407 -0.1347  0.8072 -0.1457
   28SAPC   H5Y 3768   2.467   3.421   7.397 -0.2421 -0.0150  1.6633
   28SAPC   C36 3769   2.544   3.233   7.474 -0.1207  0.4153 -0.5330
   28SAPC   H6X 3770   2.648   3.256   7.442  0.5633  0.6700  1.7747
   28SAPC   H6Y 3771   2.530   3.124   7.459 -0.7664  0.2571  1.0776
   28SAPC   C37 3772   2.526   3.259   7.630 -1.1233 -0.3362  0.2014
   28SAPC   H7X 3773   2.440   3.207   7.679 -0.1741 -0.4284  1.8282
   28SAPC   H7Y 3774   2.503   3.367   7.647  0.4537 -0.1021  0.9129
   28SAPC   C38 3775   2.647   3.202   7.707 -0.1585 -0.9006 -0.2472
   28SAPC   H8X 3776   2.608   3.198   7.811 -0.5333  4.0045 -0.1244
   28SAPC   H8Y 3777   2.738   3.263   7.686  0.3445 -0.4971  2.7707
   28SAPC   C39 3778   2.695   3.066   7.660 -0.1727 -0.0322 -0.5560
   28SAPC   H9X 3779   2.737   3.067   7.557  2.1315 -1.6189  0.3440
   28SAPC   H9Y 3780   2.609   2.997   7.676  2.0549 -2.6217  0.4310
   28SAPC  C310 3781   2.806   3.014   7.755  0.1491 -0.2926  0.3590
   28SAPC  H10X 3782   2.821   2.906   7.736  1.1152  0.0770 -1.0505
   28SAPC  H10Y 3783   2.778   3.024   7.862 -0.0096 -2.0553  0.4919
   28SAPC  C311 3784   2.947   3.075   7.746  0.5708  0.4630 -0.4959
   28SAPC  H11X 3785   2.948   3.182   7.776  1.4801  0.2078  0.4205
   28SAPC  H11Y 3786   2.988   3.072   7.643  0.3723 -1.4967 -0.5436
   28SAPC  C312 3787   3.045   3.019   7.849  0.2622  0.3905  0.3132
   28SAPC  H12X 3788   3.147   3.064   7.848  0.8404 -0.8832  0.7823
   28SAPC  H12Y 3789   3.070   2.912   7.832  0.1736  0.3439  0.4755
   28SAPC  C313 3790   3.001   3.031   7.999 -0.2830 -0.6053  0.3351
   28SAPC  H13X 3791   2.938   2.945   8.031  0.9286 -1.2448  1.0184
   28SAPC  H13Y 3792   2.930   3.116   8.008 -1.2666 -1.5474  1.7045
   28SAPC  C314 3793   3.128   3.051   8.095 -0.1703 -0.1710  0.4680
   28SAPC  H14X 3794   3.089   3.092   8.191  0.1082  0.4406  0.3187
   28SAPC  H14Y 3795   3.187   3.118   8.030  0.1801 -0.5320  0.4059
   28SAPC  C315 3796   3.206   2.918   8.116 -0.7862  0.3815 -0.3516
   28SAPC  H15X 3797   3.286   2.951   8.186 -1.1023  0.0487  0.1697
   28SAPC  H15Y 3798   3.251   2.880   8.022 -1.0995 -1.0484  0.0647
   28SAPC  C316 3799   3.119   2.811   8.183  0.6317  0.1711  0.0700
   28SAPC  H16X 3800   3.084   2.744   8.101 -0.0808 -0.1357  0.6183
   28SAPC  H16Y 3801   3.030   2.870   8.213  2.4777  2.9550  0.2580
   28SAPC  C317 3802   3.194   2.740   8.288  0.6239 -0.8958  0.0518
   28SAPC  H17X 3803   3.292   2.701   8.253  0.5781 -1.6289  0.7252
   28SAPC  H17Y 3804   3.134   2.653   8.323 -0.7486 -0.1636 -0.4495
   28SAPC  C318 3805   3.213   2.830   8.408  0.4457 -0.3262 -0.7845
   28SAPC  H18X 3806   3.271   2.922   8.383  0.1944  1.0739  3.5337
   28SAPC  H18Y 3807   3.268   2.785   8.493  0.3996 -0.8910 -1.0498
   28SAPC  H18Z 3808   3.114   2.856   8.449  0.3263 -1.6605 -0.2064
   29SAPC     N 3809   5.744   0.975   6.476  0.1512  0.3438 -0.0592
   29SAPC   C12 3810   5.878   0.964   6.535 -0.2191  0.3946  0.3377
   29SAPC  H12A 3811   5.868   0.873   6.593 -0.6693 -0.3136 -0.8140
   29SAPC  H12B 3812   5.904   1.038   6.609 -0.1675 -0.1469  0.8645
   29SAPC   C13 3813   5.730   1.100   6.396  0.0934 -0.3281  0.7267
   29SAPC  H13A 3814   5.793   1.095   6.308 -1.8828  3.8063 -1.0527
   29SAPC  H13B 3815   5.630   1.113   6.359  0.3733 -1.2514 -0.3836
   29SAPC  H13C 3816   5.753   1.191   6.450  2.1571 -0.7617  0.6338
   29SAPC   C14 3817   5.716   0.855   6.394  0.4264 -0.0506 -0.4683
   29SAPC  H14A 3818   5.638   0.874   6.323 -0.4970 -0.0345  0.5369
   29SAPC  H14B 3819   5.803   0.833   6.334  0.0589 -1.1204 -0.6281
   29SAPC  H14C 3820   5.676   0.773   6.453 -0.2480  1.3839  1.1041
   29SAPC   C15 3821   5.642   0.993   6.590  0.5547  0.5790 -0.3694
   29SAPC  H15A 3822   5.636   0.909   6.658 -0.0361 -0.5253 -1.7554
   29SAPC  H15B 3823   5.659   1.078   6.654 -2.5085  0.7138  0.3502
   29SAPC  H15C 3824   5.544   1.015   6.549  0.5908 -0.1966 -0.8696
   29SAPC   C11 3825   5.998   0.937   6.433 -0.5977 -0.7088 -0.2321
   29SAPC  H11A 3826   6.090   0.924   6.495 -0.0765  2.8532 -0.1734
   29SAPC  H11B 3827   6.011   1.030   6.375 -3.3984  0.4777  0.9455
   29SAPC     P 3828   6.035   0.678   6.395 -0.3046  0.2422 -0.0649
   29SAPC   O13 3829   5.985   0.581   6.298  0.2015  0.1064  0.7653
   29SAPC   O14 3830   6.183   0.687   6.405  0.1140  0.2468 -0.2999
   29SAPC   O12 3831   5.989   0.822   6.344  0.2546 -0.3026  0.1701
   29SAPC   O11 3832   5.969   0.667   6.543 -0.2918  0.1731  0.5637
   29SAPC    C1 3833   6.026   0.578   6.640 -0.0802 -0.1305  0.2672
   29SAPC    HA 3834   6.086   0.492   6.603  1.5656  1.0210  0.1856
   29SAPC    HB 3835   6.095   0.634   6.707  0.2148  1.3745 -1.2455
   29SAPC    C2 3836   5.928   0.536   6.748 -0.0566  0.8842 -0.2911
   29SAPC    HS 3837   5.854   0.616   6.768 -0.5154  0.3369  0.2492
   29SAPC   O21 3838   5.996   0.491   6.868 -0.0910 -0.8916 -0.5101
   29SAPC   C21 3839   6.032   0.577   6.954  0.1769 -0.5261 -0.4151
   29SAPC   O22 3840   6.016   0.698   6.942 -0.3411  0.0071 -0.3345
   29SAPC   C22 3841   6.097   0.502   7.068 -0.1341  0.5011 -0.3254
   29SAPC   H2R 3842   6.022   0.433   7.111 -1.1560  1.4584 -0.5379
   29SAPC   H2S 3843   6.189   0.455   7.029  1.5492  1.7769  1.9770
   29SAPC    C3 3844   5.850   0.413   6.688 -0.5267  0.2920  0.0553
   29SAPC    HX 3845   5.933   0.349   6.651 -0.6720  0.2640 -0.2199
   29SAPC    HY 3846   5.790   0.434   6.597  0.9088 -0.9766 -1.2344
   29SAPC   O31 3847   5.775   0.329   6.778 -0.2539  0.6414  0.1033
   29SAPC   C31 3848   5.647   0.363   6.807 -0.0527  0.3118 -0.2908
   29SAPC   O32 3849   5.588   0.464   6.773 -0.3325  0.4025  0.3158
   29SAPC   C32 3850   5.605   0.250   6.901 -0.0177  0.4541  0.3326
   29SAPC   H2X 3851   5.649   0.263   7.003  1.0113  0.9979 -0.1702
   29SAPC   H2Y 3852   5.638   0.154   6.857 -0.7022  0.3008  0.1551
   29SAPC   C23 3853   6.156   0.599   7.177 -0.8380 -0.2489 -0.3919
   29SAPC   H3R 3854   6.076   0.669   7.210 -2.3940 -3.0139  2.0052
   29SAPC   H3S 3855   6.230   0.661   7.123 -1.1459  1.6757  1.2931
   29SAPC   C24 3856   6.230   0.524   7.293  0.2452  0.8463 -0.4078
   29SAPC   H4R 3857   6.323   0.470   7.263 -1.8093 -2.7221 -0.5981
   29SAPC   H4S 3858   6.162   0.458   7.350  0.3439  2.3716  1.5710
   29SAPC   C25 3859   6.278   0.622   7.403  0.1307  0.4182 -0.3114
   29SAPC   H5R 3860   6.314   0.720   7.369  1.0784  0.3117  0.3535
   29SAPC   C26 3861   6.257   0.605   7.535 -0.2575 -0.3951  0.2259
   29SAPC   H6R 3862   6.277   0.692   7.599 -2.6549  1.1136 -0.9833
   29SAPC   C27 3863   6.185   0.498   7.607  0.6823 -0.2199  0.6668
   29SAPC   H7R 3864   6.248   0.439   7.676 -1.4616 -0.7360  2.2233
   29SAPC   H7S 3865   6.154   0.417   7.537  0.6624  0.4684 -0.1307
   29SAPC   C28 3866   6.051   0.548   7.666 -0.1280  0.4833 -0.5462
   29SAPC   H8R 3867   5.981   0.591   7.594 -1.8813 -0.4587  0.5517
   29SAPC   C29 3868   6.012   0.514   7.797 -0.1799  0.0813 -0.0202
   29SAPC   H9R 3869   5.911   0.546   7.825 -0.0397  0.1757  0.3830
   29SAPC  C210 3870   6.087   0.439   7.904 -0.1720  0.2589  0.5769
   29SAPC  H10R 3871   6.167   0.500   7.952 -1.3818  0.8849  1.8701
   29SAPC  H10S 3872   6.139   0.353   7.857  0.4592  0.0589  1.6333
   29SAPC  C211 3873   5.988   0.368   7.998  0.8350  0.2065 -0.7225
   29SAPC  H11R 3874   5.885   0.407   7.999  0.7463  0.0088 -1.5206
   29SAPC  C212 3875   6.022   0.282   8.090 -0.0894 -0.7733 -0.2106
   29SAPC  H12R 3876   5.941   0.260   8.162 -0.1501  0.0317 -0.0296
   29SAPC  C213 3877   6.156   0.232   8.125 -0.4996  0.4522 -0.5357
   29SAPC  H13R 3878   6.225   0.312   8.090 -1.1307  1.2342 -0.0370
   29SAPC  H13S 3879   6.178   0.135   8.076 -0.7730  0.1546 -0.0714
   29SAPC  C214 3880   6.171   0.217   8.279  0.1898  0.3639 -0.7070
   29SAPC  H14R 3881   6.091   0.253   8.345 -1.1087 -2.0429 -0.9009
   29SAPC  C215 3882   6.277   0.148   8.335 -0.2738 -0.1223  0.3057
   29SAPC  H15R 3883   6.277   0.143   8.445  0.7625  0.3773  0.3362
   29SAPC  C216 3884   6.391   0.084   8.253 -0.1739 -0.5887  0.4153
   29SAPC  H16R 3885   6.478   0.153   8.247 -0.9190  0.3741  0.5618
   29SAPC  H16S 3886   6.361   0.060   8.149  0.7273 -0.5449  0.1446
   29SAPC  C217 3887   6.440  -0.050   8.310  0.4657  0.2485 -0.5787
   29SAPC  H17R 3888   6.360  -0.127   8.317 -0.6762  1.2911 -1.9511
   29SAPC  H17S 3889   6.481  -0.033   8.412  2.9048 -1.2744 -1.2714
   29SAPC  C218 3890   6.550  -0.103   8.216 -1.1416  0.0450 -0.0551
   29SAPC  H18R 3891   6.494  -0.123   8.123 -0.1498  0.3370 -0.7232
   29SAPC  H18S 3892   6.580  -0.199   8.264  3.0217  1.1037 -0.3496
   29SAPC  C219 3893   6.673  -0.005   8.199  0.7723  0.1326  0.0391
   29SAPC  H19R 3894   6.690   0.057   8.290 -0.9267  0.8554 -0.0962
   29SAPC  H19S 3895   6.653   0.075   8.124 -1.3134 -0.0474  0.3656
   29SAPC  C220 3896   6.797  -0.081   8.152 -0.4596  1.0429 -0.3530
   29SAPC  H20R 3897   6.833  -0.154   8.228 -1.3842 -0.0122 -0.8963
   29SAPC  H20S 3898   6.887  -0.021   8.131 -0.2362  0.0695 -2.3260
   29SAPC  H20T 3899   6.770  -0.155   8.073 -0.2267 -0.4182  0.9083
   29SAPC   C33 3900   5.455   0.257   6.923  0.7526 -0.2969 -0.6624
   29SAPC   H3X 3901   5.402   0.284   6.830 -1.2532 -0.4499  0.4136
   29SAPC   H3Y 3902   5.423   0.344   6.984  3.7214  1.5636 -1.6348
   29SAPC   C34 3903   5.405   0.129   7.006  0.3221  0.2057  0.3262
   29SAPC   H4X 3904   5.445   0.037   6.959 -0.0208  0.7324 -1.0104
   29SAPC   H4Y 3905   5.294   0.122   7.008  0.3669 -1.6733 -2.2232
   29SAPC   C35 3906   5.449   0.142   7.155 -0.0544 -0.1382  0.9166
   29SAPC   H5X 3907   5.446   0.250   7.180 -0.7645  0.6709 -2.5209
   29SAPC   H5Y 3908   5.557   0.121   7.170  0.7403  2.1904 -1.1719
   29SAPC   C36 3909   5.361   0.064   7.251 -0.1064  0.1858  0.7638
   29SAPC   H6X 3910   5.375  -0.046   7.250  0.7738  0.2427  3.3876
   29SAPC   H6Y 3911   5.254   0.079   7.223 -0.7787 -0.3798  2.8621
   29SAPC   C37 3912   5.386   0.105   7.396 -0.4043 -0.1978  0.3838
   29SAPC   H7X 3913   5.365   0.213   7.410 -2.1874 -0.0956 -2.5619
   29SAPC   H7Y 3914   5.494   0.085   7.411 -0.9947 -3.2911  0.9667
   29SAPC   C38 3915   5.310   0.022   7.495 -0.3342 -0.2308 -0.5940
   29SAPC   H8X 3916   5.336  -0.086   7.485 -0.4221 -0.2992 -0.1078
   29SAPC   H8Y 3917   5.203   0.035   7.472 -0.4793  0.2951  0.3341
   29SAPC   C39 3918   5.338   0.069   7.640 -0.5710 -0.0639  0.0013
   29SAPC   H9X 3919   5.275   0.159   7.659  0.1163  0.2323  0.8898
   29SAPC   H9Y 3920   5.443   0.103   7.648 -0.5956  0.1902 -0.6972
   29SAPC  C310 3921   5.299  -0.039   7.747  0.1638 -1.1301 -0.1108
   29SAPC  H10X 3922   5.354  -0.133   7.726 -2.5057 -2.3070 -2.1284
   29SAPC  H10Y 3923   5.191  -0.061   7.737  0.5943 -2.5582 -1.9131
   29SAPC  C311 3924   5.329  -0.009   7.893  0.0886 -0.0891 -0.3765
   29SAPC  H11X 3925   5.252   0.066   7.925  0.2213 -0.6904  1.4078
   29SAPC  H11Y 3926   5.433   0.025   7.909  0.1554 -0.8761  0.8905
   29SAPC  C312 3927   5.336  -0.141   7.980  0.7695 -0.2321  0.1995
   29SAPC  H12X 3928   5.429  -0.200   7.964  1.7940  1.8821 -2.0634
   29SAPC  H12Y 3929   5.257  -0.209   7.942 -0.2176  0.9740  0.0674
   29SAPC  C313 3930   5.304  -0.115   8.126 -0.6108 -0.9960 -0.6357
   29SAPC  H13X 3931   5.194  -0.107   8.140 -0.4574  2.2126 -0.8078
   29SAPC  H13Y 3932   5.343  -0.015   8.155  1.1935 -1.7650 -0.3845
   29SAPC  C314 3933   5.370  -0.229   8.218  0.5992  0.4021  0.0911
   29SAPC  H14X 3934   5.480  -0.225   8.231  0.8851 -1.3683 -1.5336
   29SAPC  H14Y 3935   5.345  -0.328   8.173 -2.8904  2.6614 -3.2064
   29SAPC  C315 3936   5.296  -0.230   8.353 -0.6812 -0.9014 -0.3616
   29SAPC  H15X 3937   5.280  -0.334   8.388  3.3096 -1.6748 -0.5445
   29SAPC  H15Y 3938   5.192  -0.191   8.352 -0.3355  0.1306  1.2385
   29SAPC  C316 3939   5.362  -0.153   8.467  1.2601 -0.5718 -0.4993
   29SAPC  H16X 3940   5.467  -0.186   8.482  0.6265 -1.9711  1.1118
   29SAPC  H16Y 3941   5.310  -0.193   8.557  0.4041  0.5297 -0.5031
   29SAPC  C317 3942   5.365   0.003   8.465 -1.0430 -0.4494  0.1661
   29SAPC  H17X 3943   5.426   0.036   8.378  0.6758  0.6131  1.7383
   29SAPC  H17Y 3944   5.423   0.035   8.554 -1.0181 -0.0305 -0.0011
   29SAPC  C318 3945   5.227   0.075   8.459  0.6482  0.1347  0.1206
   29SAPC  H18X 3946   5.157   0.022   8.391  0.6824  0.2249  0.0151
   29SAPC  H18Y 3947   5.243   0.177   8.419  0.1688  0.1138 -0.1312
   29SAPC  H18Z 3948   5.169   0.078   8.554 -0.4020  0.0457 -0.5133
   30SAPC     N 3949   0.030   0.146   6.266  0.8947  0.0398 -0.0262
   30SAPC   C12 3950   0.043   0.119   6.113  0.3765 -0.4764  0.3089
   30SAPC  H12A 3951  -0.057   0.122   6.073  0.2203  0.4692  0.7617
   30SAPC  H12B 3952   0.091   0.023   6.102 -1.3828 -1.4046  0.6848
   30SAPC   C13 3953  -0.026   0.025   6.338 -0.1769 -0.3378 -0.0955
   30SAPC  H13A 3954   0.026  -0.067   6.316  0.3089 -0.0378 -0.2292
   30SAPC  H13B 3955  -0.023   0.039   6.445 -0.0608 -1.3345  0.0329
   30SAPC  H13C 3956  -0.129   0.018   6.307 -0.5714  0.4810  0.9992
   30SAPC   C14 3957   0.162   0.189   6.318  0.2302  0.8869 -0.0776
   30SAPC  H14A 3958   0.191   0.264   6.245 -1.8424 -0.6945 -2.6246
   30SAPC  H14B 3959   0.151   0.231   6.417 -2.8944 -0.7118  0.3090
   30SAPC  H14C 3960   0.227   0.103   6.312  0.3965  0.6468  3.7027
   30SAPC   C15 3961  -0.071   0.251   6.291  0.1726  0.8330  0.4097
   30SAPC  H15A 3962  -0.169   0.226   6.252  0.9722 -0.2816 -0.9251
   30SAPC  H15B 3963  -0.087   0.266   6.397 -1.3553 -3.8729  0.9885
   30SAPC  H15C 3964  -0.034   0.339   6.240  1.1623  1.1701  1.7076
   30SAPC   C11 3965   0.120   0.224   6.026  0.5808  0.6738  0.1837
   30SAPC  H11A 3966   0.098   0.197   5.921  0.6112  0.5253  0.2143
   30SAPC  H11B 3967   0.230   0.212   6.027  0.4579 -0.5165  0.2549
   30SAPC     P 3968   0.181   0.482   6.024  0.2955 -0.0935 -0.5386
   30SAPC   O13 3969   0.288   0.431   5.937  0.2898  0.1558  0.6659
   30SAPC   O14 3970   0.106   0.595   5.970 -0.6759  0.6705  0.5777
   30SAPC   O12 3971   0.082   0.363   6.058  0.3097 -0.6069  0.2517
   30SAPC   O11 3972   0.244   0.530   6.166 -0.3128  0.2586  0.4414
   30SAPC    C1 3973   0.158   0.573   6.268 -0.5268  0.2520  0.0901
   30SAPC    HA 3974   0.104   0.661   6.227 -0.2151  0.0347 -0.7909
   30SAPC    HB 3975   0.074   0.504   6.288 -0.4791 -0.7469 -2.9083
   30SAPC    C2 3976   0.227   0.630   6.389  0.1814  0.0233 -0.0822
   30SAPC    HS 3977   0.304   0.705   6.361  0.9405 -0.1140  1.5849
   30SAPC   O21 3978   0.297   0.518   6.457  0.6194  0.7141 -0.0565
   30SAPC   C21 3979   0.419   0.543   6.484  0.0585 -0.2578  0.7684
   30SAPC   O22 3980   0.475   0.648   6.473 -0.2843  0.4266  0.5749
   30SAPC   C22 3981   0.485   0.412   6.538  0.1740 -0.3192 -0.4214
   30SAPC   H2R 3982   0.490   0.339   6.455 -0.7082  0.7338 -1.4052
   30SAPC   H2S 3983   0.590   0.438   6.562 -0.1644 -0.0821  0.8700
   30SAPC    C3 3984   0.132   0.710   6.485 -0.0554 -0.1385 -0.2908
   30SAPC    HX 3985   0.054   0.638   6.519  1.5810 -0.9346  1.8844
   30SAPC    HY 3986   0.094   0.796   6.426  1.9025  1.6714  1.0139
   30SAPC   O31 3987   0.202   0.755   6.606  0.9283 -0.0833  0.0375
   30SAPC   C31 3988   0.273   0.862   6.593  0.2001  0.5482 -0.8953
   30SAPC   O32 3989   0.279   0.929   6.490 -0.1874 -0.8406 -0.1363
   30SAPC   C32 3990   0.332   0.893   6.726 -0.1685  0.7878 -0.1858
   30SAPC   H2X 3991   0.382   0.804   6.770 -1.5579 -0.4929 -1.1565
   30SAPC   H2Y 3992   0.246   0.915   6.793 -0.2385  0.3489 -0.1296
   30SAPC   C23 3993   0.415   0.342   6.655  0.8663 -0.5041 -0.2889
   30SAPC   H3R 3994   0.470   0.250   6.684  2.4989  0.5457  0.0053
   30SAPC   H3S 3995   0.317   0.306   6.617 -0.9102  1.1365  2.5708
   30SAPC   C24 3996   0.403   0.428   6.782 -0.3374 -1.0568 -0.0705
   30SAPC   H4R 3997   0.354   0.364   6.859 -1.8936  0.3613  0.1815
   30SAPC   H4S 3998   0.338   0.515   6.758  0.9734 -0.0387  0.0138
   30SAPC   C25 3999   0.534   0.482   6.847 -0.1949  0.2160 -0.8710
   30SAPC   H5R 4000   0.606   0.516   6.772 -2.1271 -0.1309 -2.9349
   30SAPC   C26 4001   0.559   0.486   6.976 -0.3812 -0.1340 -0.0991
   30SAPC   H6R 4002   0.660   0.508   7.013 -0.3888 -2.3850  1.3408
   30SAPC   C27 4003   0.472   0.436   7.087  1.3808  0.2027 -0.3962
   30SAPC   H7R 4004   0.490   0.326   7.090 -0.1836 -0.1613 -3.0136
   30SAPC   H7S 4005   0.368   0.451   7.051  1.4086  3.9659  0.8359
   30SAPC   C28 4006   0.509   0.516   7.210  0.0269 -0.3285 -0.4523
   30SAPC   H8R 4007   0.474   0.620   7.207  0.0147 -0.2272  2.1898
   30SAPC   C29 4008   0.581   0.498   7.323 -0.5785 -0.1000 -0.3941
   30SAPC   H9R 4009   0.582   0.572   7.404  3.1067  1.1874 -1.4996
   30SAPC  C210 4010   0.658   0.363   7.354  0.0745  0.5526  0.0452
   30SAPC  H10R 4011   0.677   0.313   7.257 -0.5294  1.1560 -0.3909
   30SAPC  H10S 4012   0.588   0.290   7.401 -0.9708  0.5988 -1.4213
   30SAPC  C211 4013   0.794   0.391   7.430  0.2570 -0.3964  0.2889
   30SAPC  H11R 4014   0.883   0.386   7.366  0.1413  0.0989  0.0872
   30SAPC  C212 4015   0.805   0.407   7.563 -0.0032 -0.1835 -0.0128
   30SAPC  H12R 4016   0.906   0.419   7.604 -0.2080 -1.7449  0.9767
   30SAPC  C213 4017   0.687   0.414   7.650 -0.2033  0.3459  0.2741
   30SAPC  H13R 4018   0.587   0.410   7.600  1.7004 -2.3071 -3.5478
   30SAPC  H13S 4019   0.692   0.512   7.703  1.4004 -0.6794  2.0246
   30SAPC  C214 4020   0.686   0.303   7.750 -0.1510 -0.2345 -0.4471
   30SAPC  H14R 4021   0.677   0.203   7.704 -1.3003 -0.9001  1.1954
   30SAPC  C215 4022   0.687   0.311   7.883  0.1785 -0.8703 -0.5818
   30SAPC  H15R 4023   0.711   0.212   7.926  0.1871 -0.8538 -0.5490
   30SAPC  C216 4024   0.700   0.432   7.975 -0.3925 -0.4359  0.1380
   30SAPC  H16R 4025   0.600   0.477   7.993  0.0704 -0.0293  1.8349
   30SAPC  H16S 4026   0.756   0.518   7.933  2.0081 -2.4324 -0.9071
   30SAPC  C217 4027   0.777   0.406   8.107  0.3076  0.4766  0.5742
   30SAPC  H17R 4028   0.789   0.507   8.152 -1.2070  0.5123  0.9152
   30SAPC  H17S 4029   0.879   0.371   8.079  0.7881  2.9162 -0.8841
   30SAPC  C218 4030   0.694   0.327   8.209  0.0574  0.8479 -0.5106
   30SAPC  H18R 4031   0.643   0.241   8.160 -0.8570  2.0914 -1.7612
   30SAPC  H18S 4032   0.625   0.397   8.259 -0.6085  1.0768 -1.7198
   30SAPC  C219 4033   0.794   0.264   8.309  0.8253 -0.1931 -0.1107
   30SAPC  H19R 4034   0.862   0.346   8.340 -1.2390  0.6905  2.1678
   30SAPC  H19S 4035   0.859   0.192   8.255  1.1116  0.5276 -0.7283
   30SAPC  C220 4036   0.721   0.195   8.427  0.5759  0.5143  0.3743
   30SAPC  H20R 4037   0.787   0.129   8.486  2.3170 -0.6084 -2.6827
   30SAPC  H20S 4038   0.640   0.128   8.388  2.0585 -0.3992 -1.2236
   30SAPC  H20T 4039   0.681   0.271   8.498 -2.5053 -1.6640  1.0870
   30SAPC   C33 4040   0.433   1.011   6.719 -0.5190 -0.0700  0.2750
   30SAPC   H3X 4041   0.400   1.092   6.651 -1.1540  0.7581  1.5303
   30SAPC   H3Y 4042   0.528   0.980   6.671 -0.7612 -3.4778  1.8890
   30SAPC   C34 4043   0.452   1.068   6.859  0.0925 -0.8386  0.0195
   30SAPC   H4X 4044   0.351   1.092   6.898  0.6224  0.7815  0.4228
   30SAPC   H4Y 4045   0.509   1.163   6.861  0.2603 -0.9269  3.4546
   30SAPC   C35 4046   0.521   0.978   6.961 -0.2024 -0.6898 -0.1334
   30SAPC   H5X 4047   0.618   0.950   6.916 -0.0329  0.4731 -0.5187
   30SAPC   H5Y 4048   0.459   0.886   6.968  0.1312 -0.8459  0.9299
   30SAPC   C36 4049   0.530   1.049   7.095  0.2622  0.1128  0.6874
   30SAPC   H6X 4050   0.447   1.116   7.126 -0.7040  0.5730 -2.6851
   30SAPC   H6Y 4051   0.613   1.121   7.081  2.3128 -2.2216  0.3959
   30SAPC   C37 4052   0.580   0.965   7.205  0.1933  0.6290  0.1078
   30SAPC   H7X 4053   0.683   0.934   7.180 -0.8832 -1.3879 -2.0435
   30SAPC   H7Y 4054   0.517   0.873   7.210 -0.3681  1.0248  0.3493
   30SAPC   C38 4055   0.569   1.029   7.344 -0.7904  0.1461 -0.6286
   30SAPC   H8X 4056   0.626   0.974   7.422 -2.8465  0.4207  1.1205
   30SAPC   H8Y 4057   0.460   1.028   7.364 -0.8606  0.1893 -1.0146
   30SAPC   C39 4058   0.624   1.169   7.344 -0.0461 -1.0298 -0.2664
   30SAPC   H9X 4059   0.547   1.238   7.305 -0.4633 -0.5354  1.3764
   30SAPC   H9Y 4060   0.698   1.169   7.262  0.1896  1.6689 -0.0960
   30SAPC  C310 4061   0.694   1.208   7.474 -0.1240  0.0690 -0.4993
   30SAPC  H10X 4062   0.735   1.310   7.457  0.4689 -0.3694 -1.8048
   30SAPC  H10Y 4063   0.779   1.137   7.475  0.0011  0.2143  1.2215
   30SAPC  C311 4064   0.602   1.199   7.597 -0.6755  0.4269 -0.1525
   30SAPC  H11X 4065   0.599   1.091   7.624  0.6114  0.1727 -0.9361
   30SAPC  H11Y 4066   0.506   1.240   7.559 -0.8322 -0.3633 -0.6234
   30SAPC  C312 4067   0.649   1.270   7.721 -0.4000  0.9845  0.7120
   30SAPC  H12X 4068   0.657   1.373   7.681 -0.3897  1.1423  1.1213
   30SAPC  H12Y 4069   0.753   1.243   7.748 -0.1876 -0.8692 -1.8135
   30SAPC  C313 4070   0.540   1.257   7.831 -0.0550  0.0350  0.1486
   30SAPC  H13X 4071   0.533   1.154   7.871  0.5154  0.3963  1.2095
   30SAPC  H13Y 4072   0.450   1.288   7.774  0.8254 -0.4668 -1.5537
   30SAPC  C314 4073   0.573   1.347   7.953  0.1370 -0.1515 -0.6025
   30SAPC  H14X 4074   0.516   1.442   7.949  0.4668  0.1437  1.0848
   30SAPC  H14Y 4075   0.683   1.366   7.956  0.6780 -3.1077 -0.0890
   30SAPC  C315 4076   0.560   1.281   8.088 -0.0783 -0.1019 -0.1144
   30SAPC  H15X 4077   0.610   1.182   8.074  1.8449  0.7655  0.4687
   30SAPC  H15Y 4078   0.452   1.271   8.115  0.4619 -2.5856  1.2339
   30SAPC  C316 4079   0.630   1.348   8.207  0.7859  0.0986  0.0487
   30SAPC  H16X 4080   0.623   1.459   8.195  1.9395  0.3723  1.7674
   30SAPC  H16Y 4081   0.735   1.317   8.225  0.6009 -0.9113 -0.6180
   30SAPC  C317 4082   0.572   1.313   8.342  0.5205  0.1538  0.2990
   30SAPC  H17X 4083   0.598   1.207   8.366  2.5089  0.6796  0.4954
   30SAPC  H17Y 4084   0.461   1.325   8.335  0.1557 -2.1439  1.3465
   30SAPC  C318 4085   0.636   1.392   8.457 -0.3846  0.3035 -0.1683
   30SAPC  H18X 4086   0.743   1.364   8.470 -0.4708 -0.2212 -0.5463
   30SAPC  H18Y 4087   0.584   1.363   8.550 -0.4297 -0.0189 -0.2921
   30SAPC  H18Z 4088   0.624   1.501   8.441  2.4054  0.5993 -0.5334
   31SAPC     N 4089   1.022   1.270   5.995  0.4493 -0.0303  1.1887
   31SAPC   C12 4090   1.173   1.266   6.030 -1.2075 -0.1795 -0.1392
   31SAPC  H12A 4091   1.206   1.360   6.071 -2.0289  1.4576 -3.1429
   31SAPC  H12B 4092   1.226   1.241   5.939 -0.7870 -2.4963  0.7041
   31SAPC   C13 4093   0.932   1.336   6.093  0.3151  0.1790 -0.5483
   31SAPC  H13A 4094   0.935   1.284   6.188 -2.2304 -1.7714 -1.4789
   31SAPC  H13B 4095   0.958   1.440   6.105  0.4757 -0.0943  1.8727
   31SAPC  H13C 4096   0.828   1.338   6.062 -0.4118 -0.5322  1.6783
   31SAPC   C14 4097   0.998   1.332   5.855 -0.3123 -0.2852  0.9932
   31SAPC  H14A 4098   1.011   1.273   5.765 -0.4548  1.9351 -0.5155
   31SAPC  H14B 4099   0.902   1.380   5.851 -1.5209 -2.7344 -0.8038
   31SAPC  H14C 4100   1.059   1.421   5.845 -0.8901  0.0057  0.0693
   31SAPC   C15 4101   0.978   1.127   5.983 -0.4431  0.2277 -0.3502
   31SAPC  H15A 4102   0.873   1.115   5.958 -0.6639  1.2494  0.0642
   31SAPC  H15B 4103   1.044   1.078   5.913 -0.6692  3.1176 -2.6813
   31SAPC  H15C 4104   0.994   1.092   6.084 -1.0367  1.1670  0.0739
   31SAPC   C11 4105   1.219   1.147   6.122 -0.4061  0.6550  0.5990
   31SAPC  H11A 4106   1.319   1.181   6.156 -0.2453  0.3152  0.4747
   31SAPC  H11B 4107   1.224   1.051   6.065 -1.2512  1.2801 -0.5301
   31SAPC     P 4108   1.138   0.984   6.302  0.2670 -0.6994  0.4568
   31SAPC   O13 4109   1.066   0.992   6.431 -0.2700 -0.2030  0.0486
   31SAPC   O14 4110   1.095   0.881   6.202 -0.3283 -0.5795 -0.0232
   31SAPC   O12 4111   1.140   1.121   6.232  0.4061  0.6203 -0.0509
   31SAPC   O11 4112   1.291   0.963   6.340 -0.3613  0.3091 -0.2787
   31SAPC    C1 4113   1.361   1.046   6.426  0.5950  1.0520  1.0880
   31SAPC    HA 4114   1.453   1.091   6.384  0.7747 -0.5576 -0.3193
   31SAPC    HB 4115   1.296   1.131   6.456 -1.1934  0.2169 -0.3170
   31SAPC    C2 4116   1.397   0.981   6.564 -0.4309  0.4381  0.2252
   31SAPC    HS 4117   1.471   0.901   6.545 -0.0585  0.5936  1.0042
   31SAPC   O21 4118   1.277   0.926   6.631 -0.2053 -0.2119  0.6525
   31SAPC   C21 4119   1.246   0.802   6.590 -0.1770 -0.2299 -0.5834
   31SAPC   O22 4120   1.318   0.730   6.527 -0.5817 -0.0745 -0.8317
   31SAPC   C22 4121   1.102   0.765   6.637  0.6424 -0.4436 -0.5982
   31SAPC   H2R 4122   1.055   0.861   6.668  0.9344 -0.3490 -0.4438
   31SAPC   H2S 4123   1.042   0.724   6.554 -1.8637  0.4721  0.7287
   31SAPC    C3 4124   1.467   1.080   6.651 -0.2057 -0.3406 -0.3121
   31SAPC    HX 4125   1.389   1.143   6.700  0.1681  0.1345 -0.3288
   31SAPC    HY 4126   1.535   1.142   6.589  0.0817  1.0215  1.3432
   31SAPC   O31 4127   1.541   0.998   6.740  0.6225  0.1424 -0.2687
   31SAPC   C31 4128   1.600   1.054   6.851 -0.0673  0.2827  0.0168
   31SAPC   O32 4129   1.597   1.177   6.871 -0.2799  0.1397  0.0319
   31SAPC   C32 4130   1.679   0.952   6.935 -0.5251  0.8340  0.1166
   31SAPC   H2X 4131   1.785   0.984   6.931  0.0224 -0.9365 -0.2745
   31SAPC   H2Y 4132   1.666   0.853   6.886 -0.2586  0.7729  0.1720
   31SAPC   C23 4133   1.109   0.678   6.766 -0.2713 -0.2476 -0.0914
   31SAPC   H3R 4134   1.158   0.729   6.852  1.7429  0.0843 -1.4085
   31SAPC   H3S 4135   1.164   0.584   6.744  0.9569  1.2529 -3.8193
   31SAPC   C24 4136   0.981   0.625   6.820  0.8617  0.6300  0.0583
   31SAPC   H4R 4137   0.927   0.566   6.743 -2.3262  1.0686  1.8689
   31SAPC   H4S 4138   0.919   0.714   6.846  0.6868  0.6778 -0.5145
   31SAPC   C25 4139   1.008   0.524   6.932  0.5147 -0.4623  0.2720
   31SAPC   H5R 4140   1.064   0.436   6.897 -0.4834 -0.6728 -0.8229
   31SAPC   C26 4141   0.984   0.533   7.063  0.3561 -0.1035  0.2308
   31SAPC   H6R 4142   1.008   0.458   7.139 -2.8255 -0.8252  0.6130
   31SAPC   C27 4143   0.924   0.653   7.134  0.2424  0.0024 -0.4661
   31SAPC   H7R 4144   0.885   0.610   7.229 -1.4149 -0.5281 -1.3692
   31SAPC   H7S 4145   0.829   0.689   7.090 -0.1594 -0.4836 -0.0063
   31SAPC   C28 4146   1.023   0.761   7.165  0.1757 -0.0902 -0.3432
   31SAPC   H8R 4147   1.071   0.814   7.082 -0.2276 -1.4219 -1.4394
   31SAPC   C29 4148   1.046   0.816   7.285 -0.4608  1.2291  0.1460
   31SAPC   H9R 4149   1.125   0.892   7.281  0.4159  0.2988 -0.3382
   31SAPC  C210 4150   0.991   0.770   7.421  0.2205  0.4412 -0.2478
   31SAPC  H10R 4151   1.076   0.741   7.486 -1.3041 -2.8364  0.3779
   31SAPC  H10S 4152   0.925   0.681   7.413  0.1140  0.3617  1.3833
   31SAPC  C211 4153   0.903   0.872   7.484 -0.1522 -0.0916 -0.8334
   31SAPC  H11R 4154   0.893   0.966   7.426  1.4416  0.3876 -0.3795
   31SAPC  C212 4155   0.838   0.872   7.604 -1.2603 -0.2042 -0.6774
   31SAPC  H12R 4156   0.787   0.968   7.621 -0.8942  0.1153 -1.3587
   31SAPC  C213 4157   0.828   0.760   7.706 -0.1092 -0.4270 -0.2356
   31SAPC  H13R 4158   0.845   0.664   7.654 -2.2920 -1.3170  0.6319
   31SAPC  H13S 4159   0.726   0.760   7.751  0.6237 -2.4132  1.5262
   31SAPC  C214 4160   0.941   0.762   7.808 -0.2577  0.5398 -0.2207
   31SAPC  H14R 4161   1.039   0.730   7.769 -0.8342 -0.4572 -0.8660
   31SAPC  C215 4162   0.933   0.797   7.941  0.1665  0.4509 -0.0721
   31SAPC  H15R 4163   1.025   0.798   8.000  0.4383 -0.3511 -0.4760
   31SAPC  C216 4164   0.808   0.832   8.012  0.4801  0.2131  0.7974
   31SAPC  H16R 4165   0.722   0.770   7.979  0.3183  0.9175 -0.1262
   31SAPC  H16S 4166   0.777   0.936   7.989 -1.0685 -0.6833 -1.2818
   31SAPC  C217 4167   0.832   0.812   8.161 -0.7713 -0.2556  0.0121
   31SAPC  H17R 4168   0.864   0.710   8.190  3.6539  0.7575 -0.9263
   31SAPC  H17S 4169   0.736   0.810   8.217 -0.9627 -0.2975 -0.3153
   31SAPC  C218 4170   0.920   0.917   8.238  0.2443  0.4028 -0.1057
   31SAPC  H18R 4171   0.986   0.979   8.174  0.2020 -0.1648 -0.7089
   31SAPC  H18S 4172   0.986   0.854   8.301 -0.1056 -1.1074 -1.2168
   31SAPC  C219 4173   0.842   1.021   8.327  0.2484 -0.2804  0.2184
   31SAPC  H19R 4174   0.806   0.963   8.414 -0.6493 -2.3922 -1.5034
   31SAPC  H19S 4175   0.755   1.062   8.271  0.8704 -0.5947 -1.0140
   31SAPC  C220 4176   0.938   1.137   8.365  0.0203  0.1241 -0.1900
   31SAPC  H20R 4177   0.978   1.189   8.276  1.0434  0.0314  0.2023
   31SAPC  H20S 4178   1.029   1.108   8.423  0.4571  2.7105  0.4948
   31SAPC  H20T 4179   0.879   1.203   8.432 -0.3826  0.0761 -0.4983
   31SAPC   C33 4180   1.624   0.955   7.080 -0.0885 -0.0754  0.0818
   31SAPC   H3X 4181   1.658   0.863   7.133 -0.8273 -0.0539  0.5966
   31SAPC   H3Y 4182   1.513   0.956   7.085 -0.1137 -1.9103  0.1929
   31SAPC   C34 4183   1.681   1.069   7.163 -0.3109 -0.2502  0.0064
   31SAPC   H4X 4184   1.647   1.164   7.115 -1.6434 -0.1210  1.1704
   31SAPC   H4Y 4185   1.792   1.071   7.169 -0.3176 -0.1931  0.1101
   31SAPC   C35 4186   1.632   1.057   7.308 -0.6448 -0.7881 -0.2312
   31SAPC   H5X 4187   1.625   0.949   7.329  0.6261 -0.4666  2.0071
   31SAPC   H5Y 4188   1.526   1.088   7.323 -0.0264  0.7789  1.1545
   31SAPC   C36 4189   1.706   1.136   7.417  0.2986  0.1682 -1.1917
   31SAPC   H6X 4190   1.814   1.124   7.394  0.5484  1.8907 -0.9644
   31SAPC   H6Y 4191   1.671   1.099   7.516  0.3806  1.9762 -0.4734
   31SAPC   C37 4192   1.668   1.284   7.408  0.1133 -0.1062  0.0424
   31SAPC   H7X 4193   1.561   1.306   7.386 -0.0120  0.4970  1.1747
   31SAPC   H7Y 4194   1.727   1.335   7.329  0.0765  2.7551  1.7745
   31SAPC   C38 4195   1.703   1.363   7.534  0.3939  0.0546  0.3560
   31SAPC   H8X 4196   1.634   1.321   7.610 -1.9152  1.2974 -0.9833
   31SAPC   H8Y 4197   1.674   1.469   7.515 -2.6872 -0.7265  0.3773
   31SAPC   C39 4198   1.848   1.361   7.591  1.1809  0.4343 -1.2276
   31SAPC   H9X 4199   1.923   1.392   7.515  2.4256  0.7165  0.0978
   31SAPC   H9Y 4200   1.865   1.254   7.615 -1.2075  0.0512 -1.0692
   31SAPC  C310 4201   1.871   1.451   7.714  0.0695  0.2244  1.0703
   31SAPC  H10X 4202   1.864   1.556   7.680 -1.4981 -0.7519 -1.7614
   31SAPC  H10Y 4203   1.977   1.424   7.735  0.5619  0.1154 -1.4173
   31SAPC  C311 4204   1.784   1.414   7.838 -0.3569  0.4818 -0.1426
   31SAPC  H11X 4205   1.796   1.303   7.845  1.1669  0.5965 -0.7001
   31SAPC  H11Y 4206   1.674   1.424   7.822 -0.7126  0.3206  1.9661
   31SAPC  C312 4207   1.831   1.488   7.966 -0.0571  0.5614  0.2216
   31SAPC  H12X 4208   1.766   1.460   8.052 -0.2657  1.0277  0.2167
   31SAPC  H12Y 4209   1.800   1.592   7.944 -2.0247 -0.2051 -0.7379
   31SAPC  C313 4210   1.984   1.481   7.993  0.8105  0.5530  0.6676
   31SAPC  H13X 4211   2.035   1.548   7.921 -2.1916  1.3452 -0.8270
   31SAPC  H13Y 4212   2.026   1.379   7.994 -3.7163 -1.4476  1.6296
   31SAPC  C314 4213   2.005   1.538   8.137  0.2270 -0.1844 -0.0323
   31SAPC  H14X 4214   1.941   1.471   8.199  1.8773 -1.3196  0.4655
   31SAPC  H14Y 4215   1.961   1.639   8.147 -0.4041 -0.4227 -0.3973
   31SAPC  C315 4216   2.147   1.533   8.190 -1.1048 -0.4680 -0.0704
   31SAPC  H15X 4217   2.217   1.592   8.128  0.5126  0.9758  2.9792
   31SAPC  H15Y 4218   2.177   1.427   8.206 -0.3890 -0.1214  0.9615
   31SAPC  C316 4219   2.153   1.616   8.325 -0.2828  0.1527  0.2192
   31SAPC  H16X 4220   2.153   1.724   8.299  0.6022  0.3296  0.9401
   31SAPC  H16Y 4221   2.250   1.585   8.368  0.6074 -1.1135 -2.6192
   31SAPC  C317 4222   2.044   1.576   8.431 -0.0426 -0.7411 -0.5217
   31SAPC  H17X 4223   1.943   1.587   8.387  0.1464 -0.6855 -0.9442
   31SAPC  H17Y 4224   2.051   1.639   8.522 -1.6066  1.5360 -1.9271
   31SAPC  C318 4225   2.040   1.434   8.488  0.1464 -0.2328 -0.2688
   31SAPC  H18X 4226   2.127   1.401   8.549 -1.7983 -0.5843  2.3974
   31SAPC  H18Y 4227   2.029   1.354   8.411  2.0474 -1.0389  0.2711
   31SAPC  H18Z 4228   1.948   1.432   8.550 -1.0986 -0.4282 -2.0784
   32SAPC     N 4229   2.439   2.246   5.842  0.2252  0.8311 -0.1859
   32SAPC   C12 4230   2.443   2.362   5.942  0.1929  0.5229 -0.9005
   32SAPC  H12A 4231   2.403   2.445   5.885 -0.6865  1.2796  0.7929
   32SAPC  H12B 4232   2.546   2.388   5.960 -0.1115 -0.1011  1.9544
   32SAPC   C13 4233   2.302   2.201   5.824  0.2660 -0.1661  0.2847
   32SAPC  H13A 4234   2.266   2.154   5.915  0.3370 -1.5360 -0.3746
   32SAPC  H13B 4235   2.235   2.283   5.806  0.7033 -0.0240 -0.7464
   32SAPC  H13C 4236   2.298   2.127   5.745  1.7128 -0.9380  0.9141
   32SAPC   C14 4237   2.493   2.305   5.719 -0.5005 -0.4460 -0.6110
   32SAPC  H14A 4238   2.414   2.356   5.666 -0.6389 -2.2470 -2.2362
   32SAPC  H14B 4239   2.568   2.381   5.734 -1.4357  0.4379 -0.3522
   32SAPC  H14C 4240   2.532   2.231   5.651 -0.9652 -1.9707  0.7450
   32SAPC   C15 4241   2.538   2.139   5.893 -0.4294 -0.2591  0.5888
   32SAPC  H15A 4242   2.499   2.101   5.986  1.4228 -0.2242  1.4169
   32SAPC  H15B 4243   2.543   2.061   5.819  0.7482  0.1207  0.2383
   32SAPC  H15C 4244   2.634   2.189   5.900  0.0553 -0.9389 -1.0257
   32SAPC   C11 4245   2.361   2.346   6.074 -1.0132 -0.3634  0.2954
   32SAPC  H11A 4246   2.254   2.339   6.047 -0.8842  2.1208 -1.0401
   32SAPC  H11B 4247   2.375   2.439   6.132  0.5908 -0.7994  0.6394
   32SAPC     P 4248   2.504   2.226   6.264  0.2758  0.3189 -0.5351
   32SAPC   O13 4249   2.586   2.102   6.258 -0.2146 -0.4058 -0.3720
   32SAPC   O14 4250   2.579   2.348   6.273  0.0995 -0.5535  0.7728
   32SAPC   O12 4251   2.400   2.230   6.147 -0.1149  0.0642  1.0458
   32SAPC   O11 4252   2.418   2.217   6.397 -0.6242  0.8843 -0.0678
   32SAPC    C1 4253   2.288   2.267   6.423  0.5211 -0.2803 -0.4325
   32SAPC    HA 4254   2.237   2.306   6.332  0.0339 -1.6333 -0.7530
   32SAPC    HB 4255   2.224   2.183   6.456  0.3592  0.5898  1.5580
   32SAPC    C2 4256   2.276   2.365   6.536  0.2838 -0.0790 -0.4715
   32SAPC    HS 4257   2.329   2.457   6.504 -2.2096  1.2492 -0.8784
   32SAPC   O21 4258   2.328   2.297   6.651  0.1189 -0.2240 -0.2046
   32SAPC   C21 4259   2.397   2.377   6.730  0.0598  0.1729  0.1440
   32SAPC   O22 4260   2.418   2.500   6.721 -0.2343  0.3042  0.0042
   32SAPC   C22 4261   2.441   2.286   6.846 -0.1601 -0.2534 -0.1205
   32SAPC   H2R 4262   2.357   2.253   6.911 -1.4911  0.8534 -1.2608
   32SAPC   H2S 4263   2.498   2.201   6.802  1.5898  1.0137 -0.3460
   32SAPC    C3 4264   2.132   2.394   6.557  0.7854  0.9907 -0.0637
   32SAPC    HX 4265   2.071   2.302   6.574  2.2955 -0.0931 -0.3961
   32SAPC    HY 4266   2.099   2.441   6.462  1.2538 -0.4792 -0.9710
   32SAPC   O31 4267   2.114   2.500   6.660  0.6120 -0.1533 -0.0108
   32SAPC   C31 4268   1.990   2.523   6.695  0.0223 -0.7144 -0.2318
   32SAPC   O32 4269   1.892   2.467   6.643 -0.3803  0.2501 -0.5906
   32SAPC   C32 4270   1.991   2.626   6.808 -0.1491 -0.2510 -0.0553
   32SAPC   H2X 4271   1.906   2.696   6.789  0.9627  0.7221 -1.5387
   32SAPC   H2Y 4272   2.078   2.693   6.795 -1.1605  1.2475  0.7791
   32SAPC   C23 4273   2.545   2.356   6.945 -0.1601  0.2959  0.4225
   32SAPC   H3R 4274   2.512   2.457   6.976 -1.8640  1.0052 -3.4849
   32SAPC   H3S 4275   2.630   2.389   6.882 -1.3415  2.1643 -0.2080
   32SAPC   C24 4276   2.583   2.258   7.051 -0.0010 -0.3751 -0.4530
   32SAPC   H4R 4277   2.492   2.215   7.099 -0.6552  0.4277 -0.9593
   32SAPC   H4S 4278   2.630   2.332   7.119  1.7564 -0.0665 -1.9659
   32SAPC   C25 4279   2.685   2.158   7.007  0.6068 -0.3465  0.2709
   32SAPC   H5R 4280   2.650   2.094   6.924  1.1899 -1.2645  0.7292
   32SAPC   C26 4281   2.814   2.148   7.035  0.4084  0.0964 -0.2507
   32SAPC   H6R 4282   2.879   2.069   6.993 -1.2426 -2.2615  1.5185
   32SAPC   C27 4283   2.894   2.245   7.115  0.0603  0.2151 -0.0150
   32SAPC   H7R 4284   2.924   2.207   7.215 -1.0887 -2.4766 -0.6254
   32SAPC   H7S 4285   2.828   2.330   7.140  2.0863  0.6664  4.2250
   32SAPC   C28 4286   3.023   2.300   7.049 -0.0253 -0.3935 -0.0831
   32SAPC   H8R 4287   3.063   2.256   6.956  1.3530 -0.1749  0.3850
   32SAPC   C29 4288   3.091   2.413   7.089 -0.2895  0.2110  0.5161
   32SAPC   H9R 4289   3.163   2.455   7.017 -3.4518  1.2807 -2.1831
   32SAPC  C210 4290   3.063   2.491   7.210 -0.5702  0.2591  0.2722
   32SAPC  H10R 4291   3.052   2.419   7.294 -1.8465  0.9849  0.7349
   32SAPC  H10S 4292   2.969   2.547   7.189  0.6720  0.9417 -3.8506
   32SAPC  C211 4293   3.184   2.582   7.233 -0.0391  0.1828 -0.6235
   32SAPC  H11R 4294   3.273   2.521   7.252 -1.6437 -1.9137  0.3793
   32SAPC  C212 4295   3.197   2.711   7.223  0.0494  0.1310  0.2234
   32SAPC  H12R 4296   3.300   2.749   7.224 -1.0377  3.1347  1.1406
   32SAPC  C213 4297   3.091   2.816   7.199  0.1439  0.2743 -0.1783
   32SAPC  H13R 4298   3.022   2.781   7.119  0.7823  0.6986 -0.9223
   32SAPC  H13S 4299   3.136   2.910   7.160 -0.2212  1.7548  2.7558
   32SAPC  C214 4300   3.014   2.839   7.326  0.2974 -0.0873 -0.2612
   32SAPC  H14R 4301   3.037   2.767   7.406 -3.0101 -0.3445  0.4994
   32SAPC  C215 4302   2.924   2.942   7.343  0.7383  0.3092  0.1657
   32SAPC  H15R 4303   2.869   2.935   7.438  1.7502 -1.7734  0.6308
   32SAPC  C216 4304   2.894   3.047   7.241  0.3706  0.3422 -0.2995
   32SAPC  H16R 4305   2.784   3.062   7.244  0.2045 -1.0882  2.8462
   32SAPC  H16S 4306   2.911   3.014   7.136  0.1112  1.0120 -0.5529
   32SAPC  C217 4307   2.978   3.166   7.274 -0.2135  0.3591 -0.7826
   32SAPC  H17R 4308   3.084   3.161   7.242 -0.0087 -0.7811  0.0193
   32SAPC  H17S 4309   2.972   3.178   7.384 -2.6983  1.5585 -1.0212
   32SAPC  C218 4310   2.920   3.301   7.218 -0.2989 -0.0417  1.1353
   32SAPC  H18R 4311   2.999   3.377   7.234  0.3586 -0.3300 -0.7147
   32SAPC  H18S 4312   2.837   3.336   7.284 -0.2538  0.8571  0.7292
   32SAPC  C219 4313   2.880   3.301   7.073  0.6411 -0.0197  0.4981
   32SAPC  H19R 4314   2.846   3.401   7.038  0.2317  0.0674  1.1425
   32SAPC  H19S 4315   2.795   3.232   7.056 -0.5046  1.5830 -0.4811
   32SAPC  C220 4316   2.987   3.257   6.978 -0.5086  0.1718  0.1606
   32SAPC  H20R 4317   3.076   3.324   6.986 -0.3010  0.0583 -1.0809
   32SAPC  H20S 4318   2.950   3.270   6.874  1.8120  0.7884 -0.6210
   32SAPC  H20T 4319   3.032   3.160   7.009  1.6390  1.3116  0.7151
   32SAPC   C33 4320   1.992   2.556   6.944 -0.1246  0.2357  0.1433
   32SAPC   H3X 4321   1.920   2.471   6.951 -0.4525  0.5338  0.3754
   32SAPC   H3Y 4322   1.982   2.634   7.022 -1.3094  2.2557 -1.9318
   32SAPC   C34 4323   2.136   2.502   6.968 -0.1216 -0.4219 -0.0844
   32SAPC   H4X 4324   2.209   2.586   6.976  0.8456 -1.3050  0.4770
   32SAPC   H4Y 4325   2.167   2.435   6.885  3.4768  2.2171 -0.9961
   32SAPC   C35 4326   2.154   2.409   7.089  0.5248  0.3313 -0.2990
   32SAPC   H5X 4327   2.257   2.371   7.098 -0.0802 -0.7165  2.7653
   32SAPC   H5Y 4328   2.088   2.321   7.074 -1.2117  1.4545  0.5667
   32SAPC   C36 4329   2.120   2.488   7.217 -0.0413 -0.2217 -0.1466
   32SAPC   H6X 4330   2.029   2.551   7.209  0.3585  0.4643  0.7037
   32SAPC   H6Y 4331   2.208   2.553   7.237 -0.3206  0.4578 -1.0747
   32SAPC   C37 4332   2.116   2.402   7.339 -0.1751 -0.0262 -0.6656
   32SAPC   H7X 4333   2.208   2.340   7.349 -1.0341 -1.0568  1.1993
   32SAPC   H7Y 4334   2.023   2.341   7.344  0.1954 -0.7299 -2.0450
   32SAPC   C38 4335   2.129   2.486   7.474 -0.6599  0.3814  0.0803
   32SAPC   H8X 4336   2.057   2.570   7.469 -0.8955  0.2363  0.9469
   32SAPC   H8Y 4337   2.229   2.534   7.482 -1.4335  2.5929 -2.7602
   32SAPC   C39 4338   2.123   2.397   7.592 -0.3711  0.7994 -1.1519
   32SAPC   H9X 4339   2.189   2.311   7.569  1.1979  2.2562 -2.2096
   32SAPC   H9Y 4340   2.020   2.360   7.613  0.5162 -2.0900 -1.7080
   32SAPC  C310 4341   2.176   2.461   7.718 -0.2772  0.0570 -1.0588
   32SAPC  H10X 4342   2.155   2.569   7.732  2.8509  0.5244  0.4948
   32SAPC  H10Y 4343   2.286   2.468   7.708 -0.0780 -0.7210  0.4944
   32SAPC  C311 4344   2.155   2.382   7.850  0.8903  0.1314 -0.0740
   32SAPC  H11X 4345   2.182   2.276   7.832  0.8185  0.1913 -0.5298
   32SAPC  H11Y 4346   2.049   2.376   7.884  0.1190  1.5934 -2.0840
   32SAPC  C312 4347   2.231   2.433   7.973  0.5918  0.1526  0.5318
   32SAPC  H12X 4348   2.239   2.538   7.939  1.1766  0.1437  0.6338
   32SAPC  H12Y 4349   2.333   2.391   7.964  0.5013 -0.3137  1.5933
   32SAPC  C313 4350   2.170   2.405   8.102  0.6441 -0.5345  0.5250
   32SAPC  H13X 4351   2.192   2.302   8.137 -0.9549 -0.5699  1.4756
   32SAPC  H13Y 4352   2.059   2.416   8.095  0.5249 -0.3535  2.4105
   32SAPC  C314 4353   2.221   2.499   8.218 -0.3970  0.3537  0.4427
   32SAPC  H14X 4354   2.195   2.603   8.189 -1.4437  0.3486  1.3085
   32SAPC  H14Y 4355   2.331   2.485   8.221 -0.5428 -0.5712  2.2571
   32SAPC  C315 4356   2.177   2.445   8.348 -1.0837  0.2001 -0.1210
   32SAPC  H15X 4357   2.209   2.338   8.348  0.0693  0.5244  0.6532
   32SAPC  H15Y 4358   2.068   2.442   8.368 -1.0556  0.9622  0.1744
   32SAPC  C316 4359   2.237   2.512   8.470 -0.2339  0.5741  0.1068
   32SAPC  H16X 4360   2.188   2.611   8.477  0.6847  1.1362 -1.2185
   32SAPC  H16Y 4361   2.344   2.543   8.466  0.1313 -0.7131 -0.2213
   32SAPC  C317 4362   2.228   2.422   8.598 -0.2422  0.2851 -0.2857
   32SAPC  H17X 4363   2.286   2.331   8.575  2.1084  2.0124 -1.4109
   32SAPC  H17Y 4364   2.122   2.398   8.621  1.0309 -1.7183  4.0907
   32SAPC  C318 4365   2.292   2.489   8.720 -0.1916  0.3390  0.6734
   32SAPC  H18X 4366   2.342   2.417   8.788  0.8739  0.8158  0.3972
   32SAPC  H18Y 4367   2.211   2.542   8.775 -0.6955 -0.9146  1.1592
   32SAPC  H18Z 4368   2.367   2.562   8.685 -0.6001  0.1354 -0.6606
   33POPC     N 4369   0.024   2.889  10.812  0.2456 -0.5527 -1.0208
   33POPC   C12 4370   0.037   2.825  10.681  0.1600  0.6667 -0.0094
   33POPC  H12A 4371  -0.038   2.748  10.667  2.0216 -1.1579 -0.3095
   33POPC  H12B 4372   0.136   2.781  10.678  0.7686  1.9622  0.7909
   33POPC   C13 4373   0.156   2.946  10.859 -0.0379  0.5902  0.3808
   33POPC  H13A 4374   0.206   2.997  10.777  0.9844 -1.4698 -0.3013
   33POPC  H13B 4375   0.149   3.016  10.940  0.9320 -0.0482  1.0294
   33POPC  H13C 4376   0.226   2.870  10.890 -0.3784 -0.2749 -0.9254
   33POPC   C14 4377  -0.080   3.001  10.799  1.0504 -0.8006 -0.1055
   33POPC  H14A 4378  -0.168   2.965  10.748 -1.6216  3.8355  0.9765
   33POPC  H14B 4379  -0.104   3.023  10.902  2.9522 -0.9996  0.3930
   33POPC  H14C 4380  -0.038   3.076  10.734 -0.4894 -0.4263 -0.6965
   33POPC   C15 4381  -0.024   2.788  10.913  0.1969  0.5686 -0.6545
   33POPC  H15A 4382   0.045   2.705  10.925 -1.3767 -0.4621  1.6167
   33POPC  H15B 4383  -0.119   2.746  10.883  1.3161 -2.3300 -0.3111
   33POPC  H15C 4384  -0.051   2.824  11.011  1.7759 -1.9900  0.7785
   33POPC   C11 4385   0.038   2.919  10.563 -0.3383  0.0339  0.8703
   33POPC  H11A 4386  -0.066   2.952  10.543  0.1888  1.4336  0.3731
   33POPC  H11B 4387   0.054   2.863  10.468  0.7642  0.7556  0.6149
   33POPC     P 4388   0.277   3.033  10.546  0.1717  0.5804 -0.1173
   33POPC   O13 4389   0.333   2.889  10.554  0.6805  0.4387  0.1524
   33POPC   O14 4390   0.355   3.144  10.611  0.2845  0.1094  0.4905
   33POPC   O12 4391   0.124   3.031  10.583 -0.5377  0.0924 -0.1702
   33POPC   O11 4392   0.278   3.081  10.399 -0.6196  0.9193  0.2212
   33POPC    C1 4393   0.174   3.168  10.357 -0.7155 -0.6923  0.6012
   33POPC    HA 4394   0.110   3.210  10.437  1.1554 -0.4176  1.9952
   33POPC    HB 4395   0.218   3.255  10.304 -0.1982 -1.6356 -0.5412
   33POPC    C2 4396   0.083   3.102  10.249  0.6410  0.2730 -0.1926
   33POPC    HS 4397   0.040   3.005  10.281  0.8828  0.0384 -0.5695
   33POPC   O21 4398   0.148   3.101  10.126  0.1690  0.2640  0.0032
   33POPC   C21 4399   0.206   2.985  10.106  0.2658  0.6811  0.3144
   33POPC   O22 4400   0.233   2.898  10.191 -0.0277  0.5983  0.2050
   33POPC   C22 4401   0.251   2.963   9.965 -0.1817  0.7499 -0.2749
   33POPC   H2R 4402   0.263   2.854   9.951 -2.6512  0.3328  0.6184
   33POPC   H2S 4403   0.356   2.999   9.961 -0.6868  2.5806  1.6347
   33POPC    C3 4404  -0.041   3.203  10.225 -0.1322 -0.4975 -0.1050
   33POPC    HX 4405  -0.002   3.306  10.211  0.2588 -0.5695  0.4455
   33POPC    HY 4406  -0.100   3.219  10.318 -0.3012  1.0982 -0.4635
   33POPC   O31 4407  -0.134   3.148  10.126 -0.3155  0.0576 -0.0263
   33POPC   C31 4408  -0.128   3.203  10.004 -0.6970 -0.7826  0.0332
   33POPC   O32 4409  -0.036   3.277   9.967 -0.4256  0.3796  0.5277
   33POPC   C32 4410  -0.241   3.146   9.914  0.2650 -0.1368 -0.2812
   33POPC   H2X 4411  -0.336   3.134   9.970  0.6619  2.3993  0.9919
   33POPC   H2Y 4412  -0.214   3.045   9.877 -3.0046 -0.2719 -2.5196
   33POPC   C23 4413   0.168   3.019   9.844 -0.0682 -0.1074  0.6147
   33POPC   H3R 4414   0.123   3.115   9.877  1.1751  0.2633  1.2649
   33POPC   H3S 4415   0.082   2.950   9.833 -0.3581  0.5358 -1.3941
   33POPC   C24 4416   0.254   3.019   9.715 -0.3937  0.6815  0.4663
   33POPC   H4R 4417   0.283   2.913   9.695 -1.7486  0.0943  1.4699
   33POPC   H4S 4418   0.345   3.082   9.721 -0.9612  1.6607 -1.0163
   33POPC   C25 4419   0.167   3.065   9.591  0.2938  0.2795 -0.7168
   33POPC   H5R 4420   0.128   3.164   9.624  0.1249 -0.3404  1.0056
   33POPC   H5S 4421   0.087   2.992   9.569  0.4500 -0.1157  0.0138
   33POPC   C26 4422   0.243   3.082   9.456 -0.3898  0.2158  0.0284
   33POPC   H6R 4423   0.254   2.989   9.396  0.0104  0.2256  0.0856
   33POPC   H6S 4424   0.348   3.110   9.479 -0.2001 -1.0915  0.7940
   33POPC   C27 4425   0.179   3.186   9.364 -0.4627 -0.6496  0.2316
   33POPC   H7R 4426   0.181   3.287   9.411 -0.3833  0.5818 -2.3237
   33POPC   H7S 4427   0.073   3.157   9.347 -0.1302 -1.2693 -0.7792
   33POPC   C28 4428   0.268   3.207   9.234  0.1759  0.1979  0.9625
   33POPC   H8R 4429   0.282   3.110   9.181 -0.3462  0.1941  0.8265
   33POPC   H8S 4430   0.367   3.231   9.279 -0.6449  0.5240  2.5880
   33POPC   C29 4431   0.227   3.334   9.157 -0.2856 -0.3573  0.3561
   33POPC   H91 4432   0.299   3.417   9.163  0.2363 -0.8628  1.2519
   33POPC  C210 4433   0.111   3.348   9.091 -0.3023  0.6011 -0.4678
   33POPC  H101 4434   0.089   3.437   9.030 -3.5068 -0.1560 -0.5255
   33POPC  C211 4435  -0.009   3.257   9.076  0.2429  0.1164 -0.5321
   33POPC  H11R 4436  -0.106   3.302   9.105 -1.2365 -1.8606 -2.2518
   33POPC  H11S 4437   0.009   3.164   9.135  2.2065  1.1698  0.5880
   33POPC  C212 4438  -0.024   3.211   8.934 -0.0718  0.6957 -0.1269
   33POPC  H12R 4439  -0.110   3.141   8.930  1.0727 -0.7988  1.0269
   33POPC  H12S 4440   0.066   3.163   8.890 -0.6255 -0.6055  0.1380
   33POPC  C213 4441  -0.057   3.329   8.839 -0.6530  0.0865 -0.2639
   33POPC  H13R 4442   0.031   3.397   8.836 -0.7061  0.1898  0.4735
   33POPC  H13S 4443  -0.154   3.375   8.867 -0.3730  1.3513 -1.3359
   33POPC  C214 4444  -0.081   3.280   8.690 -0.0930 -0.0861 -0.5491
   33POPC  H14R 4445  -0.103   3.370   8.629  1.2303  1.4757  1.2117
   33POPC  H14S 4446  -0.160   3.202   8.690 -0.9854  0.7945 -2.7971
   33POPC  C215 4447   0.044   3.229   8.637 -0.2013 -0.0283 -0.5479
   33POPC  H15R 4448   0.042   3.123   8.671  0.2220  0.5625  1.3510
   33POPC  H15S 4449   0.136   3.284   8.665 -0.6860  0.3039  0.4067
   33POPC  C216 4450   0.042   3.220   8.484 -0.4437 -0.0667  0.4930
   33POPC  H16R 4451   0.140   3.191   8.442  0.1913  0.6982  1.4465
   33POPC  H16S 4452   0.032   3.326   8.450  0.4886 -0.5178 -1.2418
   33POPC  C217 4453  -0.073   3.143   8.422  0.2406 -0.3207 -0.1137
   33POPC  H17R 4454  -0.067   3.175   8.316  1.4481  2.0732  0.6494
   33POPC  H17S 4455  -0.171   3.185   8.455  0.5293 -0.4858  0.9511
   33POPC  C218 4456  -0.056   2.993   8.441  0.5071 -0.0044 -0.1961
   33POPC  H18R 4457   0.051   2.972   8.422  0.4679 -1.7176  1.3196
   33POPC  H18S 4458  -0.115   2.936   8.365 -0.3216 -2.3509  2.1564
   33POPC  H18T 4459  -0.067   2.959   8.546  0.4787 -1.9948 -0.8233
   33POPC   C33 4460  -0.266   3.258   9.803 -0.4739  0.3226  0.2971
   33POPC   H3X 4461  -0.262   3.355   9.857  1.7415 -0.6094  1.8854
   33POPC   H3Y 4462  -0.373   3.238   9.779 -0.1400 -1.9129  0.5207
   33POPC   C34 4463  -0.178   3.259   9.674 -0.1841 -0.2917  0.0293
   33POPC   H4X 4464  -0.133   3.159   9.653 -1.9640 -0.8129 -1.4185
   33POPC   H4Y 4465  -0.092   3.329   9.686  2.0152 -3.2423  2.3862
   33POPC   C35 4466  -0.250   3.305   9.547 -0.3992  0.7460  0.3063
   33POPC   H5X 4467  -0.350   3.258   9.556  0.5230 -1.2176  0.5198
   33POPC   H5Y 4468  -0.201   3.257   9.459  0.4246 -1.0219  1.7130
   33POPC   C36 4469  -0.284   3.453   9.538 -0.4031 -0.2845  0.3744
   33POPC   H6X 4470  -0.186   3.505   9.551 -1.8068  1.5974  4.0982
   33POPC   H6Y 4471  -0.362   3.469   9.616 -0.0038  0.3729  0.6419
   33POPC   C37 4472  -0.345   3.498   9.398 -0.5248 -0.1078 -0.4929
   33POPC   H7X 4473  -0.400   3.593   9.414  1.5589  1.1259 -0.6322
   33POPC   H7Y 4474  -0.415   3.415   9.372  2.3468 -2.6717 -0.3261
   33POPC   C38 4475  -0.233   3.513   9.293  0.2034 -0.3392  0.5759
   33POPC   H8X 4476  -0.182   3.415   9.283 -0.3711 -0.5072 -0.7429
   33POPC   H8Y 4477  -0.163   3.585   9.342 -0.1107  0.7972 -0.6156
   33POPC   C39 4478  -0.275   3.560   9.153 -0.8250  0.6381 -0.1312
   33POPC   H9X 4479  -0.367   3.622   9.150 -0.5454  0.9950 -1.7950
   33POPC   H9Y 4480  -0.291   3.478   9.080 -0.2921 -0.1508  0.6132
   33POPC  C310 4481  -0.162   3.643   9.091  0.5708  0.5113  1.1390
   33POPC  H10X 4482  -0.067   3.585   9.094 -0.0756 -0.5829  0.9014
   33POPC  H10Y 4483  -0.134   3.711   9.175 -1.5667  2.9463 -0.0575
   33POPC  C311 4484  -0.197   3.719   8.958  0.0352  0.0425 -0.2532
   33POPC  H11X 4485  -0.235   3.654   8.877  1.2226  1.1557 -1.7407
   33POPC  H11Y 4486  -0.105   3.760   8.913  0.4052  0.3317  0.7418
   33POPC  C312 4487  -0.309   3.818   8.975  0.1798 -0.5502  0.1510
   33POPC  H12X 4488  -0.297   3.867   9.074 -0.9063 -0.5835  0.3104
   33POPC  H12Y 4489  -0.407   3.765   8.980 -1.0614  1.2780 -3.1533
   33POPC  C313 4490  -0.301   3.918   8.860  0.2669 -0.5955  0.2830
   33POPC  H13X 4491  -0.324   3.870   8.762  1.4139  3.1771 -1.9110
   33POPC  H13Y 4492  -0.195   3.946   8.845 -0.1287  0.8224  0.0947
   33POPC  C314 4493  -0.393   4.045   8.881  0.0524  0.1793 -0.0277
   33POPC  H14X 4494  -0.377   4.124   8.804 -2.9286  1.6200  0.7687
   33POPC  H14Y 4495  -0.379   4.096   8.979  0.5381  0.1119 -0.0618
   33POPC  C315 4496  -0.545   4.011   8.847 -0.3555  0.1122  0.0006
   33POPC  H15X 4497  -0.576   3.923   8.907  1.6787  0.0627  1.0209
   33POPC  H15Y 4498  -0.544   3.992   8.737  0.3269 -1.5753  0.2808
   33POPC  C316 4499  -0.619   4.134   8.905  0.1899  0.8596  0.4928
   33POPC  H16X 4500  -0.574   4.232   8.880  0.3516  0.9530  1.1230
   33POPC  H16Y 4501  -0.616   4.130   9.016 -1.0148  0.8582  0.5374
   33POPC  H16Z 4502  -0.726   4.130   8.873  0.0904  3.3076  0.4856
   34POPC     N 4503   6.324   4.090  11.103  0.5550 -0.2720  0.6281
   34POPC   C12 4504   6.309   4.217  11.015  0.5352  0.3147 -0.5092
   34POPC  H12A 4505   6.248   4.290  11.067 -1.0003  0.0556 -1.8901
   34POPC  H12B 4506   6.261   4.196  10.920 -0.9322  0.4002  0.2012
   34POPC   C13 4507   6.397   3.978  11.038 -0.2892 -0.2016 -0.5655
   34POPC  H13A 4508   6.424   3.908  11.116  0.0489 -0.2692 -0.7412
   34POPC  H13B 4509   6.338   3.913  10.974 -3.0702  0.0798  1.6100
   34POPC  H13C 4510   6.482   4.019  10.987  0.1023 -0.3262 -0.0163
   34POPC   C14 4511   6.408   4.130  11.216  0.1009 -0.7633  0.0093
   34POPC  H14A 4512   6.508   4.146  11.177 -0.0700  2.2675  0.6559
   34POPC  H14B 4513   6.384   4.223  11.266  2.4429  0.1535 -0.4899
   34POPC  H14C 4514   6.420   4.050  11.288 -1.9347 -0.8227  0.3112
   34POPC   C15 4515   6.191   4.035  11.147  1.7244  0.2095 -0.3870
   34POPC  H15A 4516   6.181   3.990  11.244 -0.2763  0.1648 -0.5989
   34POPC  H15B 4517   6.157   3.951  11.089  1.1382  0.4391 -0.3737
   34POPC  H15C 4518   6.118   4.112  11.129 -0.3032 -1.8671 -1.2297
   34POPC   C11 4519   6.445   4.297  10.989  0.3469 -0.2179 -0.4907
   34POPC  H11A 4520   6.476   4.341  11.086 -1.2587  0.6874 -0.3631
   34POPC  H11B 4521   6.418   4.391  10.936  1.2194  1.1961  1.5227
   34POPC     P 4522   6.600   4.245  10.770 -0.5042  0.4006 -0.0443
   34POPC   O13 4523   6.699   4.133  10.760 -0.0845 -0.2803  0.0693
   34POPC   O14 4524   6.655   4.379  10.749 -0.1324  0.0097  0.3669
   34POPC   O12 4525   6.543   4.220  10.916 -0.0821  0.1972  0.6607
   34POPC   O11 4526   6.480   4.218  10.669  0.0109  0.1111  0.0739
   34POPC    C1 4527   6.378   4.123  10.687  0.5770  0.0738  0.2455
   34POPC    HA 4528   6.287   4.187  10.682 -0.4582 -1.3081  1.0156
   34POPC    HB 4529   6.387   4.062  10.779  0.7867  1.7348  1.3473
   34POPC    C2 4530   6.339   4.041  10.562  0.2190  0.8510  0.2943
   34POPC    HS 4531   6.259   3.976  10.603  0.3927 -0.6097 -1.6207
   34POPC   O21 4532   6.454   3.965  10.517  0.2423  0.2541 -0.0962
   34POPC   C21 4533   6.482   3.861  10.582 -0.2632 -0.3471  0.0993
   34POPC   O22 4534   6.434   3.816  10.689  0.8504 -0.3192 -0.5693
   34POPC   C22 4535   6.589   3.784  10.513  0.2782  0.0338  0.3718
   34POPC   H2R 4536   6.618   3.697  10.575  0.4815  0.6687  1.1701
   34POPC   H2S 4537   6.679   3.849  10.524  1.1340 -0.7247 -1.8673
   34POPC    C3 4538   6.285   4.132  10.452 -1.0651  0.2404 -0.5163
   34POPC    HX 4539   6.366   4.207  10.439 -1.3824  0.3896 -1.7231
   34POPC    HY 4540   6.188   4.169  10.491 -0.4390  1.6288 -0.2512
   34POPC   O31 4541   6.270   4.057  10.333  0.3999  0.0254 -0.7699
   34POPC   C31 4542   6.193   3.948  10.320 -0.8107  0.0535  0.2546
   34POPC   O32 4543   6.143   3.887  10.413  0.1593  0.0236  0.0610
   34POPC   C32 4544   6.203   3.902  10.176  0.0568  0.4344  0.1524
   34POPC   H2X 4545   6.309   3.917  10.145  0.3823 -1.1223  0.4813
   34POPC   H2Y 4546   6.145   3.964  10.105  0.3093 -2.0286 -2.2742
   34POPC   C23 4547   6.560   3.752  10.360 -0.0729  0.5328  0.3698
   34POPC   H3R 4548   6.553   3.852  10.312  1.1505  0.2093 -0.5151
   34POPC   H3S 4549   6.475   3.683  10.345 -0.5301  1.7895 -3.2258
   34POPC   C24 4550   6.690   3.682  10.305 -0.3299  0.8028 -0.2739
   34POPC   H4R 4551   6.678   3.575  10.335  2.2900  0.5426 -0.0003
   34POPC   H4S 4552   6.773   3.718  10.370 -0.1512 -1.9292  1.1299
   34POPC   C25 4553   6.715   3.696  10.157 -0.4239 -0.3874 -0.1881
   34POPC   H5R 4554   6.795   3.622  10.137  1.7875  2.4307 -2.0146
   34POPC   H5S 4555   6.737   3.800  10.125 -1.3446  0.1501  0.8760
   34POPC   C26 4556   6.594   3.655  10.071  0.4377 -0.4148  0.5564
   34POPC   H6R 4557   6.519   3.736  10.081  1.4176  0.6879 -0.7189
   34POPC   H6S 4558   6.556   3.561  10.116 -0.8252 -1.2555 -2.1451
   34POPC   C27 4559   6.639   3.634   9.926 -0.5540 -0.2796 -0.0625
   34POPC   H7R 4560   6.554   3.595   9.865 -1.5206  1.1065  0.3806
   34POPC   H7S 4561   6.715   3.555   9.910 -0.0332  0.4538 -1.2624
   34POPC   C28 4562   6.702   3.754   9.864 -0.0635 -0.1210 -0.1259
   34POPC   H8R 4563   6.743   3.719   9.767 -3.4128 -1.5424 -1.0990
   34POPC   H8S 4564   6.796   3.779   9.918  0.4153 -1.3399 -0.3754
   34POPC   C29 4565   6.620   3.884   9.858  0.8462 -0.5417 -0.1258
   34POPC   H91 4566   6.611   3.948   9.947  0.5000 -1.7115  0.6913
   34POPC  C210 4567   6.554   3.924   9.743  0.1898 -0.3457  0.2666
   34POPC  H101 4568   6.499   4.018   9.759  0.5423 -0.4390  2.0983
   34POPC  C211 4569   6.566   3.864   9.605 -0.0200 -0.3740 -0.8263
   34POPC  H11R 4570   6.549   3.755   9.615 -0.0464 -0.3959 -1.1024
   34POPC  H11S 4571   6.671   3.865   9.568 -0.1333 -1.2517 -1.1828
   34POPC  C212 4572   6.469   3.941   9.522  0.3148 -0.3147 -0.3933
   34POPC  H12R 4573   6.363   3.931   9.555  0.3850  0.7499  0.1964
   34POPC  H12S 4574   6.461   3.886   9.426  1.1007 -3.3111  1.2030
   34POPC  C213 4575   6.509   4.091   9.494 -0.0864  0.4053 -0.3052
   34POPC  H13R 4576   6.619   4.104   9.488  0.1782 -2.1038 -1.2481
   34POPC  H13S 4577   6.477   4.159   9.576 -0.4228  0.9377 -0.8687
   34POPC  C214 4578   6.463   4.143   9.357  0.4361  0.1433 -0.4986
   34POPC  H14R 4579   6.354   4.156   9.376  0.2787 -1.6749 -0.0171
   34POPC  H14S 4580   6.486   4.067   9.279 -2.1400 -1.8780  0.5967
   34POPC  C215 4581   6.518   4.275   9.313 -0.1151  0.1111 -0.6155
   34POPC  H15R 4582   6.624   4.278   9.346 -0.7607  0.4737  1.5232
   34POPC  H15S 4583   6.468   4.359   9.366 -0.3719 -1.0400  1.0025
   34POPC  C216 4584   6.520   4.279   9.159  1.1635 -0.0642 -0.1347
   34POPC  H16R 4585   6.412   4.267   9.137  0.8869 -0.3842  1.3184
   34POPC  H16S 4586   6.583   4.199   9.116  2.4121  1.3343 -0.9842
   34POPC  C217 4587   6.569   4.418   9.103  0.4184 -0.3304  0.2028
   34POPC  H17R 4588   6.675   4.442   9.125  0.1862  1.5459 -0.6406
   34POPC  H17S 4589   6.510   4.503   9.145  3.1036  2.2312 -1.0371
   34POPC  C218 4590   6.558   4.416   8.950 -0.0128  0.4695  0.1076
   34POPC  H18R 4591   6.585   4.513   8.903  0.6489 -0.0199 -0.5454
   34POPC  H18S 4592   6.463   4.378   8.907  1.4972  0.0384 -2.9921
   34POPC  H18T 4593   6.632   4.343   8.911 -1.0536  2.2981 -5.7332
   34POPC   C33 4594   6.160   3.747  10.151 -0.1692 -0.4689  0.1931
   34POPC   H3X 4595   6.090   3.713  10.230  0.3273 -0.0634  0.8117
   34POPC   H3Y 4596   6.255   3.689  10.143  0.5915  0.8924 -0.7351
   34POPC   C34 4597   6.071   3.737  10.022 -0.7796 -0.0975 -0.5053
   34POPC   H4X 4598   5.977   3.796  10.035 -0.7993 -0.2892  0.2527
   34POPC   H4Y 4599   6.044   3.630  10.010  2.5393 -0.9411 -0.7859
   34POPC   C35 4600   6.140   3.761   9.883 -0.2675  0.4255 -0.2882
   34POPC   H5X 4601   6.238   3.708   9.875 -0.9877 -1.2125  1.2607
   34POPC   H5Y 4602   6.164   3.870   9.887 -0.7109  0.4821  1.4390
   34POPC   C36 4603   6.045   3.738   9.767  0.0240  0.4701 -0.1466
   34POPC   H6X 4604   5.943   3.774   9.790 -1.3045 -2.7664 -0.6908
   34POPC   H6Y 4605   6.035   3.627   9.763  0.9578  0.3469  0.5107
   34POPC   C37 4606   6.095   3.790   9.633  0.1201  0.2520 -0.2845
   34POPC   H7X 4607   6.205   3.778   9.637  0.2192  1.2566  0.2237
   34POPC   H7Y 4608   6.057   3.894   9.626 -0.4779  0.2854  2.5848
   34POPC   C38 4609   6.035   3.727   9.501  0.0788  0.4526 -0.3955
   34POPC   H8X 4610   5.929   3.755   9.486 -0.5104 -1.8463 -0.6259
   34POPC   H8Y 4611   6.039   3.617   9.517  1.7128  0.2876 -1.7994
   34POPC   C39 4612   6.109   3.771   9.378 -0.2083  0.5889 -1.0419
   34POPC   H9X 4613   6.217   3.768   9.404 -0.4186  0.8511 -0.1570
   34POPC   H9Y 4614   6.089   3.878   9.357  2.3123  1.0668 -1.1494
   34POPC  C310 4615   6.088   3.691   9.257 -0.0232  0.2546  0.3168
   34POPC  H10X 4616   5.980   3.687   9.230  0.5607 -0.5500 -1.9556
   34POPC  H10Y 4617   6.124   3.586   9.266 -0.1300  0.1600 -0.3612
   34POPC  C311 4618   6.160   3.742   9.128 -0.3585  0.8214  0.0209
   34POPC  H11X 4619   6.269   3.734   9.149 -0.2726  0.3350 -0.6144
   34POPC  H11Y 4620   6.133   3.847   9.102  1.3734  0.9736 -1.2325
   34POPC  C312 4621   6.143   3.660   8.999 -0.7740 -0.0499  0.3954
   34POPC  H12X 4622   6.129   3.553   9.026  0.9539 -0.2549  0.5422
   34POPC  H12Y 4623   6.214   3.683   8.917 -1.5839  1.2707  0.0425
   34POPC  C313 4624   6.008   3.699   8.935  0.1111  1.1836 -0.1155
   34POPC  H13X 4625   5.999   3.806   8.910  0.4624  1.2231 -0.0755
   34POPC  H13Y 4626   5.937   3.675   9.018  1.4481  2.5106  1.4238
   34POPC  C314 4627   5.953   3.634   8.807 -0.4275 -0.0965  0.7370
   34POPC  H14X 4628   5.854   3.682   8.795  0.2290  0.7843 -1.4605
   34POPC  H14Y 4629   5.939   3.525   8.821 -3.0750 -0.0287 -1.0915
   34POPC  C315 4630   6.045   3.653   8.683 -0.7969 -0.8742  0.4453
   34POPC  H15X 4631   6.008   3.587   8.601 -1.0202  1.9019 -1.7535
   34POPC  H15Y 4632   6.149   3.620   8.706 -0.4282  0.1904  0.3125
   34POPC  C316 4633   6.048   3.797   8.631 -0.2788  0.2516 -0.4136
   34POPC  H16X 4634   6.061   3.875   8.709  0.4989 -1.0413  0.7693
   34POPC  H16Y 4635   5.945   3.814   8.593 -0.9012 -1.0988  0.6330
   34POPC  H16Z 4636   6.124   3.810   8.551 -0.9511 -1.6937 -1.3802
   35POPC     N 4637   4.762   0.676  11.311 -0.1023 -0.1235 -0.0814
   35POPC   C12 4638   4.749   0.792  11.212  0.2837 -0.3105 -0.1962
   35POPC  H12A 4639   4.651   0.809  11.171  0.6157  0.1803 -0.8022
   35POPC  H12B 4640   4.814   0.777  11.127  0.9138  1.1747  0.0112
   35POPC   C13 4641   4.907   0.680  11.359  0.3732 -0.0262 -0.1406
   35POPC  H13A 4642   4.977   0.670  11.277  1.9062  0.3735  1.0977
   35POPC  H13B 4643   4.929   0.784  11.380 -0.7639  0.4461 -1.2354
   35POPC  H13C 4644   4.930   0.603  11.431 -1.8686 -0.6770 -0.0863
   35POPC   C14 4645   4.677   0.697  11.424 -0.1794  0.4587  0.2794
   35POPC  H14A 4646   4.573   0.670  11.411  0.2358 -0.6192 -1.0095
   35POPC  H14B 4647   4.706   0.625  11.499  0.9817  0.9768  0.3358
   35POPC  H14C 4648   4.685   0.798  11.459  1.3234  1.9317 -3.9221
   35POPC   C15 4649   4.730   0.556  11.232 -0.4294 -0.5271 -0.6885
   35POPC  H15A 4650   4.752   0.459  11.274 -0.4417  0.0488  0.6864
   35POPC  H15B 4651   4.776   0.556  11.135 -0.7280  2.3960 -0.8668
   35POPC  H15C 4652   4.622   0.556  11.225 -0.4731 -0.5437 -0.0887
   35POPC   C11 4653   4.799   0.936  11.256 -0.0465 -0.1460 -0.9399
   35POPC  H11A 4654   4.770   0.968  11.359 -0.0704 -0.7286 -0.7647
   35POPC  H11B 4655   4.757   1.021  11.198 -1.2521 -0.8255 -1.0771
   35POPC     P 4656   5.012   0.927  11.110 -0.3889  0.4351 -0.2670
   35POPC   O13 4657   4.998   0.793  11.052 -0.0213 -0.2244 -0.7273
   35POPC   O14 4658   5.147   0.981  11.134  0.4855 -0.0028 -0.0311
   35POPC   O12 4659   4.938   0.943  11.252  0.8079 -0.2934 -0.1063
   35POPC   O11 4660   4.928   1.041  11.036 -0.4672  0.4811 -0.3433
   35POPC    C1 4661   4.827   1.024  10.942 -0.1191  0.9369  0.1011
   35POPC    HA 4662   4.738   1.089  10.960  0.1950  2.0268 -2.0389
   35POPC    HB 4663   4.786   0.921  10.947 -0.7723  1.1695 -0.4256
   35POPC    C2 4664   4.893   1.065  10.802 -0.4783  0.5971  0.0794
   35POPC    HS 4665   4.816   1.057  10.722 -0.0587 -4.2174  0.0051
   35POPC   O21 4666   5.009   0.984  10.781  0.5318  0.0206  0.2049
   35POPC   C21 4667   4.996   0.859  10.736  0.5084 -0.1517 -0.4369
   35POPC   O22 4668   4.893   0.797  10.719 -0.8543 -0.7089 -0.0467
   35POPC   C22 4669   5.133   0.802  10.721 -0.3035  0.0651 -0.5561
   35POPC   H2R 4670   5.166   0.765  10.820 -0.0690  0.7791 -0.3615
   35POPC   H2S 4671   5.204   0.884  10.695 -0.6097 -0.7217 -4.2061
   35POPC    C3 4672   4.941   1.208  10.806  0.2741 -0.2877  0.5048
   35POPC    HX 4673   5.000   1.227  10.898 -0.1363  1.6734  0.3812
   35POPC    HY 4674   4.847   1.266  10.816 -0.8598 -2.1404  0.8961
   35POPC   O31 4675   4.990   1.251  10.678  0.6142 -0.0887  0.7823
   35POPC   C31 4676   5.122   1.244  10.660 -0.3710  0.3369 -0.3489
   35POPC   O32 4677   5.209   1.216  10.741  0.1717 -0.4044 -0.2541
   35POPC   C32 4678   5.136   1.275  10.510 -0.1813 -0.8194  0.2656
   35POPC   H2X 4679   5.059   1.348  10.479  0.6638 -0.5438 -1.2428
   35POPC   H2Y 4680   5.123   1.182  10.451 -1.9780  0.2542 -1.0583
   35POPC   C23 4681   5.136   0.705  10.602  0.6052  0.3156  0.4016
   35POPC   H3R 4682   5.046   0.641  10.605 -0.0813  1.2003 -0.8752
   35POPC   H3S 4683   5.213   0.625  10.604 -0.6993 -0.9496  0.7872
   35POPC   C24 4684   5.137   0.789  10.473 -0.0803 -0.8450 -0.6288
   35POPC   H4R 4685   5.072   0.879  10.475 -0.6167 -1.2391 -0.1444
   35POPC   H4S 4686   5.115   0.731  10.381 -1.9428  1.5534 -1.7469
   35POPC   C25 4687   5.274   0.850  10.421  0.3211 -0.0466 -0.3637
   35POPC   H5R 4688   5.340   0.766  10.390  0.2390  0.0836 -0.8899
   35POPC   H5S 4689   5.323   0.915  10.496  1.1459  0.6550 -1.4941
   35POPC   C26 4690   5.264   0.929  10.291  0.0601 -0.0155  1.0908
   35POPC   H6R 4691   5.220   1.030  10.285  0.1595 -0.1171 -2.3358
   35POPC   H6S 4692   5.190   0.867  10.237  0.7613 -0.0120  0.1153
   35POPC   C27 4693   5.406   0.940  10.233  0.0660 -0.5357 -0.5526
   35POPC   H7R 4694   5.446   0.837  10.227 -0.4475 -0.6923 -1.4194
   35POPC   H7S 4695   5.468   0.998  10.304 -2.1826  0.8508  0.3370
   35POPC   C28 4696   5.405   0.987  10.085  0.0666 -0.0386 -0.3728
   35POPC   H8R 4697   5.305   1.033  10.077  1.5325  3.2673 -0.4597
   35POPC   H8S 4698   5.398   0.892  10.028 -0.9068  0.7558 -1.6003
   35POPC   C29 4699   5.515   1.083  10.047  0.0344  0.2858 -0.0351
   35POPC   H91 4700   5.591   1.092  10.126  0.9549 -0.2084 -0.8587
   35POPC  C210 4701   5.530   1.150   9.932  0.4630 -0.2665  0.1329
   35POPC  H101 4702   5.614   1.221   9.926  0.1812  0.1928  1.3413
   35POPC  C211 4703   5.433   1.138   9.813  0.8598 -0.2326  0.2875
   35POPC  H11R 4704   5.391   1.239   9.793 -0.7315 -1.0805 -0.8192
   35POPC  H11S 4705   5.356   1.067   9.851  2.3379 -0.7809  2.3704
   35POPC  C212 4706   5.489   1.069   9.687  0.0153  0.3773  0.1241
   35POPC  H12R 4707   5.404   1.052   9.617  0.2976  1.6547 -0.5527
   35POPC  H12S 4708   5.536   0.971   9.709 -0.9290 -0.3595 -1.0811
   35POPC  C213 4709   5.588   1.156   9.611  0.4928  0.0606 -0.1133
   35POPC  H13R 4710   5.670   1.181   9.681  1.6522  1.7954 -2.0336
   35POPC  H13S 4711   5.538   1.250   9.579 -1.5617 -0.9070  0.1630
   35POPC  C214 4712   5.659   1.090   9.488  0.4584  0.2412  0.9510
   35POPC  H14R 4713   5.710   1.001   9.531 -0.3892 -0.2574  0.9378
   35POPC  H14S 4714   5.742   1.155   9.454 -1.2281  1.9326 -0.0398
   35POPC  C215 4715   5.577   1.056   9.360  0.3052 -0.5712 -0.4040
   35POPC  H15R 4716   5.520   1.144   9.324 -0.8375 -1.4759 -0.8571
   35POPC  H15S 4717   5.500   0.983   9.394  0.1189 -0.1845  0.0091
   35POPC  C216 4718   5.640   0.986   9.244  0.1628  0.0203 -0.2907
   35POPC  H16R 4719   5.655   0.881   9.278  1.2625 -0.7338 -2.9954
   35POPC  H16S 4720   5.739   1.034   9.228  0.6913 -0.8691  0.2182
   35POPC  C217 4721   5.578   0.998   9.104  0.4225 -0.7574 -0.2807
   35POPC  H17R 4722   5.652   0.960   9.031  1.9541  2.2899 -0.4015
   35POPC  H17S 4723   5.577   1.106   9.077  2.7866 -0.7118 -0.3040
   35POPC  C218 4724   5.437   0.935   9.081 -0.1389 -0.8137  0.0587
   35POPC  H18R 4725   5.433   0.828   9.112 -3.0551 -0.4186  1.1841
   35POPC  H18S 4726   5.422   0.934   8.971 -0.5019  0.3765  0.0935
   35POPC  H18T 4727   5.352   0.982   9.136  0.6533 -0.5238  1.0591
   35POPC   C33 4728   5.272   1.348  10.473  0.0054  0.0738  0.3913
   35POPC   H3X 4729   5.353   1.294  10.525  0.7888  0.7323 -0.1380
   35POPC   H3Y 4730   5.266   1.452  10.513 -2.5824  0.4949 -0.9643
   35POPC   C34 4731   5.298   1.341  10.320  0.0990 -0.5080 -0.4874
   35POPC   H4X 4732   5.338   1.244  10.286  0.5698  0.2555 -2.1392
   35POPC   H4Y 4733   5.380   1.414  10.302  1.7030 -2.3280 -0.5963
   35POPC   C35 4734   5.180   1.396  10.232  0.7240  0.3850  0.4953
   35POPC   H5X 4735   5.160   1.501  10.263 -0.5787  1.1625 -2.6973
   35POPC   H5Y 4736   5.088   1.334  10.237  1.5082 -0.8465 -0.1653
   35POPC   C36 4737   5.222   1.403  10.082  0.0163 -0.1711 -0.1301
   35POPC   H6X 4738   5.200   1.303  10.038 -2.4683  0.3744 -0.1710
   35POPC   H6Y 4739   5.333   1.417  10.082  0.1211 -0.9052  1.3497
   35POPC   C37 4740   5.150   1.525  10.010  0.1248  0.4795  0.1005
   35POPC   H7X 4741   5.182   1.618  10.063 -0.9424 -0.6371  2.7902
   35POPC   H7Y 4742   5.047   1.506  10.047  0.7474 -0.9558  1.1546
   35POPC   C38 4743   5.134   1.520   9.859 -0.0482  0.3889 -0.1794
   35POPC   H8X 4744   5.077   1.614   9.841  0.9200  0.4837 -3.0777
   35POPC   H8Y 4745   5.072   1.433   9.828 -1.0164  0.9678  0.1010
   35POPC   C39 4746   5.265   1.522   9.782 -0.5859 -0.1913  0.1998
   35POPC   H9X 4747   5.312   1.422   9.771  1.7969  0.9431 -0.2707
   35POPC   H9Y 4748   5.329   1.606   9.816 -2.1997  2.1330 -2.3101
   35POPC  C310 4749   5.228   1.563   9.634 -0.0674 -0.1400 -0.2543
   35POPC  H10X 4750   5.152   1.643   9.640 -0.2507 -0.3061 -0.3487
   35POPC  H10Y 4751   5.184   1.479   9.576  0.2830  0.2338 -1.0775
   35POPC  C311 4752   5.352   1.614   9.562 -0.3488  0.1112 -0.3822
   35POPC  H11X 4753   5.431   1.536   9.553 -1.0196 -0.6418  0.2743
   35POPC  H11Y 4754   5.389   1.701   9.620 -0.6189  0.8988 -1.3730
   35POPC  C312 4755   5.317   1.677   9.424 -0.2459  0.3747  0.3591
   35POPC  H12X 4756   5.395   1.748   9.390 -0.6855 -0.3174 -2.2092
   35POPC  H12Y 4757   5.221   1.732   9.433 -1.8042 -2.0835 -0.7359
   35POPC  C313 4758   5.317   1.573   9.312  0.7840  0.7134  0.1962
   35POPC  H13X 4759   5.267   1.625   9.228 -1.1890  0.8108  1.3945
   35POPC  H13Y 4760   5.264   1.485   9.355 -0.9573  0.6870 -1.9278
   35POPC  C314 4761   5.464   1.547   9.264 -0.0291 -0.4322 -0.2486
   35POPC  H14X 4762   5.522   1.527   9.357 -1.0572 -0.7872  0.3178
   35POPC  H14Y 4763   5.502   1.639   9.215  1.1540 -1.1585 -0.7168
   35POPC  C315 4764   5.474   1.438   9.162 -0.0562 -0.5627  0.4786
   35POPC  H15X 4765   5.415   1.472   9.074 -0.9145  0.6210  1.4904
   35POPC  H15Y 4766   5.428   1.348   9.208 -1.7909  0.5567  0.9668
   35POPC  C316 4767   5.614   1.397   9.117  0.0944  0.2541  0.4776
   35POPC  H16X 4768   5.660   1.341   9.201  1.1368 -0.6660 -0.6748
   35POPC  H16Y 4769   5.687   1.474   9.085  0.3730  0.2112  1.0079
   35POPC  H16Z 4770   5.599   1.329   9.030 -0.1991  0.7772  0.1173
   36POPC     N 4771   6.057   6.282  11.285  0.1745 -0.6048  0.0676
   36POPC   C12 4772   6.066   6.257  11.136 -0.0818 -0.4493  0.4189
   36POPC  H12A 4773   5.992   6.179  11.123  0.7930 -1.3632  0.8346
   36POPC  H12B 4774   6.163   6.216  11.110 -0.7332 -2.0953  0.5171
   36POPC   C13 4775   6.084   6.159  11.357 -1.1262 -0.0328 -0.1938
   36POPC  H13A 4776   6.041   6.073  11.307 -0.0983 -0.0228 -1.1073
   36POPC  H13B 4777   6.191   6.152  11.368 -0.8716  1.0819 -1.9045
   36POPC  H13C 4778   6.041   6.163  11.456 -0.2497 -2.3093  0.3139
   36POPC   C14 4779   6.153   6.383  11.343 -0.0671 -0.0214 -0.3736
   36POPC  H14A 4780   6.258   6.359  11.334 -0.9810 -3.8144 -1.9631
   36POPC  H14B 4781   6.132   6.479  11.298 -2.1893  0.6915  1.9937
   36POPC  H14C 4782   6.127   6.394  11.447  0.3560  1.7617 -0.4383
   36POPC   C15 4783   5.924   6.337  11.318 -0.8435 -0.3552 -0.0806
   36POPC  H15A 4784   5.913   6.433  11.270  1.4133 -0.5149 -1.0110
   36POPC  H15B 4785   5.922   6.350  11.425  1.0000 -0.5240  0.0005
   36POPC  H15C 4786   5.845   6.270  11.288  0.8738 -2.0820 -0.8396
   36POPC   C11 4787   6.023   6.369  11.042  0.1055 -0.4987 -0.2413
   36POPC  H11A 4788   5.936   6.423  11.085  1.0179  0.5959  0.2461
   36POPC  H11B 4789   5.987   6.337  10.942 -2.0073  0.2116  0.2639
   36POPC     P 4790   6.270   6.430  10.974 -0.3385 -0.2868 -0.2736
   36POPC   O13 4791   6.317   6.296  11.008  0.3939 -0.0731 -0.1363
   36POPC   O14 4792   6.370   6.541  11.008 -0.6415 -0.2800 -0.1407
   36POPC   O12 4793   6.134   6.462  11.046 -0.0693 -0.0313  0.1080
   36POPC   O11 4794   6.229   6.445  10.824 -0.1166 -0.4161  0.8891
   36POPC    C1 4795   6.154   6.560  10.777  0.1430  0.3009  0.4392
   36POPC    HA 4796   6.211   6.616  10.699  0.0493  0.9528  0.8364
   36POPC    HB 4797   6.113   6.627  10.856  2.7968  1.5543  0.7965
   36POPC    C2 4798   6.019   6.510  10.700  0.1247  1.1383  0.1083
   36POPC    HS 4799   5.998   6.411  10.746 -2.8316  1.0374 -1.3499
   36POPC   O21 4800   6.035   6.522  10.558 -0.0668 -0.6032 -0.2980
   36POPC   C21 4801   5.967   6.439  10.473  0.1735  0.6946  0.8141
   36POPC   O22 4802   5.885   6.350  10.498 -0.0966  0.1512  0.1955
   36POPC   C22 4803   6.012   6.490  10.347 -0.5250  0.3259 -0.8562
   36POPC   H2R 4804   6.121   6.470  10.352 -1.0247 -2.4159 -0.3949
   36POPC   H2S 4805   6.004   6.601  10.348 -0.3584  0.3352 -0.2110
   36POPC    C3 4806   5.893   6.602  10.737  0.4394 -0.8529 -0.0107
   36POPC    HX 4807   5.927   6.702  10.706 -1.5027 -0.8086 -2.1503
   36POPC    HY 4808   5.879   6.594  10.847  0.3096  0.0071  0.0361
   36POPC   O31 4809   5.772   6.556  10.675 -0.1737  0.0403  0.1189
   36POPC   C31 4810   5.706   6.632  10.598 -0.0430  0.1787  0.4141
   36POPC   O32 4811   5.744   6.744  10.561  0.3381 -0.2083 -0.2693
   36POPC   C32 4812   5.570   6.574  10.565 -0.0844  0.4255 -0.3798
   36POPC   H2X 4813   5.501   6.661  10.568 -0.1740  0.3298  0.3763
   36POPC   H2Y 4814   5.543   6.504  10.648  1.2644 -0.6575 -0.8333
   36POPC   C23 4815   5.947   6.431  10.215 -0.4311 -0.3120 -0.0600
   36POPC   H3R 4816   5.837   6.443  10.221 -0.6026 -1.3598 -1.0555
   36POPC   H3S 4817   5.976   6.325  10.197 -0.0790  0.1045 -2.1067
   36POPC   C24 4818   5.989   6.513  10.094  0.6075  0.0140 -0.6275
   36POPC   H4R 4819   6.083   6.467  10.056  2.1459  1.6128  1.1160
   36POPC   H4S 4820   5.999   6.622  10.118  1.3315 -0.1840 -0.0049
   36POPC   C25 4821   5.886   6.501   9.979 -0.1231  0.0282  0.8375
   36POPC   H5R 4822   5.901   6.587   9.911  0.4947 -1.0034 -0.3382
   36POPC   H5S 4823   5.782   6.502  10.018 -0.7784 -2.4170 -0.7921
   36POPC   C26 4824   5.902   6.373   9.894 -0.6983  0.1965 -0.3990
   36POPC   H6R 4825   5.808   6.359   9.837 -0.3290 -1.8615 -0.5261
   36POPC   H6S 4826   5.921   6.287   9.961 -1.2705  1.2352  1.1388
   36POPC   C27 4827   6.008   6.370   9.779  0.0108  0.6240 -0.0828
   36POPC   H7R 4828   6.008   6.267   9.739 -2.8325  0.1264  1.0503
   36POPC   H7S 4829   6.110   6.370   9.823  0.3971 -0.4033 -0.9678
   36POPC   C28 4830   5.994   6.476   9.671  0.2983 -0.5200 -0.1637
   36POPC   H8R 4831   6.088   6.477   9.611  0.5015 -0.0545  0.1620
   36POPC   H8S 4832   5.985   6.582   9.702  2.7422 -0.3250 -0.0131
   36POPC   C29 4833   5.875   6.444   9.582  0.4239 -1.5713 -0.7182
   36POPC   H91 4834   5.778   6.457   9.633  1.2974  1.3511  0.3267
   36POPC  C210 4835   5.875   6.427   9.448 -0.2236  0.1761  0.0448
   36POPC  H101 4836   5.782   6.399   9.398  0.9328 -0.7424 -1.6508
   36POPC  C211 4837   5.996   6.434   9.357 -0.1727 -0.3549  0.3907
   36POPC  H11R 4838   6.040   6.332   9.363  1.9403  0.5240 -0.0793
   36POPC  H11S 4839   6.073   6.506   9.390 -0.1531  0.4498 -1.3640
   36POPC  C212 4840   5.964   6.479   9.211 -0.0326 -0.7281 -0.2351
   36POPC  H12R 4841   5.903   6.572   9.212  0.4064 -0.4168 -1.8145
   36POPC  H12S 4842   5.904   6.400   9.161 -0.8476 -0.2450 -0.0367
   36POPC  C213 4843   6.092   6.523   9.138 -0.0222 -0.1086 -0.1849
   36POPC  H13R 4844   6.179   6.454   9.135 -1.8919 -2.4762 -2.8143
   36POPC  H13S 4845   6.136   6.620   9.170  0.0166  0.3986 -1.7195
   36POPC  C214 4846   6.066   6.528   8.988 -0.4110 -0.2563 -0.2476
   36POPC  H14R 4847   5.966   6.570   8.965 -0.7248 -0.8615 -0.0140
   36POPC  H14S 4848   6.073   6.427   8.943 -0.5873 -0.9609  1.2787
   36POPC  C215 4849   6.169   6.608   8.908 -0.6125  0.1074 -0.3544
   36POPC  H15R 4850   6.272   6.565   8.911 -1.2712 -1.3653  2.1992
   36POPC  H15S 4851   6.181   6.710   8.950 -0.2368  0.8449 -2.1938
   36POPC  C216 4852   6.136   6.608   8.757  0.0122  0.6332 -0.0935
   36POPC  H16R 4853   6.040   6.656   8.728 -0.2518 -0.0343 -0.3251
   36POPC  H16S 4854   6.139   6.506   8.713 -1.8979  0.1015  0.9281
   36POPC  C217 4855   6.235   6.699   8.684 -0.0048 -0.9077  0.6170
   36POPC  H17R 4856   6.209   6.694   8.576 -1.4608 -0.4284  0.9247
   36POPC  H17S 4857   6.336   6.653   8.689  0.8607  0.9864  0.8883
   36POPC  C218 4858   6.252   6.847   8.731  0.3605 -0.9545  0.0252
   36POPC  H18R 4859   6.154   6.885   8.768 -0.3228 -2.5216 -0.1112
   36POPC  H18S 4860   6.286   6.915   8.651 -0.4653 -1.0549 -0.4192
   36POPC  H18T 4861   6.330   6.846   8.810  0.9779 -1.2604 -0.5850
   36POPC   C33 4862   5.572   6.494  10.424  0.0847 -1.1517  0.1659
   36POPC   H3X 4863   5.491   6.420  10.441  1.1295 -2.4549 -0.3789
   36POPC   H3Y 4864   5.668   6.439  10.407 -0.5432 -2.4942  0.8414
   36POPC   C34 4865   5.542   6.585  10.301 -0.0774  0.2186  0.2199
   36POPC   H4X 4866   5.638   6.637  10.282 -0.4614  1.1079  0.6729
   36POPC   H4Y 4867   5.469   6.668  10.317 -0.9128 -0.3435 -0.6606
   36POPC   C35 4868   5.510   6.503  10.174  0.3394  0.1562 -0.3332
   36POPC   H5X 4869   5.408   6.461  10.184  0.3449  0.5113  1.4898
   36POPC   H5Y 4870   5.579   6.416  10.168 -0.9948 -0.8412 -1.6180
   36POPC   C36 4871   5.517   6.585  10.045 -0.2762 -0.2754 -0.0052
   36POPC   H6X 4872   5.620   6.626  10.039 -0.9959  1.3948 -1.1325
   36POPC   H6Y 4873   5.446   6.670  10.053  0.8013  0.5277  1.1857
   36POPC   C37 4874   5.481   6.507   9.926  0.3909  0.5235  0.5077
   36POPC   H7X 4875   5.371   6.494   9.932  0.0690  1.7910 -2.2398
   36POPC   H7Y 4876   5.540   6.414   9.908  2.2438  1.9627 -1.0523
   36POPC   C38 4877   5.503   6.601   9.796 -0.4985 -0.2383 -0.1885
   36POPC   H8X 4878   5.605   6.645   9.800 -0.7548  0.6816 -2.7222
   36POPC   H8Y 4879   5.424   6.679   9.803 -1.1868 -0.8666 -0.8309
   36POPC   C39 4880   5.480   6.523   9.670 -0.0331 -0.1566 -0.3488
   36POPC   H9X 4881   5.373   6.495   9.665 -0.5640  1.6825  0.3826
   36POPC   H9Y 4882   5.542   6.431   9.677  1.9479  1.2625  1.8133
   36POPC  C310 4883   5.515   6.612   9.543 -0.1390  0.8821  0.3271
   36POPC  H10X 4884   5.626   6.615   9.543 -0.1048  1.1556 -2.7712
   36POPC  H10Y 4885   5.466   6.711   9.547 -0.4195  0.8884 -2.3354
   36POPC  C311 4886   5.485   6.547   9.412 -0.5129  0.0887 -0.6999
   36POPC  H11X 4887   5.376   6.537   9.393 -0.8139  2.9876 -0.7211
   36POPC  H11Y 4888   5.532   6.447   9.428  0.2993  0.2922 -1.7416
   36POPC  C312 4889   5.538   6.620   9.291 -0.1408  0.2710 -0.0200
   36POPC  H12X 4890   5.643   6.646   9.319 -0.3647 -1.0284  2.1337
   36POPC  H12Y 4891   5.484   6.716   9.278  2.9401  2.0179 -0.4840
   36POPC  C313 4892   5.538   6.548   9.155  0.0698  0.2272  0.0345
   36POPC  H13X 4893   5.441   6.498   9.135 -0.2085  1.2631 -1.2192
   36POPC  H13Y 4894   5.614   6.468   9.174  0.4403  0.5318 -0.1706
   36POPC  C314 4895   5.596   6.625   9.031  0.8330  0.6358  0.2110
   36POPC  H14X 4896   5.695   6.670   9.055  0.3527  0.7186  2.0998
   36POPC  H14Y 4897   5.526   6.706   9.005 -0.8346 -0.9393 -0.3273
   36POPC  C315 4898   5.591   6.536   8.898  0.4085 -0.0489 -0.1143
   36POPC  H15X 4899   5.487   6.502   8.879 -1.1673  3.4230  1.9130
   36POPC  H15Y 4900   5.651   6.446   8.924  0.2256  0.5412  2.4960
   36POPC  C316 4901   5.654   6.609   8.775 -0.3631 -0.4969 -0.1402
   36POPC  H16X 4902   5.614   6.712   8.761  0.4613  0.2076  2.4209
   36POPC  H16Y 4903   5.615   6.565   8.681 -1.9122  1.6030 -0.5218
   36POPC  H16Z 4904   5.763   6.629   8.782 -0.2445  0.2082 -3.2992
   37POPC     N 4905   4.743   2.646   6.537 -0.9335  0.0800 -0.1426
   37POPC   C12 4906   4.670   2.604   6.652  0.6033  0.4934 -0.7903
   37POPC  H12A 4907   4.714   2.517   6.698 -2.2225  0.0686  1.3016
   37POPC  H12B 4908   4.563   2.596   6.639 -0.0813  0.2513  3.8166
   37POPC   C13 4909   4.750   2.532   6.435 -0.0648  0.4470  0.3631
   37POPC  H13A 4910   4.648   2.506   6.413  0.1216  0.4452 -0.5199
   37POPC  H13B 4911   4.813   2.560   6.352  0.3937  0.5471  0.7379
   37POPC  H13C 4912   4.784   2.442   6.486 -3.2078 -1.4523 -0.8031
   37POPC   C14 4913   4.675   2.762   6.470 -0.6854 -0.2898  0.3668
   37POPC  H14A 4914   4.592   2.722   6.414 -0.1255 -0.4402 -0.3539
   37POPC  H14B 4915   4.640   2.833   6.544  1.4221 -1.2514  2.3656
   37POPC  H14C 4916   4.731   2.816   6.396 -0.6267  2.2420  2.2033
   37POPC   C15 4917   4.889   2.685   6.564 -0.1971  0.0082  0.4738
   37POPC  H15A 4918   4.895   2.751   6.650 -1.4709  3.2386 -1.8209
   37POPC  H15B 4919   4.940   2.722   6.476 -0.5164 -0.9877 -0.1342
   37POPC  H15C 4920   4.940   2.595   6.595 -3.6373 -1.9101  0.8192
   37POPC   C11 4921   4.664   2.705   6.770 -0.2817 -0.5436  0.4303
   37POPC  H11A 4922   4.757   2.762   6.790 -0.8715  0.7976 -0.5819
   37POPC  H11B 4923   4.640   2.653   6.865 -2.9306  2.9266  1.7598
   37POPC     P 4924   4.412   2.782   6.773  0.6054  0.0818  0.5369
   37POPC   O13 4925   4.372   2.650   6.721  0.1941 -0.1131 -0.0180
   37POPC   O14 4926   4.338   2.897   6.711 -0.0200  0.2930 -0.4244
   37POPC   O12 4927   4.562   2.810   6.746 -0.2115 -0.9859  0.1148
   37POPC   O11 4928   4.407   2.785   6.933  0.4237 -0.2538 -0.6897
   37POPC    C1 4929   4.471   2.903   7.002  0.2693 -0.0943 -0.3851
   37POPC    HA 4930   4.503   2.983   6.932 -1.2008 -1.0581 -2.2150
   37POPC    HB 4931   4.560   2.873   7.062  0.5125  0.4782 -0.4506
   37POPC    C2 4932   4.371   2.986   7.092 -0.2447 -0.3603  0.9229
   37POPC    HS 4933   4.427   3.046   7.167 -1.1727  1.4443  0.2126
   37POPC   O21 4934   4.281   2.894   7.168  0.3101  0.2477 -0.3260
   37POPC   C21 4935   4.352   2.796   7.229  0.4899 -0.0238 -0.5595
   37POPC   O22 4936   4.463   2.805   7.275 -0.3869  0.0152  0.0872
   37POPC   C22 4937   4.275   2.667   7.228 -0.2983 -0.4288  0.1135
   37POPC   H2R 4938   4.315   2.623   7.134  1.9096  1.0684  0.3136
   37POPC   H2S 4939   4.167   2.686   7.210 -0.5327 -2.2239 -0.4658
   37POPC    C3 4940   4.280   3.073   7.009  0.0069  0.1016  0.4458
   37POPC    HX 4941   4.213   3.133   7.073 -1.1885 -1.8684  1.0877
   37POPC    HY 4942   4.215   3.009   6.945  0.3306 -0.0199  0.2328
   37POPC   O31 4943   4.360   3.147   6.925 -0.2462 -0.2560  0.0984
   37POPC   C31 4944   4.407   3.264   6.969  0.4514  0.1197  0.1201
   37POPC   O32 4945   4.389   3.310   7.081  0.2692  0.3930  0.4749
   37POPC   C32 4946   4.501   3.324   6.866 -0.0652 -0.0702  0.2376
   37POPC   H2X 4947   4.440   3.356   6.779  0.9212 -2.7084 -1.4865
   37POPC   H2Y 4948   4.576   3.256   6.820 -0.9503 -0.2830 -0.9048
   37POPC   C23 4949   4.299   2.587   7.351  0.6720  0.0139  0.3741
   37POPC   H3R 4950   4.407   2.586   7.378  0.2011 -0.3168  2.3647
   37POPC   H3S 4951   4.263   2.486   7.323  0.8792 -0.0002  0.1659
   37POPC   C24 4952   4.215   2.630   7.466 -0.4596  0.1123 -0.1050
   37POPC   H4R 4953   4.107   2.614   7.446 -0.8384  2.7268 -0.3309
   37POPC   H4S 4954   4.224   2.740   7.476 -1.8069  0.2421 -0.2413
   37POPC   C25 4955   4.250   2.568   7.597 -0.0907  0.4404  0.3976
   37POPC   H5R 4956   4.353   2.529   7.584 -0.1797  0.4656 -0.4298
   37POPC   H5S 4957   4.189   2.476   7.601 -0.8675  0.9153 -0.2829
   37POPC   C26 4958   4.214   2.646   7.719  0.6223  0.6229 -0.7042
   37POPC   H6R 4959   4.105   2.667   7.720  0.8388  1.7455 -0.1202
   37POPC   H6S 4960   4.271   2.740   7.729  1.3366  0.3227 -1.9231
   37POPC   C27 4961   4.250   2.562   7.844 -0.7626 -0.8788  0.0604
   37POPC   H7R 4962   4.356   2.530   7.833  0.2034  1.8704  1.0116
   37POPC   H7S 4963   4.182   2.475   7.852  0.2103 -1.9055 -2.3690
   37POPC   C28 4964   4.241   2.654   7.961 -0.0440  0.0537  0.2397
   37POPC   H8R 4965   4.144   2.708   7.953 -0.2934 -0.5912 -1.1896
   37POPC   H8S 4966   4.320   2.731   7.949 -1.0518  1.2015  0.7524
   37POPC   C29 4967   4.249   2.591   8.094  0.1302 -0.8086  0.0147
   37POPC   H91 4968   4.313   2.502   8.101  1.0190 -0.1970 -0.2261
   37POPC  C210 4969   4.183   2.642   8.206 -0.7572 -0.4903  1.0027
   37POPC  H101 4970   4.204   2.580   8.294 -1.7822 -0.1712  1.4851
   37POPC  C211 4971   4.100   2.770   8.219 -0.3216  0.1153  0.2166
   37POPC  H11R 4972   4.161   2.846   8.166  0.5784  0.0401  1.1244
   37POPC  H11S 4973   4.102   2.814   8.322  0.6622 -2.3076  1.2613
   37POPC  C212 4974   3.958   2.772   8.167 -1.3299  0.0081 -0.6941
   37POPC  H12R 4975   3.896   2.724   8.246  0.1968  0.8883  1.0587
   37POPC  H12S 4976   3.936   2.715   8.074  1.4489 -1.4119 -0.5292
   37POPC  C213 4977   3.906   2.914   8.158 -0.3670  0.0590 -0.6157
   37POPC  H13R 4978   3.970   2.966   8.084  1.1886  0.8087  1.2221
   37POPC  H13S 4979   3.924   2.971   8.252 -0.7303  0.2000 -0.6325
   37POPC  C214 4980   3.754   2.923   8.129  0.9133  0.0187 -0.1237
   37POPC  H14R 4981   3.698   2.842   8.180 -0.9485  1.1659 -0.2545
   37POPC  H14S 4982   3.756   2.897   8.021  3.0384 -0.2353 -0.0449
   37POPC  C215 4983   3.694   3.062   8.138  0.1824 -1.0121 -0.3527
   37POPC  H15R 4984   3.618   3.071   8.058  1.0391 -0.7422 -1.1411
   37POPC  H15S 4985   3.782   3.131   8.135 -0.5005 -0.1371 -0.2829
   37POPC  C216 4986   3.614   3.086   8.274 -0.2212  0.0929 -0.0673
   37POPC  H16R 4987   3.667   3.051   8.365 -0.9213 -2.1476 -0.4731
   37POPC  H16S 4988   3.529   3.016   8.253  2.3530 -3.8017  1.9033
   37POPC  C217 4989   3.566   3.225   8.292  0.8719  0.5488 -0.0425
   37POPC  H17R 4990   3.527   3.286   8.208 -1.5660  1.0237  1.3928
   37POPC  H17S 4991   3.647   3.278   8.346  1.7580 -0.0384 -0.7761
   37POPC  C218 4992   3.443   3.231   8.387  0.6477 -0.3602  0.2827
   37POPC  H18R 4993   3.372   3.311   8.358 -2.0047 -1.8687  2.4389
   37POPC  H18S 4994   3.477   3.262   8.488 -0.1425  2.0897 -0.1655
   37POPC  H18T 4995   3.386   3.136   8.380  0.9863 -0.6278  1.0674
   37POPC   C33 4996   4.577   3.447   6.913 -0.5143  0.2995 -0.0371
   37POPC   H3X 4997   4.519   3.524   6.968 -0.6981 -0.4971  0.8942
   37POPC   H3Y 4998   4.614   3.491   6.817 -0.8551  2.4408  0.7734
   37POPC   C34 4999   4.701   3.408   6.998  0.0963 -0.9513 -0.3154
   37POPC   H4X 5000   4.771   3.354   6.931  0.9164 -0.6316  0.2838
   37POPC   H4Y 5001   4.670   3.337   7.077  0.0726 -2.8398 -1.9649
   37POPC   C35 5002   4.781   3.515   7.065  0.0317  0.9665  0.4483
   37POPC   H5X 5003   4.834   3.573   6.987 -2.0105  1.8341 -0.3258
   37POPC   H5Y 5004   4.865   3.467   7.119 -1.1732 -1.3592  0.3369
   37POPC   C36 5005   4.702   3.594   7.162  0.1896  0.1500 -0.1792
   37POPC   H6X 5006   4.600   3.630   7.138 -0.6666 -2.5891 -0.9295
   37POPC   H6Y 5007   4.764   3.682   7.187 -0.9747  1.2177 -1.0142
   37POPC   C37 5008   4.702   3.521   7.298  0.1421 -0.2161 -0.2863
   37POPC   H7X 5009   4.800   3.498   7.344 -0.2620 -1.4780 -0.0363
   37POPC   H7Y 5010   4.645   3.426   7.284 -1.7814  0.6604  1.3023
   37POPC   C38 5011   4.631   3.601   7.411 -0.8645 -0.5565  0.1656
   37POPC   H8X 5012   4.666   3.706   7.402  2.3993 -1.6022  0.0913
   37POPC   H8Y 5013   4.647   3.561   7.513 -3.1565 -0.6501  0.5118
   37POPC   C39 5014   4.475   3.604   7.401  0.2766  0.2192  0.3364
   37POPC   H9X 5015   4.450   3.497   7.421  0.7132 -0.2275 -1.4234
   37POPC   H9Y 5016   4.437   3.631   7.300  2.5121  2.5681  0.0704
   37POPC  C310 5017   4.406   3.675   7.516 -0.1216 -0.1244 -0.4294
   37POPC  H10X 5018   4.300   3.688   7.486 -0.7673 -0.9893  1.4149
   37POPC  H10Y 5019   4.456   3.774   7.524 -0.3939 -0.1699  2.5960
   37POPC  C311 5020   4.419   3.611   7.653 -0.2071 -0.4419 -0.1378
   37POPC  H11X 5021   4.523   3.620   7.691 -0.5960  1.9235  0.4354
   37POPC  H11Y 5022   4.397   3.502   7.651  0.4952 -0.5821 -0.2563
   37POPC  C312 5023   4.334   3.666   7.769 -0.2424  0.3048 -0.1705
   37POPC  H12X 5024   4.226   3.670   7.746 -0.3764 -1.6192  0.0640
   37POPC  H12Y 5025   4.352   3.776   7.770  0.6165  0.1638  1.2116
   37POPC  C313 5026   4.368   3.589   7.907 -0.0172 -0.7130  0.6689
   37POPC  H13X 5027   4.478   3.580   7.913  0.0965 -0.4543 -0.8025
   37POPC  H13Y 5028   4.323   3.488   7.895  1.4992 -1.3864  0.6070
   37POPC  C314 5029   4.308   3.654   8.027 -0.4208  0.7690 -0.6181
   37POPC  H14X 5030   4.222   3.713   7.989  0.7462  3.0189  0.1177
   37POPC  H14Y 5031   4.388   3.717   8.071  1.0322 -0.9945 -0.6592
   37POPC  C315 5032   4.263   3.565   8.137  0.3678  0.3140  0.3428
   37POPC  H15X 5033   4.177   3.503   8.103  0.5188 -1.1045  2.4324
   37POPC  H15Y 5034   4.215   3.634   8.210  2.2602  1.8024  0.2119
   37POPC  C316 5035   4.372   3.480   8.209 -0.0150  0.1759 -0.7989
   37POPC  H16X 5036   4.445   3.432   8.140 -0.2463  1.4420 -1.9531
   37POPC  H16Y 5037   4.329   3.399   8.272  2.4141 -1.9603 -1.7913
   37POPC  H16Z 5038   4.421   3.550   8.279 -0.2931 -0.3750 -0.0485
   38POPC     N 5039   5.283   6.410   6.465 -0.1497 -0.1103  0.1329
   38POPC   C12 5040   5.423   6.453   6.468 -0.0608  0.4303  0.3282
   38POPC  H12A 5041   5.425   6.561   6.482  0.6801  0.7917 -2.3108
   38POPC  H12B 5042   5.474   6.436   6.375 -3.8352 -0.2248 -1.7328
   38POPC   C13 5043   5.268   6.259   6.477  0.3344 -0.2172  0.6582
   38POPC  H13A 5044   5.161   6.242   6.481  0.0901  0.9197 -0.6672
   38POPC  H13B 5045   5.317   6.209   6.395  2.9670  1.3315  1.2382
   38POPC  H13C 5046   5.307   6.216   6.568  1.7862 -0.1288  0.0785
   38POPC   C14 5047   5.219   6.460   6.599  0.7851 -0.0127  0.2309
   38POPC  H14A 5048   5.235   6.566   6.614 -0.5960  0.1714  0.4441
   38POPC  H14B 5049   5.114   6.440   6.592  0.8849 -0.5924  0.3835
   38POPC  H14C 5050   5.249   6.412   6.691  0.8991  0.0234  0.2129
   38POPC   C15 5051   5.206   6.463   6.337  0.0917 -0.1361  0.2794
   38POPC  H15A 5052   5.196   6.571   6.330 -2.3038 -0.4794 -2.0037
   38POPC  H15B 5053   5.107   6.420   6.329  0.5963 -1.1131 -0.7260
   38POPC  H15C 5054   5.253   6.422   6.249 -0.6938  1.4336 -0.9029
   38POPC   C11 5055   5.530   6.411   6.583  0.0010  0.1232  0.4085
   38POPC  H11A 5056   5.481   6.444   6.677 -2.4695 -1.3576 -0.3088
   38POPC  H11B 5057   5.617   6.478   6.568  1.4907 -2.2221 -1.7839
   38POPC     P 5058   5.658   6.214   6.472  0.1912  0.3050 -0.2112
   38POPC   O13 5059   5.796   6.212   6.527  0.2590 -0.3303  0.5605
   38POPC   O14 5060   5.633   6.284   6.346 -0.6324 -0.0476  0.9710
   38POPC   O12 5061   5.556   6.268   6.580  0.2675 -0.0693  0.6257
   38POPC   O11 5062   5.622   6.061   6.453  0.1049  0.0030  0.3451
   38POPC    C1 5063   5.520   5.993   6.530 -0.7887  1.0728 -0.2303
   38POPC    HA 5064   5.469   5.929   6.455 -2.2308  1.3052  0.5510
   38POPC    HB 5065   5.444   6.057   6.578 -0.4638  0.6328  0.8893
   38POPC    C2 5066   5.590   5.911   6.638  0.4246  0.1409  0.5055
   38POPC    HS 5067   5.509   5.856   6.691 -0.1803  1.7839  1.3200
   38POPC   O21 5068   5.656   5.998   6.735  0.5782  0.3619 -0.5750
   38POPC   C21 5069   5.570   6.058   6.818 -0.1639  0.3696  0.0325
   38POPC   O22 5070   5.451   6.037   6.822 -0.1203  0.6380 -0.2547
   38POPC   C22 5071   5.648   6.141   6.915  0.1392 -0.2362 -1.1148
   38POPC   H2R 5072   5.578   6.174   6.995  0.4962  0.7630 -1.2156
   38POPC   H2S 5073   5.686   6.225   6.854  1.0612  0.8318  0.8957
   38POPC    C3 5074   5.690   5.806   6.575  0.4667  0.2959 -0.3606
   38POPC    HX 5075   5.790   5.845   6.548 -0.1096  1.4295 -0.9072
   38POPC    HY 5076   5.650   5.775   6.476  0.1360 -0.0394 -0.1270
   38POPC   O31 5077   5.696   5.697   6.669  0.4998 -0.2946  0.1229
   38POPC   C31 5078   5.797   5.703   6.757  0.0264  0.2966  0.3422
   38POPC   O32 5079   5.891   5.781   6.750 -0.3034 -0.1392  0.6131
   38POPC   C32 5080   5.785   5.601   6.869  0.1365  0.3391  0.0900
   38POPC   H2X 5081   5.778   5.501   6.820  4.0243 -0.5274  1.0952
   38POPC   H2Y 5082   5.698   5.618   6.935  1.4593 -3.3267  2.9572
   38POPC   C23 5083   5.766   6.076   6.986 -0.1763 -0.1223 -0.0263
   38POPC   H3R 5084   5.839   6.038   6.911  1.1892  0.7764  0.8320
   38POPC   H3S 5085   5.720   5.997   7.048  1.3884  1.4335  3.2302
   38POPC   C24 5086   5.845   6.172   7.073 -0.5501  0.2379 -0.4339
   38POPC   H4R 5087   5.779   6.217   7.150 -1.4924 -0.9212 -0.5567
   38POPC   H4S 5088   5.851   6.264   7.012  1.7094 -1.7083 -3.2848
   38POPC   C25 5089   5.967   6.118   7.148 -0.3975  0.1607 -0.3120
   38POPC   H5R 5090   6.046   6.090   7.074  0.5613  1.4749  0.2122
   38POPC   H5S 5091   5.938   6.029   7.208 -0.6038  1.3760  1.4073
   38POPC   C26 5092   6.024   6.221   7.246 -0.0964 -0.8046  0.0006
   38POPC   H6R 5093   6.042   6.316   7.191  1.7257 -0.9550  0.3100
   38POPC   H6S 5094   6.121   6.187   7.289  0.1506 -1.0709 -0.7760
   38POPC   C27 5095   5.933   6.266   7.363  0.2702 -0.1419  0.2559
   38POPC   H7R 5096   5.842   6.312   7.319  1.0269 -0.1740 -1.3704
   38POPC   H7S 5097   5.976   6.349   7.424  0.8757 -1.5289  1.7810
   38POPC   C28 5098   5.888   6.141   7.440 -0.3641 -0.0284  0.2236
   38POPC   H8R 5099   5.970   6.072   7.467 -0.5612 -0.0798  0.6998
   38POPC   H8S 5100   5.823   6.092   7.365  0.6499 -2.0789  0.6536
   38POPC   C29 5101   5.804   6.193   7.559 -0.9096 -0.2896  0.6989
   38POPC   H91 5102   5.729   6.270   7.535 -0.4235 -0.1114 -0.2669
   38POPC  C210 5103   5.814   6.160   7.686 -0.2728 -0.4311  0.6557
   38POPC  H101 5104   5.740   6.194   7.760  1.3789  0.6965  1.8409
   38POPC  C211 5105   5.920   6.068   7.735  0.5310 -0.2488 -0.4414
   38POPC  H11R 5106   5.994   6.126   7.794  0.6955 -1.3680  0.4865
   38POPC  H11S 5107   5.992   6.018   7.667  0.7566 -0.9168  0.2790
   38POPC  C212 5108   5.864   5.957   7.824 -0.1144 -0.6250 -0.4275
   38POPC  H12R 5109   5.951   5.896   7.855 -0.3104 -1.7297 -1.9682
   38POPC  H12S 5110   5.791   5.889   7.774 -2.5166  2.0517 -0.7468
   38POPC  C213 5111   5.796   6.003   7.956  0.2372  0.2459  0.4368
   38POPC  H13R 5112   5.749   5.913   8.000 -0.4982  0.4909  0.1536
   38POPC  H13S 5113   5.719   6.077   7.925 -0.3183 -0.9521 -1.0885
   38POPC  C214 5114   5.894   6.069   8.054 -0.6474  0.6222 -0.2967
   38POPC  H14R 5115   5.910   6.170   8.010  0.0094  1.7117  2.3512
   38POPC  H14S 5116   5.993   6.022   8.069 -1.6032 -1.0326  0.9690
   38POPC  C215 5117   5.818   6.091   8.190 -0.3026  0.2737 -0.9484
   38POPC  H15R 5118   5.810   5.994   8.243 -2.2619  1.6130  1.3168
   38POPC  H15S 5119   5.713   6.122   8.172 -0.0632  1.7025  0.0065
   38POPC  C216 5120   5.897   6.192   8.286  0.6375 -0.0362  0.4045
   38POPC  H16R 5121   5.876   6.281   8.222 -3.8602 -1.7602 -0.6983
   38POPC  H16S 5122   6.002   6.158   8.296  0.6933 -0.0324 -0.1413
   38POPC  C217 5123   5.830   6.189   8.426 -0.0250 -0.4019  0.2518
   38POPC  H17R 5124   5.859   6.092   8.470  0.9336  0.3753  1.3631
   38POPC  H17S 5125   5.720   6.179   8.416 -0.2762 -0.7037  2.9530
   38POPC  C218 5126   5.854   6.306   8.525  0.5979  0.0893  0.4478
   38POPC  H18R 5127   5.797   6.277   8.616 -1.2137 -0.6423 -0.9016
   38POPC  H18S 5128   5.807   6.400   8.488  0.3478  0.0768  0.7297
   38POPC  H18T 5129   5.963   6.317   8.542  0.7853 -1.5104  0.2819
   38POPC   C33 5130   5.911   5.590   6.938  0.1336  0.0775 -0.9376
   38POPC   H3X 5131   6.005   5.582   6.879  1.5203 -0.1424  1.2128
   38POPC   H3Y 5132   5.907   5.498   7.001  0.7773  1.6370  1.4738
   38POPC   C34 5133   5.941   5.709   7.043 -0.0927  0.4666 -0.0941
   38POPC   H4X 5134   5.841   5.736   7.083 -2.0933  0.2896 -4.6218
   38POPC   H4Y 5135   5.983   5.798   6.993  0.2456  0.3494 -0.0173
   38POPC   C35 5136   6.029   5.662   7.156 -0.4567  0.7479 -0.2142
   38POPC   H5X 5137   6.132   5.638   7.122  0.4479  2.1920  1.4377
   38POPC   H5Y 5138   5.970   5.577   7.197  0.2444 -0.8757 -2.4276
   38POPC   C36 5139   6.030   5.765   7.273 -0.4517  0.4593 -0.6667
   38POPC   H6X 5140   5.927   5.802   7.292 -2.0603 -2.8831 -2.3920
   38POPC   H6Y 5141   6.094   5.846   7.233 -1.4581  0.3683 -2.5076
   38POPC   C37 5142   6.092   5.709   7.398  0.8133  0.4210 -0.4552
   38POPC   H7X 5143   6.113   5.791   7.470 -2.5375 -1.4212  2.7881
   38POPC   H7Y 5144   6.183   5.645   7.386  0.6063 -0.2140  1.1529
   38POPC   C38 5145   5.990   5.618   7.475  0.0170  0.6279  0.1937
   38POPC   H8X 5146   5.964   5.526   7.418  2.2508 -0.9573  1.6599
   38POPC   H8Y 5147   5.897   5.678   7.485 -2.3650 -2.7992 -0.7317
   38POPC   C39 5148   6.048   5.569   7.610 -0.2725 -0.0403 -0.7305
   38POPC   H9X 5149   6.126   5.637   7.651  0.7740 -2.2102  1.0229
   38POPC   H9Y 5150   6.107   5.478   7.584  1.5920  0.2125  2.2880
   38POPC  C310 5151   5.942   5.548   7.717  0.2375 -0.0978  0.0195
   38POPC  H10X 5152   5.904   5.444   7.705  3.8859 -1.4588 -0.4085
   38POPC  H10Y 5153   5.856   5.613   7.692  1.9670  3.1683  2.1227
   38POPC  C311 5154   5.982   5.581   7.863  0.2760 -0.3161 -0.1218
   38POPC  H11X 5155   6.036   5.677   7.880  0.9916 -0.1604 -3.0820
   38POPC  H11Y 5156   6.044   5.499   7.904 -0.4954 -1.7101 -1.6818
   38POPC  C312 5157   5.863   5.601   7.957 -0.4975  0.1958  0.6343
   38POPC  H12X 5158   5.794   5.516   7.973 -0.7583  0.5321  1.2956
   38POPC  H12Y 5159   5.812   5.685   7.906  0.3389  0.0356 -0.5006
   38POPC  C313 5160   5.911   5.643   8.101 -1.3162  0.2274  0.5811
   38POPC  H13X 5161   5.984   5.726   8.089 -0.3392 -0.8078 -0.8439
   38POPC  H13Y 5162   5.965   5.554   8.138 -1.1442 -0.9463 -2.3672
   38POPC  C314 5163   5.796   5.666   8.197  0.0090 -0.4548 -0.5002
   38POPC  H14X 5164   5.724   5.581   8.203 -0.1751 -0.3305 -0.9602
   38POPC  H14Y 5165   5.748   5.761   8.166  0.4705  0.1886  0.7270
   38POPC  C315 5166   5.846   5.696   8.340 -0.1326  0.6588  0.3527
   38POPC  H15X 5167   5.916   5.782   8.341  2.5688 -1.4703  1.3478
   38POPC  H15Y 5168   5.891   5.601   8.377 -1.0838  0.9568  2.3530
   38POPC  C316 5169   5.728   5.727   8.433 -0.0620 -0.4942 -0.1951
   38POPC  H16X 5170   5.655   5.643   8.431 -1.6483  0.8835 -1.8458
   38POPC  H16Y 5171   5.683   5.813   8.380  1.5698  0.4043 -0.1686
   38POPC  H16Z 5172   5.768   5.763   8.530 -2.3419 -1.4157  1.1137
   39POPC     N 5173   2.175   3.375   6.160  0.3576  0.9675  0.1228
   39POPC   C12 5174   2.148   3.314   6.295 -0.1115  0.4809  0.5877
   39POPC  H12A 5175   2.053   3.354   6.327 -0.5282  0.1762 -0.2541
   39POPC  H12B 5176   2.225   3.354   6.359  2.8698 -1.5856 -1.5625
   39POPC   C13 5177   2.075   3.351   6.047 -0.4285  0.0196  0.0955
   39POPC  H13A 5178   2.089   3.403   5.954 -1.2276  0.9024  0.4538
   39POPC  H13B 5179   2.087   3.246   6.027 -1.6101 -0.0165 -0.4375
   39POPC  H13C 5180   1.979   3.361   6.097 -0.5513  2.0887 -0.4961
   39POPC   C14 5181   2.194   3.522   6.177 -0.2623 -0.4751 -0.5327
   39POPC  H14A 5182   2.276   3.545   6.243 -1.9330  0.7087  1.1872
   39POPC  H14B 5183   2.203   3.575   6.084 -1.3884  0.0807 -0.3300
   39POPC  H14C 5184   2.107   3.572   6.219 -0.1400 -0.6292 -0.0946
   39POPC   C15 5185   2.302   3.321   6.115 -0.0923 -0.1732 -0.6102
   39POPC  H15A 5186   2.321   3.347   6.012 -0.9177  1.4987 -0.3542
   39POPC  H15B 5187   2.310   3.213   6.121 -0.1930 -0.2156 -1.1722
   39POPC  H15C 5188   2.386   3.343   6.179 -0.2372  0.6759 -0.7119
   39POPC   C11 5189   2.145   3.158   6.306  0.2966  0.2744 -0.1848
   39POPC  H11A 5190   2.130   3.131   6.413  1.0494 -1.0237 -0.3911
   39POPC  H11B 5191   2.241   3.110   6.277  0.5859  0.4828  0.4162
   39POPC     P 5192   1.888   3.111   6.278 -0.9389  0.3043  0.3127
   39POPC   O13 5193   1.799   3.006   6.212  0.1836  0.0151  0.2885
   39POPC   O14 5194   1.846   3.255   6.276  0.0918 -0.2237  0.1969
   39POPC   O12 5195   2.039   3.104   6.226 -0.2451  0.3653 -0.3598
   39POPC   O11 5196   1.915   3.072   6.430  0.3765  0.1883  0.5931
   39POPC    C1 5197   1.806   3.013   6.497  0.1458  0.1449  0.2985
   39POPC    HA 5198   1.813   2.905   6.471  0.3332  0.2848 -0.2549
   39POPC    HB 5199   1.704   3.047   6.469 -0.8923 -1.3610  2.1628
   39POPC    C2 5200   1.815   3.045   6.651  0.0680  0.7762 -0.4652
   39POPC    HS 5201   1.747   2.976   6.704  0.7180 -0.6179 -1.3795
   39POPC   O21 5202   1.777   3.182   6.667 -0.1340  0.4357 -0.3898
   39POPC   C21 5203   1.642   3.213   6.670 -0.8612 -0.5026 -0.9183
   39POPC   O22 5204   1.554   3.136   6.645  0.0483  0.0272  0.1709
   39POPC   C22 5205   1.627   3.355   6.710  0.2574  0.0411  0.4364
   39POPC   H2R 5206   1.585   3.426   6.635 -0.1014  0.2253  0.8065
   39POPC   H2S 5207   1.728   3.389   6.743 -0.7559  1.0928  2.5780
   39POPC    C3 5208   1.958   3.020   6.720  0.0161 -0.4577  0.1131
   39POPC    HX 5209   2.023   3.093   6.668 -1.5665  0.6870 -0.2954
   39POPC    HY 5210   1.990   2.914   6.705  0.2812 -0.3407 -0.1316
   39POPC   O31 5211   1.953   3.060   6.861 -0.3875 -0.5424 -0.1261
   39POPC   C31 5212   2.079   3.073   6.912 -0.0146 -0.1016 -0.1730
   39POPC   O32 5213   2.181   3.048   6.845  0.3749  0.3244  0.0400
   39POPC   C32 5214   2.078   3.110   7.059  0.0933 -0.6788  0.4995
   39POPC   H2X 5215   2.097   3.220   7.062 -3.1112 -0.0884  0.4300
   39POPC   H2Y 5216   1.974   3.092   7.092  0.2161  0.0500  1.3057
   39POPC   C23 5217   1.535   3.377   6.833 -0.1401  0.1305  0.5461
   39POPC   H3R 5218   1.447   3.315   6.806 -0.4013  0.9842 -0.6436
   39POPC   H3S 5219   1.503   3.482   6.848  0.1215  0.0079  2.0534
   39POPC   C24 5220   1.580   3.319   6.963  0.4140 -0.6049 -0.7312
   39POPC   H4R 5221   1.671   3.373   6.998 -0.6820  0.0034  1.2413
   39POPC   H4S 5222   1.613   3.213   6.952  0.9129 -0.8608  2.6489
   39POPC   C25 5223   1.474   3.335   7.069 -0.2935 -0.2839 -0.1807
   39POPC   H5R 5224   1.376   3.287   7.045  0.4516 -2.9037  1.7313
   39POPC   H5S 5225   1.458   3.441   7.095  1.0542  0.1012 -0.8988
   39POPC   C26 5226   1.514   3.270   7.204  0.7071  0.3493  0.4261
   39POPC   H6R 5227   1.618   3.300   7.225  1.1606 -0.8761  0.0106
   39POPC   H6S 5228   1.510   3.160   7.189 -0.3925  0.8108 -3.0790
   39POPC   C27 5229   1.411   3.317   7.314 -0.4963  0.3777 -0.0463
   39POPC   H7R 5230   1.315   3.276   7.279 -0.1557 -0.2648 -0.2391
   39POPC   H7S 5231   1.400   3.427   7.298 -0.4321  0.4094  0.1200
   39POPC   C28 5232   1.448   3.276   7.452  0.3553 -0.0778  0.0534
   39POPC   H8R 5233   1.470   3.167   7.454  2.2957  0.2833 -0.8495
   39POPC   H8S 5234   1.355   3.277   7.513 -0.6541 -0.0529 -1.4777
   39POPC   C29 5235   1.552   3.357   7.515  0.1028 -0.2197 -0.4058
   39POPC   H91 5236   1.583   3.437   7.446 -0.1996  0.3399  0.0996
   39POPC  C210 5237   1.612   3.348   7.636  1.2762 -0.6427  0.1239
   39POPC  H101 5238   1.689   3.419   7.667 -1.1449  1.7936  0.7018
   39POPC  C211 5239   1.569   3.246   7.737 -0.7001  0.3247  0.4973
   39POPC  H11R 5240   1.650   3.171   7.735 -0.3396  0.7078 -3.0856
   39POPC  H11S 5241   1.480   3.186   7.709  1.2940 -1.1718 -2.9246
   39POPC  C212 5242   1.553   3.289   7.885 -0.2737  0.1773  0.0163
   39POPC  H12R 5243   1.532   3.203   7.952  1.3437  2.3793  3.5374
   39POPC  H12S 5244   1.462   3.352   7.889  1.2190  2.4043 -0.3194
   39POPC  C213 5245   1.681   3.353   7.937  0.4042 -1.1286 -0.7657
   39POPC  H13R 5246   1.698   3.449   7.884 -0.7028  0.2468  1.3063
   39POPC  H13S 5247   1.773   3.295   7.916  1.8315  0.8523 -0.2048
   39POPC  C214 5248   1.672   3.395   8.087 -0.0908  1.0304 -0.1427
   39POPC  H14R 5249   1.592   3.470   8.106 -0.3561  0.8065 -0.3501
   39POPC  H14S 5250   1.772   3.440   8.102  1.4778 -2.5234  0.5994
   39POPC  C215 5251   1.680   3.275   8.190 -0.1111 -0.9046 -0.5179
   39POPC  H15R 5252   1.745   3.193   8.153 -0.8793 -1.2810 -1.0143
   39POPC  H15S 5253   1.578   3.233   8.196 -0.0762 -1.1735 -1.7058
   39POPC  C216 5254   1.728   3.314   8.325 -0.0310  0.4288 -0.2549
   39POPC  H16R 5255   1.685   3.241   8.397  0.7297 -0.1578 -0.3896
   39POPC  H16S 5256   1.701   3.417   8.359 -1.7052  0.1728 -0.7591
   39POPC  C217 5257   1.880   3.309   8.345  0.7221  0.6356  0.0156
   39POPC  H17R 5258   1.927   3.391   8.287  0.3425  0.0967 -1.0488
   39POPC  H17S 5259   1.912   3.216   8.293 -0.0393  1.1952 -1.4897
   39POPC  C218 5260   1.919   3.291   8.497 -0.5408  1.2767  0.7842
   39POPC  H18R 5261   1.875   3.202   8.546  2.1343  0.8411  2.5506
   39POPC  H18S 5262   1.882   3.381   8.551 -0.1539  2.2131 -0.4734
   39POPC  H18T 5263   2.030   3.289   8.511 -0.8253  0.6086  3.1267
   39POPC   C33 5264   2.175   3.032   7.140 -0.0741 -0.4774  0.3517
   39POPC   H3X 5265   2.283   3.053   7.128 -0.1194 -0.9235 -0.9457
   39POPC   H3Y 5266   2.163   2.923   7.117 -0.1869 -0.1766 -1.0850
   39POPC   C34 5267   2.152   3.042   7.287  0.2972 -0.5609  0.2138
   39POPC   H4X 5268   2.046   3.054   7.318  0.6004 -2.2528  1.9932
   39POPC   H4Y 5269   2.197   3.140   7.316  0.4711 -0.0883 -1.5942
   39POPC   C35 5270   2.225   2.929   7.364  0.7837 -0.2905  0.3476
   39POPC   H5X 5271   2.328   2.931   7.323  0.6942 -3.6848 -0.1211
   39POPC   H5Y 5272   2.187   2.827   7.342  0.4951 -0.1784  0.3232
   39POPC   C36 5273   2.225   2.963   7.512 -0.2693 -0.3961 -0.7959
   39POPC   H6X 5274   2.119   2.969   7.543 -0.5918  0.4367 -2.0019
   39POPC   H6Y 5275   2.266   3.066   7.521 -1.3499 -0.1210  1.1347
   39POPC   C37 5276   2.289   2.859   7.598  0.0164  0.0460 -0.4514
   39POPC   H7X 5277   2.373   2.807   7.548 -0.8045 -2.2105  0.4580
   39POPC   H7Y 5278   2.214   2.780   7.621 -0.1749  0.3482 -0.0236
   39POPC   C38 5279   2.324   2.909   7.745 -0.6556 -0.0772  0.0590
   39POPC   H8X 5280   2.229   2.947   7.791 -0.1866  1.0761  0.0914
   39POPC   H8Y 5281   2.400   2.990   7.749  0.0842 -0.7996  0.7114
   39POPC   C39 5282   2.379   2.788   7.825 -0.2100 -0.3261 -0.3029
   39POPC   H9X 5283   2.462   2.739   7.770  2.0969  2.3002  0.7035
   39POPC   H9Y 5284   2.300   2.718   7.856 -1.5575  1.6865  0.9363
   39POPC  C310 5285   2.454   2.835   7.955 -0.2230  0.4408  0.7263
   39POPC  H10X 5286   2.380   2.880   8.024 -1.6060  0.0211 -0.4360
   39POPC  H10Y 5287   2.531   2.911   7.932 -1.0283  0.8977 -0.5177
   39POPC  C311 5288   2.532   2.718   8.027 -0.1736 -0.2578 -0.6754
   39POPC  H11X 5289   2.461   2.636   8.050  1.9581 -1.6807  1.0556
   39POPC  H11Y 5290   2.571   2.762   8.121  0.3091 -2.9431  0.4367
   39POPC  C312 5291   2.649   2.648   7.956  0.3297  0.5753  0.1982
   39POPC  H12X 5292   2.724   2.719   7.914  0.1263 -0.1362 -1.4076
   39POPC  H12Y 5293   2.615   2.595   7.864  2.8278 -1.8925  0.6316
   39POPC  C313 5294   2.716   2.547   8.054 -0.2864 -0.6113  0.0043
   39POPC  H13X 5295   2.635   2.479   8.087 -0.4999 -0.7037 -0.7022
   39POPC  H13Y 5296   2.742   2.592   8.152  4.0381 -2.0039 -0.3718
   39POPC  C314 5297   2.839   2.469   7.999  0.4160 -0.9795 -0.1114
   39POPC  H14X 5298   2.916   2.544   7.975 -0.2781 -0.7377 -1.6239
   39POPC  H14Y 5299   2.807   2.428   7.901 -2.6773  0.8734  0.0420
   39POPC  C315 5300   2.886   2.354   8.090 -0.5733  0.5069  0.2331
   39POPC  H15X 5301   2.812   2.292   8.146 -0.5537  1.6805  1.5727
   39POPC  H15Y 5302   2.930   2.399   8.181 -0.5692 -1.5990  1.3107
   39POPC  C316 5303   3.008   2.282   8.026  0.4851 -0.0604  0.8105
   39POPC  H16X 5304   3.072   2.230   8.100  1.6471  1.0608  0.5991
   39POPC  H16Y 5305   3.075   2.354   7.974  0.4673  0.2322  1.1882
   39POPC  H16Z 5306   2.972   2.218   7.942 -5.4298  2.8165  0.8954
   40POPC     N 5307   1.197   0.471   6.286  0.0797  0.6241 -0.2323
   40POPC   C12 5308   1.298   0.466   6.400  0.0766  0.2436 -0.1577
   40POPC  H12A 5309   1.254   0.412   6.482  0.5290  0.1098 -0.0023
   40POPC  H12B 5310   1.314   0.561   6.448  0.1394 -0.5692  1.4715
   40POPC   C13 5311   1.261   0.521   6.168 -0.3724  0.0495 -0.2736
   40POPC  H13A 5312   1.201   0.523   6.079 -1.9982 -2.6881  0.7047
   40POPC  H13B 5313   1.293   0.624   6.178  0.9858 -0.4681  0.9415
   40POPC  H13C 5314   1.348   0.460   6.149  0.3682  1.3720 -1.1820
   40POPC   C14 5315   1.137   0.332   6.254 -0.1162 -0.4780 -0.1155
   40POPC  H14A 5316   1.086   0.331   6.159 -1.1741  1.2883  0.4364
   40POPC  H14B 5317   1.218   0.261   6.241  0.3840  0.3184 -1.5605
   40POPC  H14C 5318   1.066   0.304   6.330  0.3984 -3.3396 -0.5945
   40POPC   C15 5319   1.087   0.559   6.327 -0.5005 -0.4511 -0.5210
   40POPC  H15A 5320   1.032   0.522   6.413 -1.1577  0.7505 -0.4185
   40POPC  H15B 5321   1.025   0.576   6.240  1.2609  2.3518 -1.2793
   40POPC  H15C 5322   1.131   0.655   6.350  1.2189 -1.5847  1.0351
   40POPC   C11 5323   1.430   0.397   6.379 -0.0865 -0.5455 -0.2580
   40POPC  H11A 5324   1.414   0.318   6.303  0.8858  0.3340 -1.3802
   40POPC  H11B 5325   1.473   0.345   6.468  0.7024 -0.2904 -0.4924
   40POPC     P 5326   1.663   0.436   6.271 -0.0650 -0.0380  0.3221
   40POPC   O13 5327   1.718   0.539   6.175  0.7749 -0.0109 -0.0828
   40POPC   O14 5328   1.626   0.304   6.222  0.4762 -0.0846  0.4895
   40POPC   O12 5329   1.528   0.485   6.327 -0.1910  0.1797  0.3238
   40POPC   O11 5330   1.749   0.425   6.404  0.5549 -0.6833  0.2870
   40POPC    C1 5331   1.771   0.536   6.489 -0.0394  0.1219  0.6832
   40POPC    HA 5332   1.734   0.630   6.442  0.8709  0.9325  1.5664
   40POPC    HB 5333   1.881   0.544   6.497 -0.1872  2.4210  0.6873
   40POPC    C2 5334   1.710   0.526   6.636 -0.4685 -0.2418 -0.3298
   40POPC    HS 5335   1.786   0.577   6.700 -1.4776  0.4284  0.3392
   40POPC   O21 5336   1.689   0.393   6.679 -0.0995  0.3228 -0.8898
   40POPC   C21 5337   1.787   0.310   6.657 -0.9053 -0.6052 -0.2357
   40POPC   O22 5338   1.906   0.342   6.653  0.2636  0.6374  0.0254
   40POPC   C22 5339   1.732   0.169   6.649 -0.2785 -0.1985 -0.6418
   40POPC   H2R 5340   1.747   0.137   6.544  1.5802 -0.1868 -0.3861
   40POPC   H2S 5341   1.621   0.179   6.661 -0.1496  1.3980 -0.5970
   40POPC    C3 5342   1.579   0.606   6.663 -0.5573 -0.2701  0.2609
   40POPC    HX 5343   1.510   0.560   6.589 -1.3303  1.1350  0.0811
   40POPC    HY 5344   1.593   0.714   6.640  2.3164 -0.6677 -0.1144
   40POPC   O31 5345   1.531   0.588   6.801 -0.2776 -0.1401  0.1107
   40POPC   C31 5346   1.429   0.503   6.811  0.0950 -0.4051 -0.7724
   40POPC   O32 5347   1.374   0.444   6.718  0.0246  0.2583  0.2640
   40POPC   C32 5348   1.383   0.488   6.952 -0.1513 -0.2150  0.9679
   40POPC   H2X 5349   1.458   0.418   6.994 -1.5175 -1.6827  1.0131
   40POPC   H2Y 5350   1.284   0.438   6.953 -0.3897  0.2027 -0.3048
   40POPC   C23 5351   1.797   0.070   6.743 -0.3698 -0.2248 -0.3332
   40POPC   H3R 5352   1.901   0.049   6.709  0.2495  0.2940  1.2250
   40POPC   H3S 5353   1.740  -0.026   6.740 -0.8691  0.0374  0.5217
   40POPC   C24 5354   1.813   0.114   6.888  0.3418 -0.1563 -0.5389
   40POPC   H4R 5355   1.864   0.213   6.885 -0.5199  0.2745 -1.2071
   40POPC   H4S 5356   1.874   0.036   6.940  3.6447  1.3169 -2.0439
   40POPC   C25 5357   1.681   0.114   6.962  0.0193  0.2904 -0.2472
   40POPC   H5R 5358   1.616   0.040   6.911 -1.4874  2.0253 -0.8933
   40POPC   H5S 5359   1.641   0.217   6.954 -1.1175 -0.0520  0.7885
   40POPC   C26 5360   1.693   0.089   7.113 -0.1704  0.2422  0.5180
   40POPC   H6R 5361   1.745  -0.005   7.137  1.7740  1.7118  2.2253
   40POPC   H6S 5362   1.590   0.083   7.155 -0.6941 -1.4129 -0.9371
   40POPC   C27 5363   1.765   0.208   7.186  0.3282 -0.1541  0.2203
   40POPC   H7R 5364   1.715   0.305   7.165  0.4982 -0.1192 -0.0320
   40POPC   H7S 5365   1.865   0.200   7.138  0.1643 -2.5122  0.2341
   40POPC   C28 5366   1.781   0.189   7.347  0.0612  0.7028  0.4281
   40POPC   H8R 5367   1.810   0.292   7.378 -1.9653  1.7771 -1.1335
   40POPC   H8S 5368   1.864   0.121   7.376  0.4837  0.8370 -0.4646
   40POPC   C29 5369   1.653   0.151   7.423  0.3813  0.0577  0.8869
   40POPC   H91 5370   1.570   0.219   7.400  0.3265 -0.5779 -0.8703
   40POPC  C210 5371   1.630   0.047   7.498 -0.6262  1.1024 -0.3005
   40POPC  H101 5372   1.544   0.033   7.566  0.7364  0.9633  1.4316
   40POPC  C211 5373   1.729  -0.059   7.540  0.0361  0.3826  0.2245
   40POPC  H11R 5374   1.703  -0.098   7.641 -0.0568 -0.0490  0.0335
   40POPC  H11S 5375   1.830  -0.012   7.542 -0.2495  0.9777  1.8249
   40POPC  C212 5376   1.751  -0.176   7.440 -0.0022 -0.8018 -0.2818
   40POPC  H12R 5377   1.817  -0.250   7.490  0.2069  0.4572  1.3239
   40POPC  H12S 5378   1.799  -0.154   7.342  0.3641  0.0550  0.0864
   40POPC  C213 5379   1.621  -0.248   7.414 -0.1236  0.2073  0.5326
   40POPC  H13R 5380   1.551  -0.179   7.362 -0.4826 -1.0321 -0.6343
   40POPC  H13S 5381   1.571  -0.273   7.510 -0.7935  0.0328  0.1355
   40POPC  C214 5382   1.637  -0.375   7.335 -0.0999 -0.1089  0.1007
   40POPC  H14R 5383   1.720  -0.438   7.376  0.2607  0.8115  0.8035
   40POPC  H14S 5384   1.668  -0.349   7.232  0.1166 -0.9873 -0.0674
   40POPC  C215 5385   1.512  -0.465   7.337  0.4960 -0.6970 -0.6702
   40POPC  H15R 5386   1.492  -0.492   7.442  0.6504  2.1930  0.1567
   40POPC  H15S 5387   1.524  -0.552   7.269  0.0109 -0.2300 -1.3663
   40POPC  C216 5388   1.389  -0.394   7.277 -0.2337 -0.1185 -0.8585
   40POPC  H16R 5389   1.422  -0.352   7.179 -2.1208 -0.8139 -1.8103
   40POPC  H16S 5390   1.372  -0.308   7.345 -1.1984  1.7915 -3.4073
   40POPC  C217 5391   1.260  -0.477   7.252  0.1687 -0.1995 -0.6947
   40POPC  H17R 5392   1.237  -0.522   7.351  2.1709  1.8704  0.7516
   40POPC  H17S 5393   1.272  -0.564   7.183 -1.9667 -2.3583  1.5453
   40POPC  C218 5394   1.140  -0.401   7.193  0.4529  0.1816  0.5325
   40POPC  H18R 5395   1.173  -0.326   7.117 -2.9665 -1.2074 -2.4562
   40POPC  H18S 5396   1.093  -0.351   7.280  0.1431  0.0476  0.4423
   40POPC  H18T 5397   1.066  -0.470   7.147  2.1900 -1.3544 -0.0252
   40POPC   C33 5398   1.375   0.624   7.024 -0.4894 -0.4700 -0.1290
   40POPC   H3X 5399   1.272   0.667   7.024  0.2687  1.4118  1.2070
   40POPC   H3Y 5400   1.442   0.704   6.985 -1.1165  0.0672 -0.1233
   40POPC   C34 5401   1.410   0.605   7.176 -0.4034  0.6523  0.0360
   40POPC   H4X 5402   1.514   0.566   7.182 -0.5886  0.3200  1.0397
   40POPC   H4Y 5403   1.340   0.530   7.218  0.7175 -0.0018  0.7593
   40POPC   C35 5404   1.404   0.733   7.266 -0.0609 -0.6046 -0.1489
   40POPC   H5X 5405   1.312   0.786   7.232 -0.6047 -1.2112  0.3701
   40POPC   H5Y 5406   1.501   0.783   7.248  0.5210 -1.2041  1.3285
   40POPC   C36 5407   1.371   0.687   7.407 -0.3604 -0.1809  0.1186
   40POPC   H6X 5408   1.430   0.595   7.427  0.7760  0.6937  0.8660
   40POPC   H6Y 5409   1.262   0.670   7.406 -0.5506  0.9991 -0.9047
   40POPC   C37 5410   1.407   0.796   7.515 -0.4193  0.0375 -0.2608
   40POPC   H7X 5411   1.349   0.888   7.492  1.3819  1.0199 -0.9789
   40POPC   H7Y 5412   1.516   0.814   7.517 -0.3119 -0.6366  0.0899
   40POPC   C38 5413   1.367   0.754   7.651  0.0399  0.0500 -0.5886
   40POPC   H8X 5414   1.430   0.665   7.674  1.7920  0.8661 -2.1441
   40POPC   H8Y 5415   1.261   0.720   7.652 -0.8449  2.5413 -3.1816
   40POPC   C39 5416   1.411   0.859   7.758 -0.1005  0.6212  0.1753
   40POPC   H9X 5417   1.361   0.952   7.724 -0.9799 -0.1456 -0.6399
   40POPC   H9Y 5418   1.522   0.858   7.753 -0.0709 -0.9836  0.6719
   40POPC  C310 5419   1.352   0.821   7.898  0.1274 -0.4808 -0.6679
   40POPC  H10X 5420   1.369   0.714   7.921 -1.4715 -0.7903 -0.8862
   40POPC  H10Y 5421   1.245   0.847   7.884  0.1275  0.6482  1.2308
   40POPC  C311 5422   1.403   0.924   8.010 -0.6422 -0.7246  0.3611
   40POPC  H11X 5423   1.386   1.028   7.975 -0.6754 -0.3690  1.4449
   40POPC  H11Y 5424   1.513   0.909   8.014 -0.2804  1.2416 -1.2094
   40POPC  C312 5425   1.352   0.888   8.151  0.4038  0.3572 -0.1786
   40POPC  H12X 5426   1.364   0.778   8.147  3.1291  0.6691 -2.2448
   40POPC  H12Y 5427   1.242   0.904   8.149  0.3209 -0.2485 -0.5620
   40POPC  C313 5428   1.427   0.956   8.260 -0.2559  0.5297  0.0200
   40POPC  H13X 5429   1.405   1.064   8.250 -0.5500  0.4263 -0.4892
   40POPC  H13Y 5430   1.537   0.952   8.248 -0.1994  0.4737  0.5537
   40POPC  C314 5431   1.399   0.900   8.401 -0.2553 -0.9070  0.0462
   40POPC  H14X 5432   1.419   0.791   8.394 -2.3152 -1.2906 -0.3233
   40POPC  H14Y 5433   1.289   0.914   8.414 -0.0261  2.4149 -1.0002
   40POPC  C315 5434   1.466   0.991   8.510 -0.6553 -0.0857  0.0373
   40POPC  H15X 5435   1.425   1.094   8.497  0.0454 -0.2095 -3.9355
   40POPC  H15Y 5436   1.574   0.997   8.484 -0.4190  0.4927  1.1293
   40POPC  C316 5437   1.457   0.951   8.659  0.2465  0.4590 -0.2735
   40POPC  H16X 5438   1.513   0.858   8.682 -0.0790  0.7975  2.0787
   40POPC  H16Y 5439   1.352   0.946   8.696  0.4324 -2.6912 -0.0057
   40POPC  H16Z 5440   1.518   1.023   8.717  0.3202  0.3199 -0.1779
   41CHL1    C3 5441   0.693   4.047   9.941 -0.0376 -0.5214  0.5733
   41CHL1    H3 5442   0.787   3.999   9.908  0.7475  2.5106 -1.8552
   41CHL1    O3 5443   0.681   4.036  10.076 -0.4005 -0.2938 -0.2526
   41CHL1   H3' 5444   0.597   4.071  10.107 -1.2461 -1.8254 -0.7551
   41CHL1    C4 5445   0.703   4.197   9.904 -0.6299  0.2696 -0.1616
   41CHL1   H4A 5446   0.609   4.245   9.937 -0.2753  0.6794  0.2626
   41CHL1   H4B 5447   0.791   4.232   9.962 -0.9815  0.2360  0.3958
   41CHL1    C5 5448   0.734   4.205   9.755  0.2121 -0.0265  0.6355
   41CHL1    C6 5449   0.850   4.264   9.712 -0.0860  0.3604 -0.3857
   41CHL1    H6 5450   0.908   4.320   9.787 -0.2622  0.2108 -0.1372
   41CHL1    C7 5451   0.870   4.275   9.563  0.2929  0.1384  0.6451
   41CHL1   H7A 5452   0.885   4.383   9.541  0.7360 -0.0402  0.0585
   41CHL1   H7B 5453   0.956   4.217   9.524 -1.0270 -0.9395 -0.7286
   41CHL1    C8 5454   0.744   4.251   9.478  0.4882  0.6154 -0.5751
   41CHL1    H8 5455   0.675   4.334   9.505 -1.1330 -0.7425 -0.4644
   41CHL1   C14 5456   0.794   4.243   9.333 -0.0343 -0.5764 -0.0589
   41CHL1   H14 5457   0.850   4.148   9.323 -0.1201 -0.5471 -0.8588
   41CHL1   C15 5458   0.875   4.358   9.275  0.0803 -0.0536  0.9233
   41CHL1  H15A 5459   0.824   4.455   9.293  0.4016  0.1647  0.6566
   41CHL1  H15B 5460   0.977   4.366   9.319 -0.0970 -1.0567  1.5395
   41CHL1   C16 5461   0.883   4.323   9.126  0.2046 -0.4829 -0.0142
   41CHL1  H16A 5462   0.859   4.412   9.064  0.4283 -0.2504  0.2302
   41CHL1  H16B 5463   0.982   4.280   9.098  0.0416 -0.1279 -1.1840
   41CHL1   C17 5464   0.779   4.216   9.103 -0.0560  0.1441  0.4006
   41CHL1   H17 5465   0.836   4.120   9.099  1.5262  1.0717  0.1511
   41CHL1   C13 5466   0.686   4.216   9.228 -0.0704 -0.2285  0.1761
   41CHL1   C18 5467   0.581   4.324   9.217  0.1270 -0.1950 -0.1980
   41CHL1  H18A 5468   0.534   4.344   9.316  1.5633  0.2684  0.4119
   41CHL1  H18B 5469   0.626   4.413   9.169  0.3286  0.0882  0.5045
   41CHL1  H18C 5470   0.506   4.290   9.143 -0.7212 -1.7499  1.3449
   41CHL1   C12 5471   0.604   4.090   9.261 -0.8466 -0.6496 -0.3759
   41CHL1  H12A 5472   0.512   4.082   9.201 -1.9400 -1.4121  1.3551
   41CHL1  H12B 5473   0.668   4.002   9.239  1.4687  0.7156  0.6413
   41CHL1   C11 5474   0.563   4.088   9.412  0.4577  0.3342 -0.4030
   41CHL1  H11A 5475   0.487   4.169   9.410 -2.4008 -2.2013  1.5203
   41CHL1  H11B 5476   0.517   3.992   9.442  0.6417  0.2930 -0.2562
   41CHL1    C9 5477   0.670   4.123   9.521  0.2026 -0.3274  0.4133
   41CHL1    H9 5478   0.746   4.042   9.513  1.4523  0.5991  2.7325
   41CHL1   C10 5479   0.626   4.135   9.670 -0.3682  0.7452  0.3561
   41CHL1   C19 5480   0.499   4.222   9.674  0.0897 -0.0140  0.0958
   41CHL1  H19A 5481   0.512   4.325   9.634 -0.3561  0.9477  2.3663
   41CHL1  H19B 5482   0.411   4.181   9.621  0.0586  1.5605 -1.0746
   41CHL1  H19C 5483   0.470   4.239   9.780  0.0660 -3.1806  0.6497
   41CHL1    C1 5484   0.583   3.992   9.716  0.2677 -0.3978  1.2465
   41CHL1   H1A 5485   0.487   3.953   9.676 -1.2694  1.5115  2.9624
   41CHL1   H1B 5486   0.664   3.922   9.687  2.0003  1.6904  0.8661
   41CHL1    C2 5487   0.575   3.986   9.865 -0.9802 -0.2283  0.0050
   41CHL1   H2A 5488   0.568   3.883   9.906  1.9791  0.1219  1.4802
   41CHL1   H2B 5489   0.480   4.034   9.899 -1.4207 -0.2995 -1.1011
   41CHL1   C20 5490   0.713   4.217   8.965  0.1297 -0.2217  0.4074
   41CHL1   H20 5491   0.632   4.293   8.966 -0.4982 -0.8404 -1.1427
   41CHL1   C21 5492   0.655   4.077   8.931 -0.2540  0.3071  0.2047
   41CHL1  H21A 5493   0.560   4.090   8.875 -0.6346 -2.9359 -0.0154
   41CHL1  H21B 5494   0.645   4.009   9.018  0.9075 -0.7724 -0.4920
   41CHL1  H21C 5495   0.728   4.029   8.862  0.8148  1.7232  0.3278
   41CHL1   C22 5496   0.800   4.261   8.847 -0.8521  0.0033 -0.8473
   41CHL1  H22A 5497   0.849   4.359   8.861  3.1566 -2.2522  2.2061
   41CHL1  H22B 5498   0.892   4.198   8.839 -1.0193 -0.7412  2.5439
   41CHL1   C23 5499   0.735   4.265   8.709 -0.7462 -0.6038  0.2586
   41CHL1  H23A 5500   0.805   4.300   8.630 -0.9811  0.0442  0.3344
   41CHL1  H23B 5501   0.703   4.165   8.673  2.4552 -1.8665  0.7954
   41CHL1   C24 5502   0.611   4.358   8.699 -0.2812  0.0454  0.8224
   41CHL1  H24A 5503   0.543   4.318   8.777  1.3154 -3.1044  0.6964
   41CHL1  H24B 5504   0.633   4.464   8.723 -0.1490  0.3345 -0.5038
   41CHL1   C25 5505   0.536   4.358   8.556  0.3006  0.5067  0.2175
   41CHL1   H25 5506   0.479   4.264   8.544  1.7205 -0.1873 -1.1037
   41CHL1   C26 5507   0.438   4.472   8.560  0.9988 -0.8391  0.1362
   41CHL1  H26A 5508   0.366   4.457   8.643  0.8274  0.0408  0.1533
   41CHL1  H26B 5509   0.480   4.574   8.576  1.3194 -1.4307  3.4667
   41CHL1  H26C 5510   0.373   4.477   8.470 -0.0546  3.1759  1.0055
   41CHL1   C27 5511   0.627   4.381   8.451 -0.4049  0.2261 -1.0750
   41CHL1  H27A 5512   0.562   4.390   8.361 -1.2712  0.8899 -0.3986
   41CHL1  H27B 5513   0.685   4.472   8.478 -0.1213 -0.5109  0.8404
   41CHL1  H27C 5514   0.697   4.296   8.438  1.7035  1.5384  1.3410
   42CHL1    C3 5515   0.394   3.498   9.703  0.6294  0.5175 -1.0475
   42CHL1    H3 5516   0.478   3.566   9.676  2.3280 -1.3071 -0.4997
   42CHL1    O3 5517   0.451   3.405   9.796 -0.4236 -0.3080 -0.1529
   42CHL1   H3' 5518   0.518   3.356   9.747 -2.1348  0.9870 -3.9865
   42CHL1    C4 5519   0.278   3.570   9.768  0.2585 -0.1135 -0.0496
   42CHL1   H4A 5520   0.190   3.505   9.784  0.7279 -0.7176  0.1142
   42CHL1   H4B 5521   0.311   3.606   9.868  0.9801  0.4887 -0.5016
   42CHL1    C5 5522   0.243   3.686   9.676 -0.3166  0.5223  0.1082
   42CHL1    C6 5523   0.238   3.817   9.717  1.7708  1.2283 -0.5037
   42CHL1    H6 5524   0.266   3.841   9.821 -1.5485  1.5050  0.3647
   42CHL1    C7 5525   0.195   3.933   9.632  0.0809 -0.2432 -0.3149
   42CHL1   H7A 5526   0.113   3.995   9.675  2.2246  1.7221  1.0606
   42CHL1   H7B 5527   0.274   4.011   9.619 -0.9097  0.5321 -1.7667
   42CHL1    C8 5528   0.149   3.895   9.488 -0.4157  0.6516  0.4809
   42CHL1    H8 5529   0.040   3.877   9.476  0.2699 -2.1368 -2.1264
   42CHL1   C14 5530   0.175   4.010   9.395 -0.3768 -0.5229 -0.2075
   42CHL1   H14 5531   0.285   4.026   9.394  0.1764 -3.9193 -1.4347
   42CHL1   C15 5532   0.110   4.142   9.437 -0.1813  0.6256  0.1756
   42CHL1  H15A 5533  -0.001   4.142   9.439 -0.2193 -0.5214 -1.8752
   42CHL1  H15B 5534   0.148   4.188   9.532 -0.8137  0.2386  0.6198
   42CHL1   C16 5535   0.149   4.232   9.314  0.2610  0.5009 -0.6875
   42CHL1  H16A 5536   0.057   4.289   9.287  0.3075  0.8758 -0.0686
   42CHL1  H16B 5537   0.231   4.305   9.333 -0.4206  0.5958  2.1258
   42CHL1   C17 5538   0.188   4.128   9.206 -0.4500  0.4697  0.0217
   42CHL1   H17 5539   0.299   4.119   9.200 -0.6222 -2.6354  0.5568
   42CHL1   C13 5540   0.141   3.989   9.246 -0.3489 -0.4242  0.3082
   42CHL1   C18 5541  -0.015   3.970   9.226  0.0111  0.7362  0.7695
   42CHL1  H18A 5542  -0.059   3.897   9.296 -1.2538  0.3121 -0.4536
   42CHL1  H18B 5543  -0.061   4.062   9.267  1.9411  0.6386  3.2572
   42CHL1  H18C 5544  -0.051   3.952   9.122 -0.0716  2.2997  0.5078
   42CHL1   C12 5545   0.224   3.870   9.193 -0.3215  0.6244  0.0043
   42CHL1  H12A 5546   0.199   3.834   9.091  0.3517  1.6091 -0.5240
   42CHL1  H12B 5547   0.330   3.903   9.197  0.1045 -0.5320 -1.4137
   42CHL1   C11 5548   0.202   3.747   9.285 -0.0636  0.4405 -0.0705
   42CHL1  H11A 5549   0.095   3.720   9.269 -0.2106  0.4635  0.8831
   42CHL1  H11B 5550   0.247   3.651   9.251  0.0952  0.3767  0.3247
   42CHL1    C9 5551   0.228   3.777   9.437 -1.3140  0.7168 -0.0804
   42CHL1    H9 5552   0.333   3.809   9.448 -0.6724 -1.2295 -0.3878
   42CHL1   C10 5553   0.213   3.656   9.524  0.4617 -0.3845 -0.2380
   42CHL1   C19 5554   0.066   3.599   9.513  0.4227  0.4631 -0.6452
   42CHL1  H19A 5555   0.047   3.545   9.418  0.6323 -0.1353 -0.3477
   42CHL1  H19B 5556   0.050   3.524   9.593  0.3484  1.9927  0.8185
   42CHL1  H19C 5557  -0.007   3.683   9.515  2.8126  2.5818  0.4849
   42CHL1    C1 5558   0.316   3.548   9.473 -0.3300  0.4373 -0.5456
   42CHL1   H1A 5559   0.286   3.505   9.375 -0.5996 -1.0378  0.1646
   42CHL1   H1B 5560   0.416   3.595   9.461  0.2943 -1.0833 -1.4596
   42CHL1    C2 5561   0.346   3.431   9.576  0.0960 -0.3513 -0.3733
   42CHL1   H2A 5562   0.425   3.361   9.541 -0.8854 -0.9659 -1.3933
   42CHL1   H2B 5563   0.246   3.398   9.611 -1.2710  3.2280 -0.7040
   42CHL1   C20 5564   0.155   4.184   9.065  0.0551 -0.8899  0.5231
   42CHL1   H20 5565   0.046   4.166   9.057  0.0342 -0.4226 -0.2500
   42CHL1   C21 5566   0.208   4.102   8.957  0.7600 -0.2062  0.3042
   42CHL1  H21A 5567   0.152   4.006   8.961  0.9392 -0.3660 -0.8286
   42CHL1  H21B 5568   0.317   4.080   8.962  1.0739  1.0052 -0.8516
   42CHL1  H21C 5569   0.196   4.146   8.855 -0.2871 -0.6273  0.2396
   42CHL1   C22 5570   0.182   4.335   9.054  0.0405  0.0019  0.5696
   42CHL1  H22A 5571   0.119   4.388   9.129 -3.4567 -2.8459 -0.1963
   42CHL1  H22B 5572   0.288   4.358   9.077  0.5733 -0.9075 -0.9281
   42CHL1   C23 5573   0.153   4.405   8.924  0.0783 -0.1855  0.5875
   42CHL1  H23A 5574   0.212   4.363   8.840  0.5436 -0.4623  1.0497
   42CHL1  H23B 5575   0.046   4.387   8.896  0.4504 -0.9709 -0.3644
   42CHL1   C24 5576   0.155   4.560   8.944  0.2393 -0.3291  0.2779
   42CHL1  H24A 5577   0.121   4.575   9.049 -0.4961  2.9432 -0.3755
   42CHL1  H24B 5578   0.257   4.596   8.921 -0.4278  0.3592 -1.6019
   42CHL1   C25 5579   0.049   4.631   8.860 -0.2971  0.1932  0.1538
   42CHL1   H25 5580  -0.058   4.605   8.874 -0.1345  0.1832  1.3859
   42CHL1   C26 5581   0.053   4.781   8.901 -0.3180 -0.0075 -0.2308
   42CHL1  H26A 5582   0.016   4.790   9.005 -0.2424 -1.6795 -0.0374
   42CHL1  H26B 5583   0.152   4.828   8.883 -0.3603  0.2996  0.3216
   42CHL1  H26C 5584  -0.021   4.834   8.838  0.9099 -0.7277 -2.3301
   42CHL1   C27 5585   0.077   4.617   8.707  0.0333  0.0831 -0.8681
   42CHL1  H27A 5586   0.065   4.511   8.676 -2.3370 -0.6503  2.2575
   42CHL1  H27B 5587   0.008   4.683   8.651 -0.0952  1.2365  0.6231
   42CHL1  H27C 5588   0.182   4.645   8.682  0.2174 -0.1869 -0.4233
   43CHL1    C3 5589   0.962   3.460  10.097  0.4768  0.0839  0.5019
   43CHL1    H3 5590   1.073   3.464  10.098  0.4972 -0.5821  1.3423
   43CHL1    O3 5591   0.917   3.416  10.227 -0.3753 -0.5194  0.1971
   43CHL1   H3' 5592   0.924   3.320  10.219 -4.1453 -0.7865 -0.8144
   43CHL1    C4 5593   0.902   3.599  10.072 -0.6637  0.0199  0.4536
   43CHL1   H4A 5594   0.792   3.583  10.070 -0.7410  0.4321  1.0053
   43CHL1   H4B 5595   0.926   3.663  10.160  0.7389  1.4481 -0.9395
   43CHL1    C5 5596   0.952   3.646   9.937 -0.5719  1.2979  0.9681
   43CHL1    C6 5597   1.028   3.756   9.921 -0.4960 -0.0893  0.7013
   43CHL1    H6 5598   1.051   3.812  10.013 -2.8302  0.0234  1.2441
   43CHL1    C7 5599   1.077   3.813   9.794  0.7764 -0.1789  0.3051
   43CHL1   H7A 5600   1.064   3.924   9.796  1.7705 -0.0728  1.1430
   43CHL1   H7B 5601   1.185   3.789   9.786  0.5985 -1.6011  1.8726
   43CHL1    C8 5602   0.990   3.749   9.678 -0.2158  0.1689  0.4972
   43CHL1    H8 5603   0.888   3.790   9.694 -1.4909 -3.1674  1.1117
   43CHL1   C14 5604   1.048   3.788   9.548  0.2343  0.3782 -0.4737
   43CHL1   H14 5605   1.149   3.742   9.542  1.6975  3.2983  0.8887
   43CHL1   C15 5606   1.055   3.930   9.519 -0.0976 -0.4890 -0.2359
   43CHL1  H15A 5607   0.960   3.976   9.555 -0.5055 -2.3867  1.2133
   43CHL1  H15B 5608   1.140   3.979   9.572  0.4061  0.0579 -1.5184
   43CHL1   C16 5609   1.076   3.952   9.365  0.1621 -0.1449 -0.5207
   43CHL1  H16A 5610   1.000   4.018   9.317  1.2845  1.2184 -0.4383
   43CHL1  H16B 5611   1.182   3.971   9.337  0.0462  0.5422 -0.5134
   43CHL1   C17 5612   1.058   3.804   9.309 -0.1295  0.1685  0.1419
   43CHL1   H17 5613   1.156   3.753   9.318 -1.0146 -1.6829 -0.4058
   43CHL1   C13 5614   0.974   3.733   9.422  0.3629 -0.4980  0.2696
   43CHL1   C18 5615   0.833   3.790   9.413  0.6590  0.3901  0.2574
   43CHL1  H18A 5616   0.770   3.723   9.351 -0.0187  0.7256  0.5693
   43CHL1  H18B 5617   0.781   3.803   9.510 -0.6589 -0.5661 -0.3027
   43CHL1  H18C 5618   0.825   3.892   9.370  0.4231  0.6179  0.8346
   43CHL1   C12 5619   0.980   3.575   9.429  0.5993 -0.7485 -0.1488
   43CHL1  H12A 5620   0.911   3.535   9.351  1.2291 -0.0823 -1.0584
   43CHL1  H12B 5621   1.080   3.536   9.400  0.8029  0.1662 -0.7099
   43CHL1   C11 5622   0.938   3.512   9.565 -0.2207 -0.2537 -0.3873
   43CHL1  H11A 5623   0.829   3.495   9.549 -0.7649  3.7790 -1.5400
   43CHL1  H11B 5624   0.973   3.407   9.573 -1.1135 -0.7496 -2.5723
   43CHL1    C9 5625   0.987   3.591   9.691  0.0303 -0.1975 -0.1478
   43CHL1    H9 5626   1.094   3.567   9.709 -0.4579 -0.7535  2.0597
   43CHL1   C10 5627   0.913   3.551   9.817 -0.2359  0.2081  0.4114
   43CHL1   C19 5628   0.760   3.563   9.802  0.0787 -0.2506  0.0040
   43CHL1  H19A 5629   0.724   3.669   9.797  1.2738  0.0735 -2.5444
   43CHL1  H19B 5630   0.719   3.504   9.717 -0.9650 -0.1592  0.4261
   43CHL1  H19C 5631   0.705   3.512   9.884  1.0633 -3.6291 -1.3576
   43CHL1    C1 5632   0.954   3.398   9.853  0.1269 -0.7174 -0.3915
   43CHL1   H1A 5633   0.903   3.330   9.782  0.0856  1.4327 -2.4818
   43CHL1   H1B 5634   1.064   3.387   9.849 -0.0049 -2.9298  1.1635
   43CHL1    C2 5635   0.909   3.356   9.993  0.6820  0.2683 -0.2039
   43CHL1   H2A 5636   0.948   3.254  10.012  1.2487  1.0332  3.0237
   43CHL1   H2B 5637   0.799   3.345  10.001  0.4627  0.3481 -2.5084
   43CHL1   C20 5638   1.014   3.810   9.165  0.4612  0.3592 -0.3504
   43CHL1   H20 5639   0.910   3.845   9.146  0.4892  0.6625  0.0425
   43CHL1   C21 5640   1.041   3.667   9.108  0.4306  0.6964  0.3735
   43CHL1  H21A 5641   1.007   3.587   9.178  1.4645  0.3940  0.5296
   43CHL1  H21B 5642   1.150   3.656   9.092  0.1008 -0.8939 -0.8086
   43CHL1  H21C 5643   0.984   3.661   9.013 -1.3822  0.0911  1.4535
   43CHL1   C22 5644   1.105   3.897   9.077 -0.9111 -0.8738 -0.4990
   43CHL1  H22A 5645   1.083   4.000   9.113  0.0578 -1.3455  1.5191
   43CHL1  H22B 5646   1.211   3.875   9.105 -0.9459  0.0773  0.3776
   43CHL1   C23 5647   1.098   3.884   8.923  0.5890  0.8902 -0.0116
   43CHL1  H23A 5648   1.111   3.779   8.888  1.9272  0.9853  0.1730
   43CHL1  H23B 5649   0.990   3.901   8.903 -0.5001 -2.5803  2.3778
   43CHL1   C24 5650   1.204   3.956   8.844  0.0943 -1.0660  0.1666
   43CHL1  H24A 5651   1.213   4.059   8.884 -1.9696 -0.9906  0.4947
   43CHL1  H24B 5652   1.302   3.920   8.881  0.4361  1.5665  1.9345
   43CHL1   C25 5653   1.173   3.938   8.697 -0.7279  0.2465 -1.1752
   43CHL1   H25 5654   1.213   3.842   8.657  1.0146  0.3732  0.1835
   43CHL1   C26 5655   1.023   3.945   8.661 -0.2129  0.2991  0.4180
   43CHL1  H26A 5656   1.017   3.942   8.550  0.6968 -1.6503  0.4103
   43CHL1  H26B 5657   0.956   3.874   8.714 -1.3574  1.0860  0.0682
   43CHL1  H26C 5658   0.984   4.044   8.694  2.5924  2.4721 -2.5309
   43CHL1   C27 5659   1.243   4.050   8.621  0.6290  0.1041 -0.2655
   43CHL1  H27A 5660   1.200   4.150   8.643  0.9757 -0.6080  4.1720
   43CHL1  H27B 5661   1.352   4.062   8.638  0.2055  0.5286  2.4587
   43CHL1  H27C 5662   1.228   4.035   8.512 -4.0663  0.8063  0.1886
   44CHL1    C3 5663   1.156   4.044  10.356  0.3150 -0.4579 -0.0450
   44CHL1    H3 5664   1.262   4.040  10.391 -0.2182 -1.7909  1.4561
   44CHL1    O3 5665   1.061   4.006  10.453  0.0912  0.5990 -0.6616
   44CHL1   H3' 5666   0.988   3.981  10.397  1.3350  1.3251 -2.6483
   44CHL1    C4 5667   1.125   4.188  10.305  0.2032  0.2747 -0.0168
   44CHL1   H4A 5668   1.031   4.179  10.246 -0.9076  1.3005  1.5590
   44CHL1   H4B 5669   1.101   4.253  10.392 -1.6102  2.8408 -2.3427
   44CHL1    C5 5670   1.240   4.228  10.209  0.2202 -0.1594 -0.1199
   44CHL1    C6 5671   1.312   4.343  10.235 -0.1751  0.5521 -0.1347
   44CHL1    H6 5672   1.292   4.402  10.325 -1.6298  0.5702 -0.4548
   44CHL1    C7 5673   1.412   4.397  10.136 -0.1903  0.4909  1.1712
   44CHL1   H7A 5674   1.404   4.507  10.123 -1.5073  0.2370 -0.3642
   44CHL1   H7B 5675   1.517   4.373  10.164 -0.8264 -1.9992  1.5792
   44CHL1    C8 5676   1.399   4.330   9.997 -0.0827  0.2947 -0.0397
   44CHL1    H8 5677   1.305   4.370   9.953 -0.1652  1.8913  1.5622
   44CHL1   C14 5678   1.518   4.357   9.914  0.7389 -0.0151 -0.0340
   44CHL1   H14 5679   1.605   4.311   9.966  0.3890  1.2378  1.7166
   44CHL1   C15 5680   1.579   4.500   9.912  1.3994 -0.8322  0.0431
   44CHL1  H15A 5681   1.494   4.570   9.894 -1.0004 -3.7564 -0.4515
   44CHL1  H15B 5682   1.636   4.537  10.000  0.6309 -0.4023  0.3741
   44CHL1   C16 5683   1.670   4.498   9.791 -0.2918  0.0826  0.3593
   44CHL1  H16A 5684   1.634   4.569   9.714  0.5891  1.2724  1.0277
   44CHL1  H16B 5685   1.776   4.516   9.817 -0.6074 -0.2184  1.9285
   44CHL1   C17 5686   1.669   4.355   9.719  0.4478 -0.8316  0.4609
   44CHL1   H17 5687   1.755   4.302   9.766  1.1516 -0.4248 -0.3704
   44CHL1   C13 5688   1.529   4.296   9.774 -0.3229  0.2254  0.6017
   44CHL1   C18 5689   1.420   4.356   9.692  0.0604  0.1544 -0.1298
   44CHL1  H18A 5690   1.425   4.307   9.592  0.5163 -3.0614  1.3896
   44CHL1  H18B 5691   1.319   4.327   9.728 -0.8765  0.8330 -2.1182
   44CHL1  H18C 5692   1.444   4.464   9.684  2.9300 -0.5021 -0.8623
   44CHL1   C12 5693   1.521   4.144   9.795 -0.0564 -0.0293 -0.7725
   44CHL1  H12A 5694   1.521   4.089   9.698 -0.1441  0.5621 -1.1149
   44CHL1  H12B 5695   1.601   4.110   9.864 -1.4482 -1.3084  0.2520
   44CHL1   C11 5696   1.399   4.100   9.876  0.0575  0.6926  0.1344
   44CHL1  H11A 5697   1.309   4.112   9.812 -0.5376  1.5507  1.1219
   44CHL1  H11B 5698   1.405   3.990   9.892  2.9862  0.1752 -3.7237
   44CHL1    C9 5699   1.376   4.174  10.003  0.3242 -0.5498  0.2555
   44CHL1    H9 5700   1.457   4.140  10.071 -0.2255  1.4533  1.9784
   44CHL1   C10 5701   1.253   4.134  10.086  0.5026 -0.1081 -0.3980
   44CHL1   C19 5702   1.123   4.160   9.992  0.3181  0.0440  0.4656
   44CHL1  H19A 5703   1.029   4.137  10.046 -0.0907 -2.3192 -1.1629
   44CHL1  H19B 5704   1.114   4.263   9.951 -1.4753 -1.3603 -2.9343
   44CHL1  H19C 5705   1.135   4.089   9.906  2.1863  2.3455 -1.2435
   44CHL1    C1 5706   1.263   3.978  10.130 -0.2726  0.2037 -0.1836
   44CHL1   H1A 5707   1.260   3.905  10.046  1.3325  0.1807 -0.2355
   44CHL1   H1B 5708   1.364   3.971  10.176 -0.4099  2.5521  0.5429
   44CHL1    C2 5709   1.154   3.942  10.233  1.0645 -0.0247  0.8611
   44CHL1   H2A 5710   1.168   3.832  10.243 -1.1809 -0.6166 -1.8399
   44CHL1   H2B 5711   1.056   3.952  10.183  0.3714 -0.8707  2.0212
   44CHL1   C20 5712   1.690   4.361   9.577  0.3944  0.4980 -0.2523
   44CHL1   H20 5713   1.625   4.434   9.524 -0.1020 -0.2461 -0.6961
   44CHL1   C21 5714   1.686   4.214   9.516 -0.1742  0.4325  0.4419
   44CHL1  H21A 5715   1.582   4.181   9.495 -0.4383  2.2187 -1.1377
   44CHL1  H21B 5716   1.733   4.139   9.583  1.7961 -0.1043 -1.4891
   44CHL1  H21C 5717   1.730   4.208   9.414 -0.5404 -2.6884  0.4133
   44CHL1   C22 5718   1.839   4.416   9.558  0.1639  0.0030  0.3246
   44CHL1  H22A 5719   1.856   4.505   9.622 -2.0952  0.3102  0.5300
   44CHL1  H22B 5720   1.914   4.343   9.595 -1.2648 -0.8767  1.5380
   44CHL1   C23 5721   1.882   4.447   9.414 -0.0348 -0.1663 -0.5187
   44CHL1  H23A 5722   1.979   4.500   9.420 -0.1841 -0.0182  0.6845
   44CHL1  H23B 5723   1.911   4.350   9.370  0.7214 -0.8360  1.4435
   44CHL1   C24 5724   1.778   4.538   9.338 -0.3754  0.5725  0.2746
   44CHL1  H24A 5725   1.681   4.483   9.335 -0.3876  0.6476 -0.6454
   44CHL1  H24B 5726   1.773   4.633   9.395  0.6463  0.8160 -0.0276
   44CHL1   C25 5727   1.811   4.580   9.198 -0.0373 -0.0209  0.1500
   44CHL1   H25 5728   1.843   4.487   9.147 -0.0005 -1.3914  2.6280
   44CHL1   C26 5729   1.688   4.629   9.117 -0.5128  0.0260 -0.5042
   44CHL1  H26A 5730   1.653   4.730   9.147  0.4711 -0.7676  3.4810
   44CHL1  H26B 5731   1.712   4.641   9.009  0.6242  1.9845 -0.0512
   44CHL1  H26C 5732   1.607   4.555   9.134 -0.0951 -0.4278 -0.4727
   44CHL1   C27 5733   1.929   4.675   9.196  0.0679  0.0386  0.3502
   44CHL1  H27A 5734   1.910   4.776   9.240  0.6846  0.5968 -0.6406
   44CHL1  H27B 5735   2.016   4.636   9.253  0.5336  1.0061  0.3134
   44CHL1  H27C 5736   1.964   4.694   9.092 -2.3615  0.7697 -0.3614
   45CHL1    C3 5737   5.359   3.202  10.167 -0.0800  0.3157  0.3292
   45CHL1    H3 5738   5.269   3.262  10.142 -0.0420 -0.2426 -1.1994
   45CHL1    O3 5739   5.392   3.196  10.302 -0.3982  0.4682 -0.1360
   45CHL1   H3' 5740   5.417   3.286  10.324 -1.4740  1.6013 -3.2897
   45CHL1    C4 5741   5.340   3.061  10.109 -0.1964 -0.6654  0.4756
   45CHL1   H4A 5742   5.439   3.013  10.127 -0.1636 -0.4132  0.9811
   45CHL1   H4B 5743   5.276   2.993  10.170  0.6754 -1.5093  0.4703
   45CHL1    C5 5744   5.294   3.061   9.965  0.4614  0.5925  1.0547
   45CHL1    C6 5745   5.179   3.016   9.912  0.8516  0.3639  1.4761
   45CHL1    H6 5746   5.108   2.959   9.974  1.0997 -0.7230  0.7702
   45CHL1    C7 5747   5.137   3.028   9.769  0.3782 -0.8972  1.1699
   45CHL1   H7A 5748   5.108   2.929   9.730 -0.1978 -0.4554  0.4731
   45CHL1   H7B 5749   5.047   3.094   9.767  0.3769 -0.8515  2.3433
   45CHL1    C8 5750   5.240   3.085   9.670 -0.8589 -0.7460 -0.4329
   45CHL1    H8 5751   5.174   3.138   9.598  0.6088  2.7415  0.6779
   45CHL1   C14 5752   5.317   2.982   9.574  0.3954  0.4806 -0.2626
   45CHL1   H14 5753   5.359   2.916   9.653  1.3082  2.4703  0.9495
   45CHL1   C15 5754   5.203   2.908   9.495  0.3087  0.4983 -0.3506
   45CHL1  H15A 5755   5.238   2.803   9.489  0.1611  0.4480 -0.3380
   45CHL1  H15B 5756   5.096   2.908   9.523  0.8163 -1.1201  1.8151
   45CHL1   C16 5757   5.207   2.966   9.356  0.2354 -0.3716 -0.0243
   45CHL1  H16A 5758   5.220   2.880   9.286 -1.2378 -3.4766  3.3453
   45CHL1  H16B 5759   5.111   3.018   9.334  0.5145  1.6000  3.2017
   45CHL1   C17 5760   5.324   3.068   9.349 -0.6944  0.1557 -0.1397
   45CHL1   H17 5761   5.273   3.161   9.381 -1.6320  0.6016 -2.7582
   45CHL1   C13 5762   5.413   3.040   9.465 -0.0130 -0.1460  0.3053
   45CHL1   C18 5763   5.509   2.923   9.434  1.1306 -0.0593 -1.3565
   45CHL1  H18A 5764   5.451   2.831   9.412  1.4237 -0.0282 -2.3050
   45CHL1  H18B 5765   5.559   2.944   9.337 -1.2040  0.6808 -2.4313
   45CHL1  H18C 5766   5.577   2.903   9.519 -1.7147  0.6610  1.1994
   45CHL1   C12 5767   5.492   3.167   9.526 -0.4796  0.4693 -0.3313
   45CHL1  H12A 5768   5.573   3.111   9.578 -2.3011 -3.3526 -1.4238
   45CHL1  H12B 5769   5.535   3.225   9.441  0.6525  1.8738  1.1621
   45CHL1   C11 5770   5.414   3.262   9.617 -0.3011 -0.2306 -0.4682
   45CHL1  H11A 5771   5.474   3.344   9.661 -1.3958  0.3656 -0.0675
   45CHL1  H11B 5772   5.329   3.306   9.560 -0.7976 -1.1982 -0.4921
   45CHL1    C9 5773   5.327   3.192   9.730  0.2898 -0.2476 -0.2188
   45CHL1    H9 5774   5.257   3.274   9.758 -0.0278  0.4603 -2.9106
   45CHL1   C10 5775   5.390   3.141   9.868 -0.4451  0.3193  0.6555
   45CHL1   C19 5776   5.523   3.060   9.843 -0.0139  0.6793 -0.2843
   45CHL1  H19A 5777   5.497   2.966   9.790 -1.4671  1.5806 -1.2120
   45CHL1  H19B 5778   5.592   3.130   9.790  0.8194  0.6286  0.7177
   45CHL1  H19C 5779   5.567   3.046   9.944 -1.2826  2.0377  0.4621
   45CHL1    C1 5780   5.434   3.273   9.943  0.2000  0.1298 -0.2719
   45CHL1   H1A 5781   5.522   3.324   9.898  1.2883  0.3736  2.0781
   45CHL1   H1B 5782   5.347   3.341   9.930 -0.8865 -1.5019 -1.6972
   45CHL1    C2 5783   5.478   3.265  10.092  0.5999  0.1524 -0.7352
   45CHL1   H2A 5784   5.503   3.365  10.134 -0.5184 -0.5518  1.6856
   45CHL1   H2B 5785   5.571   3.204  10.097 -0.0051 -0.6090  2.0408
   45CHL1   C20 5786   5.385   3.115   9.215 -0.3712  0.9242  0.3530
   45CHL1   H20 5787   5.495   3.123   9.232 -0.7086  1.0541  2.5803
   45CHL1   C21 5788   5.339   3.254   9.172 -0.4111  0.3340 -0.6899
   45CHL1  H21A 5789   5.368   3.322   9.255 -2.3165  0.7845 -0.3590
   45CHL1  H21B 5790   5.228   3.253   9.160 -0.3951 -1.5392 -0.8717
   45CHL1  H21C 5791   5.388   3.282   9.077  1.3206  1.1118  0.4026
   45CHL1   C22 5792   5.368   3.019   9.095  0.2189  0.3055 -0.4874
   45CHL1  H22A 5793   5.401   2.923   9.141  1.7369  0.7705 -0.5779
   45CHL1  H22B 5794   5.261   3.016   9.065 -0.1835  1.3487  0.7982
   45CHL1   C23 5795   5.439   3.057   8.969 -0.3401 -0.2828  0.2276
   45CHL1  H23A 5796   5.384   3.135   8.914  1.3331  0.8080  0.0791
   45CHL1  H23B 5797   5.534   3.107   8.997 -0.4910 -1.5250  3.2673
   45CHL1   C24 5798   5.471   2.946   8.869 -0.0567 -0.0247 -0.0334
   45CHL1  H24A 5799   5.539   2.874   8.920 -1.2916 -1.6401 -0.6190
   45CHL1  H24B 5800   5.375   2.891   8.857 -0.6808  1.2592 -0.9920
   45CHL1   C25 5801   5.525   2.989   8.736  0.5944 -0.2998 -0.4800
   45CHL1   H25 5802   5.469   3.074   8.692  2.3611  0.2623 -1.7414
   45CHL1   C26 5803   5.677   3.042   8.740  0.4456 -0.5623  0.4593
   45CHL1  H26A 5804   5.727   2.962   8.799  0.4008 -0.1943  0.9982
   45CHL1  H26B 5805   5.720   3.075   8.642 -0.7628 -0.3237  0.0029
   45CHL1  H26C 5806   5.686   3.138   8.796  0.0752  1.0496 -2.1220
   45CHL1   C27 5807   5.526   2.874   8.630 -0.4756 -0.1364 -0.5875
   45CHL1  H27A 5808   5.591   2.796   8.675  0.3433  0.9166  0.0747
   45CHL1  H27B 5809   5.419   2.850   8.611 -1.1545  2.7336 -0.6212
   45CHL1  H27C 5810   5.568   2.902   8.531 -4.6143 -0.3418 -2.5433
   46CHL1    C3 5811   1.174   0.361  10.058  0.2487  0.5161 -0.1623
   46CHL1    H3 5812   1.218   0.463  10.057 -0.2719  0.7508  0.6100
   46CHL1    O3 5813   1.162   0.327  10.193 -0.0374  0.2553  0.4512
   46CHL1   H3' 5814   1.165   0.232  10.201  0.9520  0.2420  0.0853
   46CHL1    C4 5815   1.037   0.352   9.981 -0.3335  0.1503 -0.6425
   46CHL1   H4A 5816   0.991   0.254  10.005 -0.8433  1.4122  4.0126
   46CHL1   H4B 5817   0.972   0.414  10.045  1.9597 -0.6919  2.6203
   46CHL1    C5 5818   1.043   0.403   9.836 -0.0402 -0.3919 -0.3361
   46CHL1    C6 5819   0.965   0.500   9.785 -0.6115 -0.5674  0.5967
   46CHL1    H6 5820   0.889   0.553   9.844 -0.1198 -0.9136  1.5348
   46CHL1    C7 5821   0.972   0.532   9.640 -0.5212  0.1330  0.0791
   46CHL1   H7A 5822   0.867   0.532   9.602 -0.4340  0.5290 -0.1607
   46CHL1   H7B 5823   1.015   0.634   9.632  2.0287 -0.8776  0.3475
   46CHL1    C8 5824   1.044   0.426   9.555 -0.4488  0.3152 -0.6432
   46CHL1    H8 5825   0.974   0.340   9.558 -0.4958  0.3360 -1.0649
   46CHL1   C14 5826   1.058   0.476   9.414  0.1631 -0.5357  0.9026
   46CHL1   H14 5827   1.119   0.569   9.412 -0.7905  0.1060  1.4937
   46CHL1   C15 5828   0.933   0.517   9.330  0.4235  0.1728 -0.1325
   46CHL1  H15A 5829   0.856   0.442   9.360  2.2265 -1.1942  1.1739
   46CHL1  H15B 5830   0.899   0.621   9.352  0.6523  0.1356  0.3950
   46CHL1   C16 5831   0.970   0.496   9.182 -0.5935  0.1618  0.6446
   46CHL1  H16A 5832   0.895   0.423   9.144  0.8445 -0.1651 -1.7073
   46CHL1  H16B 5833   0.969   0.593   9.128  0.3315  0.2450  0.7676
   46CHL1   C17 5834   1.116   0.433   9.187  0.0539 -0.5237  0.2470
   46CHL1   H17 5835   1.187   0.519   9.183 -0.4955 -0.1198 -1.4788
   46CHL1   C13 5836   1.125   0.374   9.326  0.4335  0.1613 -0.0372
   46CHL1   C18 5837   1.048   0.238   9.309  0.2033 -0.1464  0.0954
   46CHL1  H18A 5838   0.941   0.250   9.283  0.6511 -0.6019 -2.0666
   46CHL1  H18B 5839   1.100   0.161   9.248 -0.8373  0.0775 -1.0904
   46CHL1  H18C 5840   1.036   0.194   9.410  0.4649  0.6124  0.4636
   46CHL1   C12 5841   1.268   0.355   9.381 -0.1619 -0.3076 -0.1792
   46CHL1  H12A 5842   1.316   0.270   9.327  0.1130 -1.3504  1.6833
   46CHL1  H12B 5843   1.338   0.441   9.378  0.5726 -0.9533 -2.5928
   46CHL1   C11 5844   1.276   0.302   9.528  0.1825 -0.1719  0.4973
   46CHL1  H11A 5845   1.251   0.194   9.520 -0.4707  0.0001  0.1931
   46CHL1  H11B 5846   1.384   0.306   9.556  0.1763 -1.2306  0.6989
   46CHL1    C9 5847   1.180   0.387   9.618  0.5678 -0.0343 -0.0597
   46CHL1    H9 5848   1.240   0.478   9.641 -1.2558  1.3064 -0.5315
   46CHL1   C10 5849   1.150   0.323   9.758 -0.7677  0.2071  0.2296
   46CHL1   C19 5850   1.101   0.176   9.742 -0.1482 -0.8234  0.0854
   46CHL1  H19A 5851   1.017   0.164   9.671  0.1464 -2.0279 -0.0727
   46CHL1  H19B 5852   1.183   0.115   9.700 -0.5555 -0.4423 -1.2752
   46CHL1  H19C 5853   1.066   0.127   9.836 -0.9493 -1.1389 -0.3721
   46CHL1    C1 5854   1.281   0.325   9.839 -0.5333  0.4406 -1.2041
   46CHL1   H1A 5855   1.359   0.263   9.791  0.1283  0.8784 -0.7104
   46CHL1   H1B 5856   1.316   0.431   9.832 -2.6302  1.1013 -2.0343
   46CHL1    C2 5857   1.278   0.285   9.991 -0.5914  0.3800 -0.3602
   46CHL1   H2A 5858   1.383   0.295  10.026 -0.3567 -1.1577 -0.5940
   46CHL1   H2B 5859   1.246   0.179   9.990 -0.3711  0.3130 -0.6047
   46CHL1   C20 5860   1.141   0.353   9.057 -0.2624  0.0260  0.6569
   46CHL1   H20 5861   1.066   0.271   9.053  2.1342 -2.1413 -1.5446
   46CHL1   C21 5862   1.281   0.284   9.059  0.0183 -0.4393 -0.5483
   46CHL1  H21A 5863   1.301   0.209   8.980  1.8557  0.0145 -0.5238
   46CHL1  H21B 5864   1.295   0.219   9.149  0.5628  2.5479  1.6145
   46CHL1  H21C 5865   1.365   0.356   9.068 -0.1852 -0.3498  0.8796
   46CHL1   C22 5866   1.129   0.453   8.936  0.0078  0.3169  0.8541
   46CHL1  H22A 5867   1.030   0.502   8.926  0.7516  1.5257 -0.7912
   46CHL1  H22B 5868   1.185   0.544   8.967 -0.7454  1.0494  0.1024
   46CHL1   C23 5869   1.168   0.396   8.800 -0.0436 -0.4647 -0.1699
   46CHL1  H23A 5870   1.268   0.350   8.811  1.1161  1.8715 -0.4449
   46CHL1  H23B 5871   1.087   0.326   8.772 -0.1098 -0.5420  0.2080
   46CHL1   C24 5872   1.173   0.501   8.692 -1.2689 -0.0413 -0.1078
   46CHL1  H24A 5873   1.078   0.558   8.696  1.0337  3.9044  0.5351
   46CHL1  H24B 5874   1.255   0.570   8.721 -0.6625 -0.9482  0.3528
   46CHL1   C25 5875   1.199   0.451   8.549  0.2952 -0.4938 -0.4045
   46CHL1   H25 5876   1.120   0.375   8.528 -0.2165 -0.1264  0.1771
   46CHL1   C26 5877   1.194   0.567   8.454 -0.4136 -0.0125  1.4202
   46CHL1  H26A 5878   1.249   0.654   8.494 -0.3577  0.4265  0.3947
   46CHL1  H26B 5879   1.227   0.536   8.352 -1.5727 -0.2440  1.1008
   46CHL1  H26C 5880   1.089   0.603   8.440 -0.6138 -2.0383 -3.3840
   46CHL1   C27 5881   1.341   0.392   8.536  0.0599 -0.0994 -0.4706
   46CHL1  H27A 5882   1.418   0.460   8.577  0.5515 -1.2896  0.6026
   46CHL1  H27B 5883   1.341   0.287   8.573 -0.1181 -1.8371 -5.0706
   46CHL1  H27C 5884   1.354   0.389   8.426  0.0018  1.0928 -0.5128
   47CHL1    C3 5885   1.364   3.550  10.062 -0.4428 -0.3435  0.2032
   47CHL1    H3 5886   1.262   3.590  10.044 -0.0433  0.7554  0.3341
   47CHL1    O3 5887   1.358   3.489  10.193  0.2678 -0.0625  0.0237
   47CHL1   H3' 5888   1.389   3.401  10.170 -1.3199 -0.7872  0.5619
   47CHL1    C4 5889   1.411   3.444   9.965  0.1692  0.0530 -0.3013
   47CHL1   H4A 5890   1.514   3.408   9.986 -0.6811 -1.3964  1.5015
   47CHL1   H4B 5891   1.348   3.354   9.979  1.7723 -0.9238  0.8551
   47CHL1    C5 5892   1.416   3.495   9.824  1.4914  0.1449 -0.2436
   47CHL1    C6 5893   1.344   3.440   9.724  0.3678  0.1499  0.1781
   47CHL1    H6 5894   1.272   3.360   9.748 -0.4074  0.1190 -2.1052
   47CHL1    C7 5895   1.346   3.486   9.581 -0.0988 -0.1721  0.4510
   47CHL1   H7A 5896   1.359   3.399   9.512 -0.5191 -0.0491  0.2160
   47CHL1   H7B 5897   1.250   3.534   9.554  0.1793 -1.2300 -2.5714
   47CHL1    C8 5898   1.468   3.586   9.555 -0.0249  0.3758 -0.1761
   47CHL1    H8 5899   1.560   3.525   9.562 -0.8304 -1.2003 -2.8174
   47CHL1   C14 5900   1.458   3.655   9.415 -0.0779 -0.0947 -0.6884
   47CHL1   H14 5901   1.381   3.733   9.435 -3.3175 -3.2132 -0.3740
   47CHL1   C15 5902   1.424   3.576   9.290  0.2060 -0.6203 -0.6594
   47CHL1  H15A 5903   1.462   3.471   9.294  0.6108 -0.4578 -0.2258
   47CHL1  H15B 5904   1.314   3.559   9.292  0.2929 -1.3944 -2.1857
   47CHL1   C16 5905   1.493   3.648   9.172  0.3101 -0.1106 -0.2063
   47CHL1  H16A 5906   1.574   3.586   9.128 -1.6514 -2.2853 -0.8900
   47CHL1  H16B 5907   1.414   3.671   9.097 -1.0368 -2.9500  0.2612
   47CHL1   C17 5908   1.548   3.783   9.241 -0.2622  0.0343  0.1834
   47CHL1   H17 5909   1.459   3.849   9.245  1.8118  2.8548  1.4789
   47CHL1   C13 5910   1.584   3.743   9.390  0.3043 -0.0652 -0.2231
   47CHL1   C18 5911   1.713   3.653   9.403 -0.2705  0.0385  0.1975
   47CHL1  H18A 5912   1.805   3.711   9.380 -0.3626  0.1035 -0.0122
   47CHL1  H18B 5913   1.737   3.617   9.506  1.2183 -0.5805 -0.3459
   47CHL1  H18C 5914   1.707   3.569   9.330  0.5959 -1.0800  1.3880
   47CHL1   C12 5915   1.598   3.851   9.495 -0.3509  0.8639 -0.8424
   47CHL1  H12A 5916   1.682   3.923   9.483  0.2195  0.4391  0.5281
   47CHL1  H12B 5917   1.508   3.914   9.483  0.3679  1.7140 -1.8205
   47CHL1   C11 5918   1.597   3.797   9.642  0.4215 -0.6442 -0.0100
   47CHL1  H11A 5919   1.698   3.751   9.652  0.8121  0.4800  1.4133
   47CHL1  H11B 5920   1.585   3.877   9.719  1.0088 -1.3298  0.8075
   47CHL1    C9 5921   1.485   3.681   9.670  1.4811 -0.3614 -0.9613
   47CHL1    H9 5922   1.387   3.733   9.665  1.9516  0.7656  1.2196
   47CHL1   C10 5923   1.511   3.613   9.801 -0.6336 -0.1005 -0.2872
   47CHL1   C19 5924   1.661   3.559   9.826 -0.2776  1.0251  0.3565
   47CHL1  H19A 5925   1.693   3.494   9.742 -1.2607  0.7670  0.1755
   47CHL1  H19B 5926   1.721   3.651   9.841  0.3531  0.2740  2.5653
   47CHL1  H19C 5927   1.680   3.496   9.915  1.7873  0.1668 -0.6660
   47CHL1    C1 5928   1.469   3.716   9.917  0.1336 -0.2238  0.8282
   47CHL1   H1A 5929   1.534   3.803   9.893  0.3184 -0.8633 -1.0455
   47CHL1   H1B 5930   1.369   3.757   9.890 -0.7050 -3.0224 -0.5278
   47CHL1    C2 5931   1.462   3.666  10.064  0.3902 -0.3851 -0.0825
   47CHL1   H2A 5932   1.430   3.746  10.133 -1.4063  1.1519 -2.5804
   47CHL1   H2B 5933   1.558   3.628  10.105 -1.4725 -0.2341  4.6412
   47CHL1   C20 5934   1.659   3.856   9.157  1.3564 -0.8133 -0.5497
   47CHL1   H20 5935   1.750   3.794   9.169  0.2132 -2.4751 -0.1808
   47CHL1   C21 5936   1.694   3.994   9.215  0.5285 -1.3098 -0.6199
   47CHL1  H21A 5937   1.743   3.987   9.315 -1.6687 -1.0362  0.5010
   47CHL1  H21B 5938   1.607   4.061   9.228  0.4157 -1.5348 -0.1973
   47CHL1  H21C 5939   1.775   4.049   9.162 -1.8264  0.9616 -1.9565
   47CHL1   C22 5940   1.619   3.866   9.007 -0.2735  0.1306  0.6063
   47CHL1  H22A 5941   1.640   3.764   8.967 -1.4376 -0.1463  0.6748
   47CHL1  H22B 5942   1.509   3.882   8.997 -0.0421  0.9108 -0.7855
   47CHL1   C23 5943   1.685   3.969   8.911  0.4008  0.3656  0.4877
   47CHL1  H23A 5944   1.789   3.979   8.948 -0.7077  1.3915  3.5325
   47CHL1  H23B 5945   1.686   3.931   8.807  0.2087  0.1258  0.5724
   47CHL1   C24 5946   1.601   4.095   8.905  0.6914  0.1280 -1.2661
   47CHL1  H24A 5947   1.497   4.057   8.891  1.1455 -1.2653 -0.8742
   47CHL1  H24B 5948   1.591   4.146   9.004 -2.2103 -0.0747 -1.3928
   47CHL1   C25 5949   1.634   4.195   8.794 -0.3183  0.2942  0.6609
   47CHL1   H25 5950   1.630   4.146   8.694 -1.1644 -0.3320  1.0011
   47CHL1   C26 5951   1.535   4.308   8.794 -0.4542 -0.4538  0.0117
   47CHL1  H26A 5952   1.516   4.360   8.891 -0.2655  1.7013 -1.0730
   47CHL1  H26B 5953   1.438   4.261   8.769 -0.1036 -2.1441  1.7353
   47CHL1  H26C 5954   1.552   4.385   8.716 -0.1039 -1.5100 -0.9495
   47CHL1   C27 5955   1.779   4.247   8.801  0.4086 -0.1933 -0.2320
   47CHL1  H27A 5956   1.800   4.279   8.905 -0.7862  1.6762 -0.5370
   47CHL1  H27B 5957   1.852   4.167   8.776 -1.1776 -1.8604  0.3585
   47CHL1  H27C 5958   1.794   4.335   8.736  1.6223  0.6362  1.1332
   48CHL1    C3 5959   2.581   4.240  10.234  0.0130  0.3277 -0.7872
   48CHL1    H3 5960   2.662   4.311  10.261  1.0567 -0.9491 -0.5235
   48CHL1    O3 5961   2.504   4.209  10.352 -0.1655 -0.0472  0.1935
   48CHL1   H3' 5962   2.555   4.147  10.404 -3.0041 -1.0840  1.8203
   48CHL1    C4 5963   2.482   4.303  10.132 -0.1430 -0.2549  0.7016
   48CHL1   H4A 5964   2.390   4.241  10.122 -0.9438  1.1205 -0.5649
   48CHL1   H4B 5965   2.449   4.397  10.181  1.5145  0.4087  0.5629
   48CHL1    C5 5966   2.547   4.311   9.999  0.0143  0.5033  0.2962
   48CHL1    C6 5967   2.539   4.426   9.939 -0.1369  0.3087  0.0089
   48CHL1    H6 5968   2.476   4.506   9.981 -0.1703 -0.0850  0.7098
   48CHL1    C7 5969   2.607   4.461   9.811  0.2640  0.7022 -0.0195
   48CHL1   H7A 5970   2.528   4.511   9.751 -0.2630  0.0897  0.1579
   48CHL1   H7B 5971   2.698   4.523   9.829  2.1591 -1.7235 -1.0047
   48CHL1    C8 5972   2.639   4.338   9.734 -0.3651 -0.7467  0.4873
   48CHL1    H8 5973   2.551   4.282   9.695 -1.7735  0.8488  1.2757
   48CHL1   C14 5974   2.735   4.371   9.621  0.0437 -0.6548  0.3178
   48CHL1   H14 5975   2.831   4.408   9.664 -0.7121 -0.5812  1.9473
   48CHL1   C15 5976   2.696   4.486   9.534 -0.6408  0.5379 -0.2284
   48CHL1  H15A 5977   2.586   4.482   9.522 -0.5951 -1.3050 -0.2232
   48CHL1  H15B 5978   2.727   4.587   9.570 -0.4053 -0.2507  1.8334
   48CHL1   C16 5979   2.762   4.457   9.393  0.6309 -0.8596  0.0109
   48CHL1  H16A 5980   2.685   4.439   9.314  0.1637 -2.6872  0.8586
   48CHL1  H16B 5981   2.838   4.532   9.365 -0.5170 -0.1388 -1.2388
   48CHL1   C17 5982   2.833   4.320   9.409  0.1449  0.0265  0.4161
   48CHL1   H17 5983   2.935   4.338   9.450  0.4217 -0.5305 -0.0290
   48CHL1   C13 5984   2.765   4.258   9.527  0.2610 -0.4547 -0.8183
   48CHL1   C18 5985   2.635   4.191   9.468  0.7656 -0.1322 -0.5986
   48CHL1  H18A 5986   2.579   4.271   9.415  1.7803  0.6649 -0.4822
   48CHL1  H18B 5987   2.662   4.104   9.405 -2.7896  0.1190 -2.6253
   48CHL1  H18C 5988   2.568   4.150   9.546  0.9766  1.1899  0.3026
   48CHL1   C12 5989   2.842   4.160   9.622  0.0903 -0.4028  0.5058
   48CHL1  H12A 5990   2.857   4.070   9.559  1.7590 -0.1333  0.4801
   48CHL1  H12B 5991   2.942   4.202   9.648 -0.0090  0.4539 -0.4676
   48CHL1   C11 5992   2.766   4.111   9.752  0.5076 -0.4608 -0.5010
   48CHL1  H11A 5993   2.685   4.044   9.716 -1.6076  2.4378 -1.3585
   48CHL1  H11B 5994   2.842   4.050   9.805  1.2085  0.9528  0.1600
   48CHL1    C9 5995   2.715   4.236   9.829  0.6362  0.3698  0.1378
   48CHL1    H9 5996   2.802   4.294   9.867  1.5729 -0.5407 -0.5693
   48CHL1   C10 5997   2.630   4.187   9.950 -0.0394  0.5335 -0.2892
   48CHL1   C19 5998   2.515   4.091   9.897  0.4707 -0.1490 -0.2783
   48CHL1  H19A 5999   2.431   4.096   9.969  1.9275  0.0513  1.4261
   48CHL1  H19B 6000   2.473   4.133   9.802  1.5132 -0.1242 -0.7343
   48CHL1  H19C 6001   2.557   3.989   9.894  1.3644  0.1812  0.6263
   48CHL1    C1 6002   2.714   4.124  10.061 -0.5286 -0.0770  0.6224
   48CHL1   H1A 6003   2.739   4.024  10.020 -0.1199 -0.1888  1.1358
   48CHL1   H1B 6004   2.807   4.184  10.073 -1.5972  1.1429  3.1463
   48CHL1    C2 6005   2.644   4.113  10.191  0.5216  0.7955 -0.6363
   48CHL1   H2A 6006   2.717   4.073  10.266 -0.7741 -1.3175 -0.4710
   48CHL1   H2B 6007   2.570   4.031  10.179  1.6351 -0.4965  0.8577
   48CHL1   C20 6008   2.858   4.244   9.270 -0.5470  0.3322 -0.1838
   48CHL1   H20 6009   2.757   4.226   9.226 -1.1734  1.0786  0.9172
   48CHL1   C21 6010   2.921   4.105   9.298  0.2294 -0.0937 -0.2487
   48CHL1  H21A 6011   2.947   4.057   9.201 -0.3388  0.5854 -0.7363
   48CHL1  H21B 6012   2.856   4.037   9.358 -1.5302  0.0221 -1.9594
   48CHL1  H21C 6013   3.022   4.115   9.344 -0.0449  2.2363 -0.1023
   48CHL1   C22 6014   2.939   4.325   9.169 -0.1154 -0.7475  0.3480
   48CHL1  H22A 6015   2.922   4.434   9.182 -0.6588 -0.7500 -0.3717
   48CHL1  H22B 6016   3.042   4.298   9.202  0.1145 -1.7198 -1.1136
   48CHL1   C23 6017   2.941   4.270   9.019 -0.2999  0.1800 -0.2396
   48CHL1  H23A 6018   3.010   4.183   9.019  0.1156  0.4821  1.6651
   48CHL1  H23B 6019   2.836   4.236   9.003 -0.2511 -1.0680  1.8923
   48CHL1   C24 6020   2.988   4.386   8.924  0.3147  0.2298  0.0377
   48CHL1  H24A 6021   2.913   4.468   8.913  1.5449  1.1181 -1.9761
   48CHL1  H24B 6022   3.081   4.422   8.972 -0.1546 -0.0319  1.1751
   48CHL1   C25 6023   3.017   4.348   8.778 -0.5439  0.3177  0.2052
   48CHL1   H25 6024   3.059   4.439   8.731  2.5575 -1.3880 -0.4779
   48CHL1   C26 6025   3.099   4.222   8.769 -0.7018 -1.4823  0.2298
   48CHL1  H26A 6026   3.057   4.126   8.806 -0.0557 -1.6947  0.4140
   48CHL1  H26B 6027   3.122   4.209   8.661 -1.2373  2.3908 -0.4047
   48CHL1  H26C 6028   3.200   4.233   8.812 -0.8368  1.5065 -0.1716
   48CHL1   C27 6029   2.886   4.324   8.694 -0.1266 -0.1173  0.2165
   48CHL1  H27A 6030   2.896   4.316   8.584  0.7117 -3.2043  0.4620
   48CHL1  H27B 6031   2.845   4.226   8.726 -1.7140  0.7856  1.0133
   48CHL1  H27C 6032   2.815   4.408   8.709  0.6109  0.2377  1.8091
   49CHL1    C3 6033   0.367   6.583   9.990 -0.0613  0.6621 -0.6035
   49CHL1    H3 6034   0.296   6.528   9.924 -2.7197  0.9548  1.9042
   49CHL1    O3 6035   0.303   6.580  10.118  0.4607  0.3767 -0.6063
   49CHL1   H3' 6036   0.378   6.604  10.172  1.3414 -1.5773 -0.9238
   49CHL1    C4 6037   0.501   6.520   9.998  0.0838 -0.1566  1.1119
   49CHL1   H4A 6038   0.577   6.558  10.071 -1.0285 -2.2970  3.4739
   49CHL1   H4B 6039   0.479   6.415  10.029  0.7000 -0.6438 -0.0796
   49CHL1    C5 6040   0.560   6.530   9.863 -0.0597  0.3175  0.2320
   49CHL1    C6 6041   0.596   6.422   9.793  1.0247 -0.4573  0.8178
   49CHL1    H6 6042   0.593   6.321   9.838  1.4369 -0.5644  0.6053
   49CHL1    C7 6043   0.662   6.415   9.663  0.3926 -0.2726  0.1618
   49CHL1   H7A 6044   0.740   6.336   9.667  1.8130  1.1557  2.2898
   49CHL1   H7B 6045   0.585   6.378   9.593  1.0153 -0.3539 -0.4872
   49CHL1    C8 6046   0.718   6.554   9.615  0.1510  0.1262  0.0411
   49CHL1    H8 6047   0.820   6.560   9.657  1.1171 -0.5058 -2.1622
   49CHL1   C14 6048   0.733   6.562   9.469 -0.6544  0.2466  0.1408
   49CHL1   H14 6049   0.630   6.569   9.427 -0.2453  1.5838 -0.6799
   49CHL1   C15 6050   0.795   6.443   9.405  0.4559  0.1035  0.5649
   49CHL1  H15A 6051   0.871   6.403   9.474  0.1352  0.5084  1.1516
   49CHL1  H15B 6052   0.716   6.367   9.385  0.5739 -0.0726  0.7775
   49CHL1   C16 6053   0.865   6.495   9.269 -1.2780 -0.4391  0.8532
   49CHL1  H16A 6054   0.975   6.480   9.262 -1.3553  0.1207 -2.4135
   49CHL1  H16B 6055   0.813   6.438   9.189 -3.3470  0.8429  1.2532
   49CHL1   C17 6056   0.822   6.644   9.273 -0.3658  0.1416 -0.0154
   49CHL1   H17 6057   0.718   6.644   9.234 -1.1484 -1.0315  2.0540
   49CHL1   C13 6058   0.807   6.683   9.420 -0.5087 -0.3927 -0.1552
   49CHL1   C18 6059   0.954   6.680   9.478 -0.5173 -0.4950  0.7380
   49CHL1  H18A 6060   1.012   6.761   9.429 -0.5332 -1.2891 -0.6307
   49CHL1  H18B 6061   0.957   6.693   9.588 -2.1683 -0.1188  0.7617
   49CHL1  H18C 6062   1.012   6.589   9.453  0.6129 -0.0700  1.7935
   49CHL1   C12 6063   0.716   6.808   9.456 -0.2315  0.4532 -0.1355
   49CHL1  H12A 6064   0.779   6.899   9.448  0.7817 -0.2618 -0.4611
   49CHL1  H12B 6065   0.630   6.813   9.386 -0.3694  0.2072  0.0182
   49CHL1   C11 6066   0.683   6.803   9.609  0.0561  0.4745 -0.5745
   49CHL1  H11A 6067   0.775   6.837   9.660 -0.4213  0.5496  0.2389
   49CHL1  H11B 6068   0.603   6.879   9.624 -0.2821 -0.3640  2.0615
   49CHL1    C9 6069   0.626   6.669   9.657  0.1032 -0.5091  0.1609
   49CHL1    H9 6070   0.533   6.655   9.598  0.8920  0.7685 -1.4060
   49CHL1   C10 6071   0.577   6.675   9.800 -0.2031 -0.4992  0.2571
   49CHL1   C19 6072   0.682   6.748   9.895  0.2062  0.2496  0.0905
   49CHL1  H19A 6073   0.776   6.689   9.900 -0.8436 -1.3697  1.3002
   49CHL1  H19B 6074   0.694   6.853   9.863 -0.1685 -0.5150 -2.7114
   49CHL1  H19C 6075   0.639   6.765   9.996 -0.8087  1.5724 -0.5550
   49CHL1    C1 6076   0.439   6.741   9.807  0.1716  0.3173  0.1780
   49CHL1   H1A 6077   0.430   6.849   9.779 -1.7580  0.2490  0.4361
   49CHL1   H1B 6078   0.372   6.696   9.730  2.2111 -1.4743 -0.5859
   49CHL1    C2 6079   0.374   6.724   9.944 -0.1830  0.4125  0.1192
   49CHL1   H2A 6080   0.272   6.767   9.936 -0.8091 -1.0360  0.0172
   49CHL1   H2B 6081   0.421   6.784  10.025 -2.6924  2.5839  0.0410
   49CHL1   C20 6082   0.903   6.735   9.173 -0.5444  0.1839 -0.5348
   49CHL1   H20 6083   0.997   6.768   9.222 -1.2506 -0.5057  1.3274
   49CHL1   C21 6084   0.807   6.853   9.151 -0.2965 -0.1633  0.1979
   49CHL1  H21A 6085   0.850   6.935   9.090  1.4892 -2.7074 -2.0689
   49CHL1  H21B 6086   0.764   6.894   9.245  1.9281 -1.7256  1.9650
   49CHL1  H21C 6087   0.714   6.829   9.094  0.5029 -2.3797 -0.2180
   49CHL1   C22 6088   0.950   6.667   9.041  0.3495 -0.1336  0.5648
   49CHL1  H22A 6089   1.001   6.577   9.081  1.2719 -0.1943 -0.7087
   49CHL1  H22B 6090   0.872   6.633   8.970 -0.7666  0.1356  1.6502
   49CHL1   C23 6091   1.063   6.744   8.970  0.3486  0.0345 -0.5993
   49CHL1  H23A 6092   1.032   6.847   8.941  0.3050  0.0444 -0.5168
   49CHL1  H23B 6093   1.151   6.759   9.035 -1.7718 -1.3251  2.7348
   49CHL1   C24 6094   1.123   6.664   8.849 -0.1466  0.0091 -0.0222
   49CHL1  H24A 6095   1.216   6.609   8.873  0.7740  0.4234 -2.4979
   49CHL1  H24B 6096   1.047   6.589   8.817 -0.7218  1.3347 -1.9027
   49CHL1   C25 6097   1.159   6.758   8.730  0.1112 -0.1758  0.9372
   49CHL1   H25 6098   1.065   6.801   8.690 -1.1519 -1.3241  2.5874
   49CHL1   C26 6099   1.265   6.864   8.758 -0.8510  0.0267  0.2092
   49CHL1  H26A 6100   1.312   6.898   8.663 -3.0930  2.7665  0.0080
   49CHL1  H26B 6101   1.224   6.958   8.801  1.9043  1.2594  0.1926
   49CHL1  H26C 6102   1.337   6.819   8.830 -2.4173 -1.7624  0.7139
   49CHL1   C27 6103   1.218   6.674   8.607 -0.3435  0.1927 -0.0125
   49CHL1  H27A 6104   1.153   6.587   8.581  0.1222 -0.2306  0.2242
   49CHL1  H27B 6105   1.228   6.741   8.519  1.0031 -0.9428 -0.7433
   49CHL1  H27C 6106   1.311   6.619   8.633 -1.4601 -1.4486  0.6083
   50CHL1    C3 6107   4.177   2.182  10.172 -0.0962 -0.2736 -0.1857
   50CHL1    H3 6108   4.237   2.262  10.124 -0.0238 -0.4413 -0.3730
   50CHL1    O3 6109   4.150   2.219  10.302  0.4985 -0.3407 -0.0656
   50CHL1   H3' 6110   4.232   2.206  10.351  0.9953 -1.7612 -1.2288
   50CHL1    C4 6111   4.053   2.153  10.092 -0.5836  0.4719  0.4354
   50CHL1   H4A 6112   3.999   2.072  10.147  0.3828  1.4177  2.8447
   50CHL1   H4B 6113   3.987   2.242  10.101 -3.2074 -1.2726 -0.8017
   50CHL1    C5 6114   4.078   2.108   9.948  0.3469  0.3029 -0.3568
   50CHL1    C6 6115   4.030   2.183   9.853 -0.6441  0.1628 -0.1394
   50CHL1    H6 6116   3.965   2.269   9.873  0.5358  1.1320 -0.4092
   50CHL1    C7 6117   4.043   2.149   9.707  0.2972 -0.0028 -0.1042
   50CHL1   H7A 6118   3.939   2.132   9.672  0.5454  0.2941 -0.9999
   50CHL1   H7B 6119   4.094   2.232   9.651  0.8296 -0.6661 -0.6103
   50CHL1    C8 6120   4.119   2.012   9.680  0.5829  0.5733 -0.3973
   50CHL1    H8 6121   4.050   1.934   9.717 -0.3344  2.6975  2.5515
   50CHL1   C14 6122   4.164   2.001   9.537  0.3760 -0.5086 -0.1222
   50CHL1   H14 6123   4.241   2.080   9.523 -0.6050  0.2166 -1.5612
   50CHL1   C15 6124   4.065   2.026   9.426  0.3540 -0.1674 -0.4631
   50CHL1  H15A 6125   3.970   1.974   9.451 -0.6710  1.7551 -0.2516
   50CHL1  H15B 6126   4.039   2.133   9.413 -0.8986 -0.2687  1.0694
   50CHL1   C16 6127   4.124   1.956   9.304 -0.0832  0.5682 -0.6623
   50CHL1  H16A 6128   4.050   1.881   9.268 -0.6237  0.8748 -0.2015
   50CHL1  H16B 6129   4.155   2.032   9.230  0.8335 -1.3248 -2.2677
   50CHL1   C17 6130   4.257   1.885   9.356 -0.0125  0.2195 -0.1102
   50CHL1   H17 6131   4.340   1.959   9.350  0.0521  0.1424 -0.1843
   50CHL1   C13 6132   4.231   1.865   9.509  0.5501  0.0746  0.2976
   50CHL1   C18 6133   4.135   1.752   9.543 -0.3837  0.2556 -0.5807
   50CHL1  H18A 6134   4.026   1.766   9.533 -0.7204 -2.1012 -0.4817
   50CHL1  H18B 6135   4.168   1.661   9.487  0.0082  0.6945 -1.0648
   50CHL1  H18C 6136   4.149   1.713   9.646  2.3350 -0.5893 -1.2149
   50CHL1   C12 6137   4.361   1.870   9.599  0.4477 -0.0206 -0.0907
   50CHL1  H12A 6138   4.417   1.778   9.573  0.2184  0.2565 -1.5969
   50CHL1  H12B 6139   4.418   1.962   9.573  0.4966  0.0581  0.2857
   50CHL1   C11 6140   4.333   1.886   9.751  0.0795 -0.2494 -0.1429
   50CHL1  H11A 6141   4.287   1.794   9.792  1.1111 -0.0344  1.5514
   50CHL1  H11B 6142   4.428   1.905   9.806  0.0520 -2.6024  0.7533
   50CHL1    C9 6143   4.238   2.006   9.781  0.0174 -0.4843  0.3743
   50CHL1    H9 6144   4.304   2.094   9.770 -2.1723  1.1364 -0.2782
   50CHL1   C10 6145   4.184   2.004   9.928  0.5755  0.2760 -0.1390
   50CHL1   C19 6146   4.113   1.872   9.960 -0.0762 -0.4007 -0.3004
   50CHL1  H19A 6147   4.071   1.875  10.063 -3.4527 -1.2660 -1.6002
   50CHL1  H19B 6148   4.031   1.844   9.892 -0.2280  0.3562 -0.4331
   50CHL1  H19C 6149   4.191   1.793   9.966  0.2518 -0.1999 -1.7480
   50CHL1    C1 6150   4.302   2.026  10.020  0.2534 -0.2138  0.1342
   50CHL1   H1A 6151   4.362   1.933  10.029 -2.3304 -1.9264  0.1600
   50CHL1   H1B 6152   4.366   2.106   9.977  1.4823 -1.6117 -0.7005
   50CHL1    C2 6153   4.268   2.057  10.164 -0.0309  0.0184 -0.2327
   50CHL1   H2A 6154   4.348   2.078  10.237 -0.3670  1.2797 -0.2049
   50CHL1   H2B 6155   4.214   1.967  10.199  0.5080  0.3618  1.5222
   50CHL1   C20 6156   4.279   1.762   9.262  0.6276  0.4024  0.0483
   50CHL1   H20 6157   4.190   1.696   9.272  1.1116 -0.1518  0.7269
   50CHL1   C21 6158   4.403   1.691   9.315 -0.2199 -0.9118 -0.0301
   50CHL1  H21A 6159   4.442   1.611   9.248  0.7872  0.8590 -1.5876
   50CHL1  H21B 6160   4.387   1.644   9.415  2.0697  2.9113  2.2412
   50CHL1  H21C 6161   4.480   1.766   9.344 -0.0062 -1.8208  1.8917
   50CHL1   C22 6162   4.301   1.804   9.114 -0.5253 -0.0885 -0.7399
   50CHL1  H22A 6163   4.212   1.856   9.071 -0.4093  1.8657  1.2479
   50CHL1  H22B 6164   4.385   1.876   9.120 -2.4300  2.1405  0.2381
   50CHL1   C23 6165   4.345   1.695   9.012 -0.0693 -0.1897 -0.3463
   50CHL1  H23A 6166   4.447   1.661   9.039  0.9460  0.2797 -3.3785
   50CHL1  H23B 6167   4.272   1.612   9.023 -1.6209  0.9146 -1.9495
   50CHL1   C24 6168   4.329   1.751   8.868  0.0149 -0.1304  0.8889
   50CHL1  H24A 6169   4.225   1.788   8.851  0.1103 -0.7409 -1.1797
   50CHL1  H24B 6170   4.401   1.834   8.850 -0.6787  0.6971  1.8616
   50CHL1   C25 6171   4.354   1.641   8.755 -0.0576 -0.4311  0.3943
   50CHL1   H25 6172   4.457   1.610   8.784 -0.1438 -0.8226  0.2857
   50CHL1   C26 6173   4.271   1.521   8.764 -0.0563  0.0894 -0.2520
   50CHL1  H26A 6174   4.300   1.465   8.855  1.2311  1.6294  0.3118
   50CHL1  H26B 6175   4.162   1.546   8.767  0.0047  0.9286 -3.1742
   50CHL1  H26C 6176   4.292   1.452   8.680 -1.1162  0.6826 -1.0273
   50CHL1   C27 6177   4.358   1.712   8.628 -0.1859 -0.2065 -0.2542
   50CHL1  H27A 6178   4.278   1.785   8.605 -0.3981 -0.4188 -0.1823
   50CHL1  H27B 6179   4.460   1.755   8.615 -0.4206  1.4389  2.7754
   50CHL1  H27C 6180   4.344   1.651   8.537  0.0948  0.7851 -0.9821
   51CHL1    C3 6181   4.672   4.354  10.309  0.0710 -0.0823 -0.6406
   51CHL1    H3 6182   4.694   4.250  10.343 -1.3308 -1.4693 -3.8330
   51CHL1    O3 6183   4.649   4.423  10.430  0.2552 -0.1440  0.1340
   51CHL1   H3' 6184   4.578   4.380  10.478 -0.8289  1.0566 -0.3689
   51CHL1    C4 6185   4.801   4.414  10.245 -0.2061  0.2934 -0.8287
   51CHL1   H4A 6186   4.799   4.522  10.273 -0.3282  0.0862 -0.0221
   51CHL1   H4B 6187   4.891   4.368  10.291  0.2974  1.1271 -0.9697
   51CHL1    C5 6188   4.798   4.401  10.094 -0.2978  0.0351 -0.0473
   51CHL1    C6 6189   4.912   4.362  10.036 -0.6761 -0.3276  0.6558
   51CHL1    H6 6190   4.999   4.342  10.101 -1.2587 -0.0641  1.5347
   51CHL1    C7 6191   4.920   4.366   9.884  0.0546  0.0933  0.3193
   51CHL1   H7A 6192   5.017   4.418   9.868  0.9883 -1.2985  1.3171
   51CHL1   H7B 6193   4.912   4.265   9.841 -4.7246  1.5806 -2.6177
   51CHL1    C8 6194   4.806   4.433   9.811 -0.4394 -0.4585 -1.0115
   51CHL1    H8 6195   4.812   4.541   9.833 -2.2984 -0.1072 -2.2186
   51CHL1   C14 6196   4.809   4.407   9.660 -0.7646 -0.6907  0.6175
   51CHL1   H14 6197   4.800   4.297   9.644  3.6222 -1.0201 -0.2411
   51CHL1   C15 6198   4.935   4.450   9.587 -0.2723  0.5365  0.1702
   51CHL1  H15A 6199   4.937   4.553   9.627 -2.2176  1.0419 -1.0002
   51CHL1  H15B 6200   5.023   4.390   9.619 -1.5838 -0.7325  1.4898
   51CHL1   C16 6201   4.896   4.436   9.433 -0.0832  0.0116 -0.4045
   51CHL1  H16A 6202   4.943   4.517   9.374  0.6015 -0.6507 -0.7775
   51CHL1  H16B 6203   4.924   4.335   9.395 -1.7696 -0.7627  0.3604
   51CHL1   C17 6204   4.739   4.439   9.434  0.1939  0.2277  0.4974
   51CHL1   H17 6205   4.704   4.334   9.421  2.9377 -0.4072 -2.0678
   51CHL1   C13 6206   4.696   4.474   9.579  0.3406  0.6008 -0.5173
   51CHL1   C18 6207   4.691   4.627   9.601  0.2828 -0.9815 -0.0322
   51CHL1  H18A 6208   4.691   4.651   9.709  1.4348 -2.3719  0.2934
   51CHL1  H18B 6209   4.774   4.682   9.552 -0.8434  1.5375  0.8234
   51CHL1  H18C 6210   4.595   4.668   9.562 -0.3262  0.1431  2.5881
   51CHL1   C12 6211   4.565   4.410   9.633  0.1413  0.3345  0.4391
   51CHL1  H12A 6212   4.483   4.473   9.592  0.5450  0.5958  0.0339
   51CHL1  H12B 6213   4.552   4.302   9.607 -0.3574  0.8881 -1.7175
   51CHL1   C11 6214   4.556   4.413   9.790  0.3261  0.2536  0.3782
   51CHL1  H11A 6215   4.520   4.516   9.811  0.9935  0.2613  1.4644
   51CHL1  H11B 6216   4.477   4.343   9.824  0.6465 -0.1502  0.2917
   51CHL1    C9 6217   4.680   4.381   9.873  0.9834  0.0896  0.6138
   51CHL1    H9 6218   4.689   4.270   9.866 -1.9406 -0.0909 -1.3310
   51CHL1   C10 6219   4.664   4.417  10.020  0.4510  0.0897  0.2167
   51CHL1   C19 6220   4.641   4.561  10.038 -0.5262 -0.0246  0.3373
   51CHL1  H19A 6221   4.543   4.591   9.997 -0.4206  3.4416  2.4121
   51CHL1  H19B 6222   4.628   4.593  10.144 -0.1457  0.2774  0.2935
   51CHL1  H19C 6223   4.722   4.623   9.994 -0.5713  0.3991  0.8522
   51CHL1    C1 6224   4.559   4.326  10.083  0.1340  0.4829 -0.4207
   51CHL1   H1A 6225   4.459   4.341  10.037 -0.1005 -1.7238 -0.6502
   51CHL1   H1B 6226   4.595   4.222  10.073 -2.7170 -0.5474 -0.5049
   51CHL1    C2 6227   4.541   4.350  10.227  0.7963  0.0538  0.3443
   51CHL1   H2A 6228   4.481   4.264  10.264 -1.2255  0.3151 -2.1947
   51CHL1   H2B 6229   4.479   4.439  10.249 -0.3744 -0.5079 -0.6662
   51CHL1   C20 6230   4.690   4.514   9.313  0.2565 -0.2838  0.1228
   51CHL1   H20 6231   4.726   4.619   9.306 -1.4852  0.3149 -0.0938
   51CHL1   C21 6232   4.533   4.525   9.318 -0.8357 -0.3428 -0.8316
   51CHL1  H21A 6233   4.500   4.423   9.289  0.6545 -2.2640  3.8721
   51CHL1  H21B 6234   4.506   4.601   9.241  1.4667  1.1706 -0.1940
   51CHL1  H21C 6235   4.497   4.560   9.417  5.4544  2.7575  0.6240
   51CHL1   C22 6236   4.726   4.451   9.173 -0.1837  0.7182  0.0443
   51CHL1  H22A 6237   4.828   4.406   9.167 -0.4006 -0.0552  1.7807
   51CHL1  H22B 6238   4.664   4.360   9.161  0.3031  0.4696 -0.6163
   51CHL1   C23 6239   4.712   4.543   9.048  0.3191  0.0909 -0.4324
   51CHL1  H23A 6240   4.624   4.610   9.045 -0.1476 -0.4834  0.0957
   51CHL1  H23B 6241   4.795   4.617   9.042  2.1258 -1.7196  1.0860
   51CHL1   C24 6242   4.714   4.448   8.916 -0.3079  0.0988 -0.8632
   51CHL1  H24A 6243   4.814   4.409   8.886  0.1626 -0.0766  0.8829
   51CHL1  H24B 6244   4.660   4.354   8.942  0.5496 -0.7735 -2.1310
   51CHL1   C25 6245   4.640   4.503   8.786  0.8864 -0.4504  0.3102
   51CHL1   H25 6246   4.539   4.535   8.819  0.1661 -1.7837 -0.5694
   51CHL1   C26 6247   4.722   4.626   8.730 -0.3149 -0.4384 -0.0495
   51CHL1  H26A 6248   4.713   4.643   8.620 -1.1829  2.5947  0.4506
   51CHL1  H26B 6249   4.696   4.718   8.786  0.9435  0.3658 -0.7799
   51CHL1  H26C 6250   4.830   4.605   8.741 -0.0986 -0.4528 -1.9978
   51CHL1   C27 6251   4.619   4.388   8.682 -0.2183  0.2596 -0.4662
   51CHL1  H27A 6252   4.567   4.428   8.592 -0.7251 -1.6380 -1.0427
   51CHL1  H27B 6253   4.723   4.361   8.653  1.4242  3.6504  1.9900
   51CHL1  H27C 6254   4.563   4.305   8.730  0.2795 -0.4132 -1.0292
   52CHL1    C3 6255   1.750   3.163   9.811  0.1562 -0.6145  0.5078
   52CHL1    H3 6256   1.778   3.270   9.812 -0.5501 -0.4097 -0.8925
   52CHL1    O3 6257   1.695   3.138   9.937 -0.0764  0.1215  0.1971
   52CHL1   H3' 6258   1.606   3.106   9.916  0.9916 -1.8623 -1.4330
   52CHL1    C4 6259   1.647   3.145   9.690  1.0281  0.3958  0.5739
   52CHL1   H4A 6260   1.588   3.051   9.699 -2.0238  2.0055 -1.7839
   52CHL1   H4B 6261   1.572   3.226   9.702 -0.7554 -0.9822 -0.9668
   52CHL1    C5 6262   1.709   3.154   9.548  0.2223 -0.7082 -0.6955
   52CHL1    C6 6263   1.669   3.236   9.457  0.2186 -0.0985  0.4674
   52CHL1    H6 6264   1.581   3.300   9.474  1.1450  0.9197  1.5629
   52CHL1    C7 6265   1.721   3.248   9.314  0.2889  0.3175  0.6129
   52CHL1   H7A 6266   1.641   3.245   9.237 -2.0068  0.8597  2.8907
   52CHL1   H7B 6267   1.777   3.345   9.308 -0.3831  0.6978  0.4444
   52CHL1    C8 6268   1.822   3.135   9.283  0.7789 -0.9227 -0.8103
   52CHL1    H8 6269   1.775   3.040   9.250  1.2125 -0.4878 -2.6878
   52CHL1   C14 6270   1.899   3.180   9.167 -0.3491  0.2964  0.2659
   52CHL1   H14 6271   1.946   3.272   9.207 -0.8105 -1.2680  4.6525
   52CHL1   C15 6272   1.832   3.225   9.039  0.0416  0.0432  0.2370
   52CHL1  H15A 6273   1.751   3.160   8.998 -0.4734 -0.1179  1.4813
   52CHL1  H15B 6274   1.775   3.319   9.055 -0.0007 -0.1016  0.9475
   52CHL1   C16 6275   1.943   3.236   8.930 -0.7931  0.4728 -0.2747
   52CHL1  H16A 6276   1.920   3.187   8.833 -1.4521  1.9035 -0.8675
   52CHL1  H16B 6277   1.978   3.337   8.900 -0.9577  0.9161  1.0023
   52CHL1   C17 6278   2.061   3.171   9.003 -0.0104  0.5289 -0.2469
   52CHL1   H17 6279   2.115   3.249   9.061  0.4064  0.5655 -0.6824
   52CHL1   C13 6280   2.007   3.084   9.121  0.6621 -0.4125  1.2304
   52CHL1   C18 6281   1.942   2.952   9.066  0.4873 -0.5398  0.4015
   52CHL1  H18A 6282   1.883   2.886   9.132  2.0272 -1.8193  0.5343
   52CHL1  H18B 6283   1.878   2.976   8.979  0.8496 -0.2028  0.2229
   52CHL1  H18C 6284   2.021   2.881   9.033 -0.4541 -1.4356  0.0744
   52CHL1   C12 6285   2.103   3.057   9.230  0.1125  0.2305 -0.1246
   52CHL1  H12A 6286   2.179   2.983   9.195 -0.4230 -0.7541  0.7664
   52CHL1  H12B 6287   2.163   3.149   9.246 -0.5581  0.7488 -0.5062
   52CHL1   C11 6288   2.024   3.008   9.359 -0.0944 -0.2614 -0.3850
   52CHL1  H11A 6289   1.982   2.909   9.333 -1.4669 -0.4122  2.2063
   52CHL1  H11B 6290   2.089   2.983   9.445  0.9825 -1.2819 -1.4657
   52CHL1    C9 6291   1.916   3.111   9.403  0.1315 -0.0396 -0.5719
   52CHL1    H9 6292   1.977   3.203   9.414  1.6490 -0.9463 -1.3305
   52CHL1   C10 6293   1.839   3.067   9.534 -0.1274  0.7914 -0.2234
   52CHL1   C19 6294   1.804   2.921   9.526 -0.0394  0.0695 -0.1720
   52CHL1  H19A 6295   1.737   2.887   9.608 -0.2987  0.2067 -0.3263
   52CHL1  H19B 6296   1.750   2.900   9.431 -1.1710  0.7354  0.3159
   52CHL1  H19C 6297   1.888   2.851   9.541  1.4496  1.9794  0.5638
   52CHL1    C1 6298   1.944   3.089   9.654 -0.1545  0.5912  0.7750
   52CHL1   H1A 6299   2.028   3.017   9.655 -0.3892  0.2818 -0.8371
   52CHL1   H1B 6300   1.991   3.190   9.656 -1.6774  1.3335  0.3522
   52CHL1    C2 6301   1.881   3.081   9.797  0.0964  0.1807 -0.5092
   52CHL1   H2A 6302   1.955   3.114   9.874  1.9963 -0.1174 -2.1701
   52CHL1   H2B 6303   1.862   2.972   9.807 -2.7585  0.7362  0.5605
   52CHL1   C20 6304   2.160   3.098   8.909  0.6867  0.0417 -0.3862
   52CHL1   H20 6305   2.206   3.024   8.978 -1.2829 -1.2195 -0.4134
   52CHL1   C21 6306   2.273   3.200   8.875  0.6921  0.1067 -0.5708
   52CHL1  H21A 6307   2.231   3.287   8.819  0.1422 -0.2672 -0.7389
   52CHL1  H21B 6308   2.351   3.148   8.815  1.1827 -2.0914  1.8690
   52CHL1  H21C 6309   2.311   3.234   8.974 -1.2485  0.0059  0.2215
   52CHL1   C22 6310   2.121   3.034   8.779 -1.0448  0.4103 -0.1188
   52CHL1  H22A 6311   2.017   2.995   8.771 -1.9439  1.9265  3.2330
   52CHL1  H22B 6312   2.125   3.104   8.694 -0.3530 -0.1931 -0.5905
   52CHL1   C23 6313   2.217   2.920   8.730 -0.0290  0.3429 -0.3320
   52CHL1  H23A 6314   2.320   2.963   8.729  1.0574 -1.9404  3.1777
   52CHL1  H23B 6315   2.220   2.844   8.811  0.5656  1.2507  0.5094
   52CHL1   C24 6316   2.179   2.845   8.602 -0.1621  0.0415 -0.6637
   52CHL1  H24A 6317   2.264   2.779   8.575 -0.3715 -0.4386 -0.1773
   52CHL1  H24B 6318   2.092   2.785   8.637  1.3348  0.1110  3.4051
   52CHL1   C25 6319   2.144   2.938   8.484  0.5635  0.8119 -0.2043
   52CHL1   H25 6320   2.050   2.993   8.506 -1.1326 -2.1230  0.1704
   52CHL1   C26 6321   2.261   3.025   8.435  0.4705 -0.1669  0.7771
   52CHL1  H26A 6322   2.315   3.089   8.507 -0.6723 -1.1584  2.5319
   52CHL1  H26B 6323   2.337   2.953   8.398 -1.1189 -1.7818  0.5892
   52CHL1  H26C 6324   2.242   3.085   8.343 -2.2191 -1.1795  0.6485
   52CHL1   C27 6325   2.121   2.861   8.350  0.2238  0.3765  0.2339
   52CHL1  H27A 6326   2.205   2.795   8.322  0.1078 -0.1318  1.0762
   52CHL1  H27B 6327   2.042   2.787   8.374  0.8355 -0.2381  0.3661
   52CHL1  H27C 6328   2.105   2.923   8.258 -2.0213 -0.1073  0.2683
   53CHL1    C3 6329   2.565   2.834  10.264 -0.2526  0.7106  0.5034
   53CHL1    H3 6330   2.466   2.859  10.222 -0.8946 -1.5711  0.6148
   53CHL1    O3 6331   2.550   2.813  10.403 -0.1044 -0.3322 -0.8167
   53CHL1   H3' 6332   2.642   2.811  10.431 -0.0726 -2.9733 -0.9644
   53CHL1    C4 6333   2.618   2.698  10.219  0.0522  0.1112 -0.9692
   53CHL1   H4A 6334   2.708   2.666  10.275 -0.8541  0.5802  0.8046
   53CHL1   H4B 6335   2.542   2.620  10.243 -0.7224  0.7638 -1.3035
   53CHL1    C5 6336   2.647   2.699  10.077 -0.1387  0.3633 -0.0630
   53CHL1    C6 6337   2.585   2.617   9.989 -0.1625  0.6703  0.0550
   53CHL1    H6 6338   2.511   2.550  10.036 -0.7269  2.2150  1.4250
   53CHL1    C7 6339   2.618   2.592   9.842 -0.8357  0.3937 -0.0625
   53CHL1   H7A 6340   2.628   2.483   9.821 -0.3351  0.3419  0.4484
   53CHL1   H7B 6341   2.534   2.638   9.785 -2.3058 -2.3207 -0.2241
   53CHL1    C8 6342   2.746   2.674   9.795  0.8507 -0.1694 -0.3042
   53CHL1    H8 6343   2.837   2.617   9.824  2.1431  0.5378 -2.7869
   53CHL1   C14 6344   2.742   2.685   9.648  0.3010  0.6376 -0.4579
   53CHL1   H14 6345   2.645   2.732   9.624 -0.6855 -0.4988  1.2675
   53CHL1   C15 6346   2.740   2.553   9.576  0.5164  0.0254  0.2721
   53CHL1  H15A 6347   2.806   2.482   9.631 -2.4061 -0.6216  3.1001
   53CHL1  H15B 6348   2.638   2.511   9.587 -0.4539  1.6262 -2.0451
   53CHL1   C16 6349   2.780   2.589   9.429 -0.6363 -0.4395 -0.1914
   53CHL1  H16A 6350   2.870   2.527   9.410 -1.0016 -1.3594  1.0190
   53CHL1  H16B 6351   2.701   2.570   9.354  0.2287 -2.6218 -0.5890
   53CHL1   C17 6352   2.828   2.734   9.435  0.2746  0.0485 -0.7677
   53CHL1   H17 6353   2.753   2.809   9.400  1.1812  1.0923 -0.5035
   53CHL1   C13 6354   2.855   2.769   9.584 -0.3224 -0.1377  0.1380
   53CHL1   C18 6355   2.998   2.715   9.629  0.0607 -0.6671 -0.3201
   53CHL1  H18A 6356   3.085   2.772   9.588 -2.7612  2.4400 -2.3341
   53CHL1  H18B 6357   3.017   2.709   9.738  0.6568  0.0305 -0.3824
   53CHL1  H18C 6358   3.009   2.610   9.593  1.6878 -1.0014  1.1184
   53CHL1   C12 6359   2.830   2.908   9.637  0.3288 -0.0092 -0.6899
   53CHL1  H12A 6360   2.914   2.971   9.601  0.4656 -2.3212 -4.7782
   53CHL1  H12B 6361   2.738   2.961   9.605 -0.2023 -0.1430  0.6028
   53CHL1   C11 6362   2.846   2.918   9.791 -0.0603  0.1213 -0.0563
   53CHL1  H11A 6363   2.946   2.888   9.830 -0.9019 -0.5169  1.6266
   53CHL1  H11B 6364   2.834   3.022   9.828  2.0258  0.9402 -1.5453
   53CHL1    C9 6365   2.752   2.810   9.859 -0.4629 -0.0650 -0.2294
   53CHL1    H9 6366   2.651   2.851   9.838 -0.7886 -0.8010 -0.0951
   53CHL1   C10 6367   2.743   2.810  10.020  0.0577  0.5860 -0.1206
   53CHL1   C19 6368   2.886   2.778  10.085 -0.1228  0.2590  0.2344
   53CHL1  H19A 6369   2.967   2.840  10.039  0.9655 -1.7896 -0.6695
   53CHL1  H19B 6370   2.896   2.807  10.192 -0.5363  2.5798 -0.3108
   53CHL1  H19C 6371   2.914   2.671  10.073 -0.9453 -0.0373  0.9772
   53CHL1    C1 6372   2.700   2.950  10.076  0.2461  0.2052  0.1962
   53CHL1   H1A 6373   2.788   3.016  10.060 -0.5691  1.8022  2.2664
   53CHL1   H1B 6374   2.618   2.984  10.009  2.6579  0.4037 -2.7831
   53CHL1    C2 6375   2.662   2.957  10.224 -0.4192 -0.0569 -0.5055
   53CHL1   H2A 6376   2.604   3.050  10.243 -1.3217 -0.9114  0.9992
   53CHL1   H2B 6377   2.754   2.947  10.286 -1.0724  0.0399  0.4849
   53CHL1   C20 6378   2.938   2.761   9.329 -0.2889 -0.2520 -0.1737
   53CHL1   H20 6379   3.034   2.711   9.355 -0.2004 -0.9258 -1.7471
   53CHL1   C21 6380   2.979   2.915   9.327  0.5879 -0.9756 -0.0971
   53CHL1  H21A 6381   3.040   2.937   9.417  1.3286 -0.9907 -0.5896
   53CHL1  H21B 6382   2.884   2.972   9.337  1.4587  0.5568 -0.3659
   53CHL1  H21C 6383   3.044   2.956   9.246  0.3572  2.6914  1.4862
   53CHL1   C22 6384   2.897   2.730   9.185  0.8026 -0.2486  0.0626
   53CHL1  H22A 6385   2.859   2.626   9.189 -0.8966  0.3913  0.9727
   53CHL1  H22B 6386   2.810   2.788   9.148  0.0654 -2.1156 -1.1909
   53CHL1   C23 6387   3.017   2.736   9.089 -0.4757  0.6482 -0.2809
   53CHL1  H23A 6388   3.057   2.839   9.091 -1.2091  0.9258  0.4083
   53CHL1  H23B 6389   3.090   2.669   9.139 -0.6072  1.6651  1.3057
   53CHL1   C24 6390   2.992   2.688   8.948  0.2028  1.5833  1.2254
   53CHL1  H24A 6391   2.949   2.586   8.956  1.5620  1.0023  1.3008
   53CHL1  H24B 6392   2.922   2.764   8.908 -0.1139 -0.3644 -2.1343
   53CHL1   C25 6393   3.106   2.681   8.853 -0.3747  0.2145  0.4916
   53CHL1   H25 6394   3.185   2.614   8.893  0.6055  2.1924  1.9947
   53CHL1   C26 6395   3.070   2.633   8.706  0.2473  0.1064 -0.3371
   53CHL1  H26A 6396   3.007   2.542   8.709 -0.9295  0.9490  2.0726
   53CHL1  H26B 6397   3.011   2.715   8.660 -1.7366 -1.8819 -1.4352
   53CHL1  H26C 6398   3.167   2.617   8.655  0.2530 -0.4929 -0.1335
   53CHL1   C27 6399   3.179   2.821   8.827 -0.8425  0.3541 -0.4762
   53CHL1  H27A 6400   3.113   2.905   8.797 -3.0301  0.2845  3.6820
   53CHL1  H27B 6401   3.232   2.847   8.921  0.3492 -1.6575 -0.5745
   53CHL1  H27C 6402   3.264   2.807   8.758  0.7203  0.2035  1.4286
   54CHL1    C3 6403   2.850   3.661  10.019  0.2148 -0.8949  0.3080
   54CHL1    H3 6404   2.948   3.611  10.035  1.9446  3.0853  2.6700
   54CHL1    O3 6405   2.806   3.722  10.143  0.5589 -0.1639  0.0262
   54CHL1   H3' 6406   2.729   3.772  10.115 -0.5337 -0.7902  1.8726
   54CHL1    C4 6407   2.862   3.776   9.914  0.3264 -0.7715  0.1076
   54CHL1   H4A 6408   2.764   3.828   9.911  0.7498  0.2596  2.8148
   54CHL1   H4B 6409   2.936   3.850   9.952 -0.5369 -0.0347  0.3859
   54CHL1    C5 6410   2.886   3.717   9.775 -0.4337  0.2962  0.0645
   54CHL1    C6 6411   2.992   3.757   9.698 -0.7709 -0.4516  0.1647
   54CHL1    H6 6412   3.067   3.830   9.731  2.8196 -2.9036 -2.1448
   54CHL1    C7 6413   3.013   3.715   9.549  1.1073  1.2913  0.6044
   54CHL1   H7A 6414   3.019   3.811   9.493  0.2486  0.5192 -0.8540
   54CHL1   H7B 6415   3.106   3.657   9.534 -0.1104 -0.5494 -0.0148
   54CHL1    C8 6416   2.900   3.625   9.494 -0.5010 -0.1275 -0.5518
   54CHL1    H8 6417   2.826   3.698   9.455  2.3214  1.5085 -3.1376
   54CHL1   C14 6418   2.945   3.547   9.376  0.7457 -0.4100  0.5793
   54CHL1   H14 6419   3.026   3.483   9.416  0.6478 -2.1445 -1.8700
   54CHL1   C15 6420   2.999   3.626   9.250  0.5566 -0.5819  0.3736
   54CHL1  H15A 6421   2.927   3.706   9.225  0.5442 -0.1273  1.8294
   54CHL1  H15B 6422   3.098   3.674   9.259  1.3301 -2.1214  0.2682
   54CHL1   C16 6423   3.017   3.518   9.141 -1.0006  0.1420  0.4082
   54CHL1  H16A 6424   3.008   3.561   9.039 -0.4356 -1.2431 -0.2347
   54CHL1  H16B 6425   3.123   3.485   9.139 -0.8924  0.5067 -0.0172
   54CHL1   C17 6426   2.920   3.411   9.182  0.6096 -0.7412 -0.0416
   54CHL1   H17 6427   2.981   3.330   9.228  2.7073  0.4159 -0.6863
   54CHL1   C13 6428   2.838   3.455   9.313 -0.2505 -0.3176  0.3388
   54CHL1   C18 6429   2.717   3.534   9.252 -0.4019 -0.4803 -0.0768
   54CHL1  H18A 6430   2.631   3.469   9.224 -0.5277  0.3899 -1.7530
   54CHL1  H18B 6431   2.671   3.590   9.337 -0.4580  0.7982 -0.9354
   54CHL1  H18C 6432   2.745   3.611   9.178  0.8467 -0.5262  0.3338
   54CHL1   C12 6433   2.795   3.355   9.413  0.2384  0.0725  0.2410
   54CHL1  H12A 6434   2.709   3.300   9.370 -1.3041  0.1998  3.0612
   54CHL1  H12B 6435   2.878   3.288   9.448 -0.1230  0.5687  2.1205
   54CHL1   C11 6436   2.739   3.428   9.539  0.7881  0.4014 -0.5327
   54CHL1  H11A 6437   2.643   3.476   9.511 -0.9416 -2.5605  0.0824
   54CHL1  H11B 6438   2.712   3.351   9.615 -2.3064  0.6730 -1.2873
   54CHL1    C9 6439   2.839   3.527   9.599  0.2332 -0.1096 -0.0953
   54CHL1    H9 6440   2.933   3.476   9.631  0.8054  1.9451  1.6510
   54CHL1   C10 6441   2.786   3.608   9.722 -1.0900  0.6779 -0.5341
   54CHL1   C19 6442   2.647   3.665   9.701  0.1960 -0.5715 -0.0370
   54CHL1  H19A 6443   2.617   3.719   9.793  2.0879 -1.7717  1.3305
   54CHL1  H19B 6444   2.651   3.724   9.607 -0.2412 -1.2264 -0.4719
   54CHL1  H19C 6445   2.571   3.584   9.700 -0.5903  0.1271  1.9012
   54CHL1    C1 6446   2.774   3.501   9.835  0.6133 -0.2774  0.6108
   54CHL1   H1A 6447   2.686   3.436   9.815  1.8117 -1.8065  0.1944
   54CHL1   H1B 6448   2.864   3.435   9.842  0.0550 -1.1231 -0.0673
   54CHL1    C2 6449   2.748   3.562   9.975  0.1069  0.1841 -0.2526
   54CHL1   H2A 6450   2.748   3.477  10.048 -1.1563 -0.3800 -0.8824
   54CHL1   H2B 6451   2.650   3.613   9.965  0.1027  0.6195  1.8298
   54CHL1   C20 6452   2.833   3.346   9.066 -0.5716  0.7616  0.7913
   54CHL1   H20 6453   2.746   3.298   9.116  0.4417  0.2934  2.1454
   54CHL1   C21 6454   2.929   3.236   9.014  0.7697  0.0608 -0.9653
   54CHL1  H21A 6455   3.028   3.280   8.992  0.9432 -0.9905 -2.3842
   54CHL1  H21B 6456   2.896   3.196   8.915  1.7275  1.4374 -1.8726
   54CHL1  H21C 6457   2.934   3.146   9.078  0.6728  1.0842  0.5005
   54CHL1   C22 6458   2.791   3.429   8.939 -0.2992 -1.0288 -0.2593
   54CHL1  H22A 6459   2.745   3.527   8.965  1.9784  0.5057 -1.8559
   54CHL1  H22B 6460   2.880   3.456   8.879 -0.0043 -2.5285 -0.5084
   54CHL1   C23 6461   2.692   3.355   8.850  0.4377  0.4420 -0.3758
   54CHL1  H23A 6462   2.740   3.269   8.798 -0.6586 -1.1794  1.2025
   54CHL1  H23B 6463   2.615   3.312   8.919 -0.8664  3.3139  0.0203
   54CHL1   C24 6464   2.620   3.456   8.752  0.1552  0.1725  0.3903
   54CHL1  H24A 6465   2.571   3.529   8.819  0.3277 -0.2268  0.9592
   54CHL1  H24B 6466   2.692   3.516   8.692 -1.5215  1.2620 -0.5668
   54CHL1   C25 6467   2.517   3.388   8.662  0.6675 -0.3445  0.3145
   54CHL1   H25 6468   2.470   3.312   8.728  1.5323  0.1354  1.5046
   54CHL1   C26 6469   2.420   3.489   8.619  0.6497 -1.0896 -0.2302
   54CHL1  H26A 6470   2.458   3.563   8.545  1.7502 -0.7293  0.6679
   54CHL1  H26B 6471   2.331   3.440   8.575  0.0602  0.8108 -1.2174
   54CHL1  H26C 6472   2.382   3.550   8.704 -0.5032  1.3682 -2.4503
   54CHL1   C27 6473   2.570   3.321   8.538  0.0338  0.0352 -0.2642
   54CHL1  H27A 6474   2.606   3.400   8.468 -0.1569 -0.1353 -0.5556
   54CHL1  H27B 6475   2.658   3.260   8.564 -0.6783 -1.6012 -1.5851
   54CHL1  H27C 6476   2.491   3.261   8.487 -0.7928  0.8216  0.0727
   55CHL1    C3 6477   3.581   2.095  10.319  0.0784  1.0561  0.0533
   55CHL1    H3 6478   3.501   2.172  10.311 -0.2227  0.7479  0.0679
   55CHL1    O3 6479   3.611   2.104  10.455  0.4204 -0.4255 -0.1599
   55CHL1   H3' 6480   3.532   2.070  10.496  1.5043 -3.8660 -0.7280
   55CHL1    C4 6481   3.523   1.949  10.286 -0.3673 -0.0996  0.1646
   55CHL1   H4A 6482   3.600   1.888  10.337 -0.7515 -0.6354  0.1121
   55CHL1   H4B 6483   3.424   1.956  10.335  0.3996  0.3482  1.6734
   55CHL1    C5 6484   3.520   1.918  10.133 -0.9128 -0.4652  1.1760
   55CHL1    C6 6485   3.411   1.867  10.084  0.1894 -0.0400  0.1972
   55CHL1    H6 6486   3.325   1.851  10.150 -2.0777  0.1968 -2.6072
   55CHL1    C7 6487   3.388   1.817   9.940 -0.5672 -0.0534 -0.2848
   55CHL1   H7A 6488   3.359   1.710   9.937  0.7685 -0.4156 -0.6031
   55CHL1   H7B 6489   3.296   1.858   9.893 -0.8670 -0.5119 -0.0905
   55CHL1    C8 6490   3.510   1.854   9.851  0.0821 -0.0795  0.1575
   55CHL1    H8 6491   3.572   1.762   9.856  0.3093  0.1256  1.2575
   55CHL1   C14 6492   3.469   1.877   9.703  0.4603 -0.0070  0.5573
   55CHL1   H14 6493   3.402   1.966   9.704 -2.9174 -2.4371  2.9787
   55CHL1   C15 6494   3.399   1.757   9.630  0.1484 -0.0436  0.4814
   55CHL1  H15A 6495   3.458   1.663   9.628  1.5485  0.8612 -0.8547
   55CHL1  H15B 6496   3.295   1.741   9.668  0.4974 -0.0217  1.4601
   55CHL1   C16 6497   3.390   1.810   9.486  0.2738 -0.4097 -0.0241
   55CHL1  H16A 6498   3.393   1.736   9.404 -0.7643  0.2637 -0.6856
   55CHL1  H16B 6499   3.291   1.861   9.478  1.6454  2.1151 -1.6150
   55CHL1   C17 6500   3.508   1.913   9.474  0.4058 -0.2952  0.8392
   55CHL1   H17 6501   3.459   2.013   9.481  0.8071  0.4125 -4.2508
   55CHL1   C13 6502   3.584   1.911   9.609 -0.4233  0.2458 -0.8163
   55CHL1   C18 6503   3.688   1.794   9.609  0.0693  0.0698 -0.4918
   55CHL1  H18A 6504   3.780   1.828   9.556 -0.7208  1.4866 -0.9913
   55CHL1  H18B 6505   3.721   1.747   9.704 -1.0189 -2.9352 -1.5373
   55CHL1  H18C 6506   3.655   1.703   9.555 -1.8416  0.0518  0.6900
   55CHL1   C12 6507   3.653   2.045   9.656  0.3536  0.0894  0.5368
   55CHL1  H12A 6508   3.733   2.077   9.586  0.2154  0.3580  0.5042
   55CHL1  H12B 6509   3.570   2.117   9.670  0.3170 -0.1533  1.5994
   55CHL1   C11 6510   3.706   2.022   9.801 -0.0695  0.1201 -0.7282
   55CHL1  H11A 6511   3.791   1.951   9.795 -1.0173 -1.0817 -0.2878
   55CHL1  H11B 6512   3.747   2.118   9.839 -0.2434 -0.3151  0.6133
   55CHL1    C9 6513   3.597   1.974   9.895 -0.1555  0.7708 -0.4154
   55CHL1    H9 6514   3.518   2.053   9.896 -0.1903  0.7360  0.3704
   55CHL1   C10 6515   3.642   1.964  10.047  0.3201 -0.2259  0.6158
   55CHL1   C19 6516   3.750   1.865  10.073  0.3098 -0.0996  0.0038
   55CHL1  H19A 6517   3.838   1.883  10.007 -0.4761  0.5144 -0.8805
   55CHL1  H19B 6518   3.795   1.883  10.173 -2.0822  0.9637  0.9177
   55CHL1  H19C 6519   3.724   1.757  10.067 -0.5848  0.0581  0.8933
   55CHL1    C1 6520   3.690   2.108  10.086  0.7218 -0.5716  0.0398
   55CHL1   H1A 6521   3.791   2.124  10.042  0.6220 -0.9028 -0.3165
   55CHL1   H1B 6522   3.631   2.188  10.036  2.4626  1.1033  0.6026
   55CHL1    C2 6523   3.698   2.136  10.235  0.1949  0.1091 -0.2159
   55CHL1   H2A 6524   3.715   2.243  10.259  0.9720 -0.3398  1.3046
   55CHL1   H2B 6525   3.791   2.091  10.275 -1.1819 -2.7025 -0.0155
   55CHL1   C20 6526   3.582   1.911   9.342  0.4705 -0.2440 -0.0096
   55CHL1   H20 6527   3.672   1.976   9.352  0.8807 -0.5793 -1.3373
   55CHL1   C21 6528   3.486   1.972   9.238 -0.8699  0.1537 -0.4865
   55CHL1  H21A 6529   3.383   1.932   9.244 -0.8137  0.2189  0.9760
   55CHL1  H21B 6530   3.515   1.951   9.133  0.9384  1.0523 -0.1925
   55CHL1  H21C 6531   3.487   2.083   9.245  0.8435  0.0396  1.3973
   55CHL1   C22 6532   3.631   1.775   9.288  0.4118 -0.1468 -0.1132
   55CHL1  H22A 6533   3.694   1.732   9.369  2.2345  1.4715 -0.6170
   55CHL1  H22B 6534   3.547   1.708   9.262 -0.7767  0.7817  1.2088
   55CHL1   C23 6535   3.730   1.768   9.169  0.0095  0.1443 -0.2236
   55CHL1  H23A 6536   3.690   1.822   9.080  2.0780 -0.0391 -1.3028
   55CHL1  H23B 6537   3.826   1.815   9.199  0.7200 -1.2251 -0.3425
   55CHL1   C24 6538   3.776   1.625   9.134 -0.5219 -0.4318  0.1284
   55CHL1  H24A 6539   3.828   1.581   9.222 -0.0438 -0.2481 -0.0620
   55CHL1  H24B 6540   3.692   1.552   9.130 -0.0136 -0.9583 -1.7460
   55CHL1   C25 6541   3.848   1.594   9.001 -1.2478 -0.2010 -0.2060
   55CHL1   H25 6542   3.864   1.485   8.990 -1.5883 -0.0979 -1.8638
   55CHL1   C26 6543   3.775   1.645   8.878  0.1166  0.1410 -0.2763
   55CHL1  H26A 6544   3.762   1.754   8.858  1.3186  0.2159 -0.7229
   55CHL1  H26B 6545   3.825   1.609   8.786 -1.0104 -1.1353 -0.3973
   55CHL1  H26C 6546   3.672   1.604   8.876 -0.0725  0.6178 -0.5428
   55CHL1   C27 6547   3.987   1.646   8.990  0.9672  0.3618  0.1686
   55CHL1  H27A 6548   4.049   1.605   9.073  0.5610 -0.1012  0.2435
   55CHL1  H27B 6549   4.028   1.602   8.897  1.0981  0.2079  0.2975
   55CHL1  H27C 6550   3.992   1.757   8.995  1.1338  0.3206  1.0615
   56CHL1    C3 6551   1.412   6.612  10.070 -0.2823 -1.0902  0.5884
   56CHL1    H3 6552   1.522   6.630  10.069 -0.6206  1.1662 -1.9808
   56CHL1    O3 6553   1.365   6.598  10.202 -0.0076 -0.8674 -0.1193
   56CHL1   H3' 6554   1.275   6.566  10.199 -0.1488 -0.8225  2.3469
   56CHL1    C4 6555   1.346   6.742   9.996 -0.9109  0.1860  0.6744
   56CHL1   H4A 6556   1.236   6.747  10.003 -0.9861 -0.0954 -0.2088
   56CHL1   H4B 6557   1.384   6.822  10.063  1.2278 -1.3118  1.3262
   56CHL1    C5 6558   1.398   6.746   9.849  0.0472 -0.2346  0.1899
   56CHL1    C6 6559   1.480   6.837   9.800  0.2193 -0.3074 -0.6438
   56CHL1    H6 6560   1.512   6.917   9.868  0.8430 -0.1948 -1.0645
   56CHL1    C7 6561   1.519   6.850   9.652  0.6073  0.1950 -0.3288
   56CHL1   H7A 6562   1.512   6.956   9.619 -1.3580  0.3984  0.6828
   56CHL1   H7B 6563   1.630   6.836   9.655  1.1512  3.3063 -2.8092
   56CHL1    C8 6564   1.450   6.752   9.555  0.4406 -0.4233 -0.8362
   56CHL1    H8 6565   1.349   6.790   9.529  0.0877  0.0949  1.2604
   56CHL1   C14 6566   1.523   6.732   9.422 -0.1322 -1.0308 -0.0390
   56CHL1   H14 6567   1.623   6.690   9.443  0.5039  1.0852  1.3067
   56CHL1   C15 6568   1.573   6.861   9.354 -0.0168  0.1076  0.8296
   56CHL1  H15A 6569   1.488   6.933   9.353 -1.1789 -1.1757  3.2366
   56CHL1  H15B 6570   1.654   6.900   9.420 -0.7223 -0.6276  2.1359
   56CHL1   C16 6571   1.607   6.810   9.215  0.1826 -0.3440 -0.2715
   56CHL1  H16A 6572   1.550   6.869   9.139  1.5391  0.4148 -0.7373
   56CHL1  H16B 6573   1.714   6.800   9.185  0.5602 -0.4326  1.1000
   56CHL1   C17 6574   1.560   6.663   9.206  1.1744  0.1959  0.0343
   56CHL1   H17 6575   1.647   6.599   9.229  1.8596  0.4521 -1.7614
   56CHL1   C13 6576   1.457   6.644   9.325 -0.3342 -0.6440  0.2717
   56CHL1   C18 6577   1.330   6.713   9.275  0.0183 -0.0359 -0.5690
   56CHL1  H18A 6578   1.349   6.804   9.214  0.9515 -0.0717 -0.3426
   56CHL1  H18B 6579   1.271   6.644   9.211  1.2796 -0.8594 -0.8620
   56CHL1  H18C 6580   1.259   6.738   9.357 -1.2405 -1.2208 -1.2849
   56CHL1   C12 6581   1.435   6.506   9.388 -0.6196 -0.6063  0.1219
   56CHL1  H12A 6582   1.393   6.446   9.305  0.7016 -1.7537  0.2577
   56CHL1  H12B 6583   1.538   6.468   9.410 -1.1299 -0.5572  2.8224
   56CHL1   C11 6584   1.353   6.515   9.518 -0.0975 -0.5118 -0.1536
   56CHL1  H11A 6585   1.250   6.546   9.491 -0.4256 -3.1699 -2.1478
   56CHL1  H11B 6586   1.349   6.419   9.573  3.2518  0.1948  1.4746
   56CHL1    C9 6587   1.421   6.619   9.621  0.0657 -0.1967  0.4507
   56CHL1    H9 6588   1.518   6.565   9.634 -1.2415 -3.7761 -3.3294
   56CHL1   C10 6589   1.362   6.622   9.765 -0.4983 -0.4339  0.2604
   56CHL1   C19 6590   1.209   6.607   9.753 -0.0587 -0.0880  0.1459
   56CHL1  H19A 6591   1.174   6.696   9.696  0.8210 -0.2378 -0.6457
   56CHL1  H19B 6592   1.183   6.514   9.698  0.9467  0.2352 -0.8854
   56CHL1  H19C 6593   1.161   6.615   9.853 -1.7679 -3.7240 -0.3123
   56CHL1    C1 6594   1.413   6.496   9.845  0.4293  0.3002 -0.0775
   56CHL1   H1A 6595   1.378   6.403   9.795  2.4756  0.4660 -1.8488
   56CHL1   H1B 6596   1.523   6.503   9.851  0.4379 -1.1914  1.7815
   56CHL1    C2 6597   1.369   6.486   9.992 -0.3268 -0.2424  0.4965
   56CHL1   H2A 6598   1.421   6.399  10.037  0.2307  0.1507  0.6198
   56CHL1   H2B 6599   1.261   6.461   9.982 -0.2681 -1.7156  3.1418
   56CHL1   C20 6600   1.520   6.630   9.057 -0.0806 -0.2391  0.3020
   56CHL1   H20 6601   1.448   6.708   9.024  1.5990  0.5658 -1.5301
   56CHL1   C21 6602   1.458   6.494   9.055  0.5635 -0.3259  0.0529
   56CHL1  H21A 6603   1.358   6.500   9.102 -1.2669 -2.5742 -3.3264
   56CHL1  H21B 6604   1.519   6.423   9.116  1.5744 -0.0815 -0.6538
   56CHL1  H21C 6605   1.451   6.446   8.955 -0.1621 -2.2767  1.0025
   56CHL1   C22 6606   1.644   6.645   8.962  0.7165 -0.6617  0.5454
   56CHL1  H22A 6607   1.697   6.741   8.980  2.0583 -1.4827  1.0987
   56CHL1  H22B 6608   1.719   6.563   8.969  0.8283 -0.4427  2.2183
   56CHL1   C23 6609   1.601   6.638   8.815  0.3266 -0.4127 -0.7012
   56CHL1  H23A 6610   1.523   6.561   8.798  2.2204 -2.0542 -2.3726
   56CHL1  H23B 6611   1.571   6.741   8.789  0.6603  0.1201  0.9784
   56CHL1   C24 6612   1.718   6.622   8.723  0.3656 -0.6363 -0.3584
   56CHL1  H24A 6613   1.808   6.680   8.755 -0.8416  1.2686 -0.3367
   56CHL1  H24B 6614   1.752   6.517   8.716 -0.2884 -0.8280 -0.6548
   56CHL1   C25 6615   1.672   6.658   8.578  0.5942 -0.0548 -0.0313
   56CHL1   H25 6616   1.577   6.606   8.551  0.6301 -0.2345  0.1820
   56CHL1   C26 6617   1.661   6.807   8.549 -0.3365  0.0023  0.1744
   56CHL1  H26A 6618   1.567   6.844   8.596  0.3941  0.1180  1.5485
   56CHL1  H26B 6619   1.745   6.870   8.585 -2.0928  2.0902  0.7882
   56CHL1  H26C 6620   1.650   6.833   8.441  2.2974  1.1071  0.1219
   56CHL1   C27 6621   1.775   6.613   8.473 -0.7543 -0.3150  0.1252
   56CHL1  H27A 6622   1.737   6.625   8.370 -2.0306  3.6146  0.9695
   56CHL1  H27B 6623   1.875   6.657   8.496 -2.0202  2.9355 -0.3617
   56CHL1  H27C 6624   1.799   6.507   8.497 -0.4196 -0.0276  1.1235
   57CHL1    C3 6625   3.785   2.813  10.360  0.1939  0.8444 -0.3559
   57CHL1    H3 6626   3.692   2.860  10.320 -0.2129 -0.7546 -1.3374
   57CHL1    O3 6627   3.779   2.812  10.502 -0.4425  0.0318 -0.6512
   57CHL1   H3' 6628   3.852   2.751  10.512 -0.3554  0.4652  1.5647
   57CHL1    C4 6629   3.803   2.664  10.304 -1.4560 -0.5905 -0.1593
   57CHL1   H4A 6630   3.891   2.611  10.345  0.4689  2.2197 -0.5290
   57CHL1   H4B 6631   3.708   2.612  10.331 -1.2787 -1.7962 -1.7399
   57CHL1    C5 6632   3.815   2.661  10.154 -0.6349  0.9061  0.0946
   57CHL1    C6 6633   3.730   2.591  10.078  0.3586  0.0593  0.3599
   57CHL1    H6 6634   3.660   2.523  10.127  0.3430 -0.1489  0.0528
   57CHL1    C7 6635   3.739   2.581   9.926 -1.0971  0.3245  0.3066
   57CHL1   H7A 6636   3.739   2.475   9.893 -0.0170  0.1074  0.9852
   57CHL1   H7B 6637   3.654   2.637   9.881  0.5653  1.0629 -2.0242
   57CHL1    C8 6638   3.874   2.639   9.873  0.0771 -0.2116  0.8975
   57CHL1    H8 6639   3.960   2.572   9.893  0.2772  0.3239  1.8852
   57CHL1   C14 6640   3.862   2.665   9.725 -0.1903 -0.0584  0.1704
   57CHL1   H14 6641   3.782   2.742   9.715 -0.4506 -0.3212  0.2377
   57CHL1   C15 6642   3.807   2.549   9.632  0.5198 -0.0029  0.6125
   57CHL1  H15A 6643   3.857   2.452   9.656  1.8503  0.3882 -0.5483
   57CHL1  H15B 6644   3.699   2.545   9.659  0.2584  0.4880 -0.3723
   57CHL1   C16 6645   3.828   2.607   9.490 -0.5920 -0.4357  0.5101
   57CHL1  H16A 6646   3.891   2.531   9.440 -0.9808 -0.1060 -0.4958
   57CHL1  H16B 6647   3.729   2.642   9.452 -1.1050 -0.1399  2.0735
   57CHL1   C17 6648   3.923   2.729   9.507 -0.1289  0.0938  0.1214
   57CHL1   H17 6649   3.863   2.822   9.507  1.1665  0.9402  0.9285
   57CHL1   C13 6650   3.977   2.724   9.650 -0.6773  0.1394  0.1263
   57CHL1   C18 6651   4.095   2.622   9.666 -0.1746  0.2324 -0.3985
   57CHL1  H18A 6652   4.061   2.518   9.646 -2.9409  0.8719  0.7448
   57CHL1  H18B 6653   4.173   2.651   9.593 -0.0364 -0.6592 -0.6044
   57CHL1  H18C 6654   4.136   2.617   9.770  0.5520 -1.4866 -0.7466
   57CHL1   C12 6655   4.011   2.852   9.724 -0.2190 -0.4555  0.1014
   57CHL1  H12A 6656   4.111   2.881   9.684  0.6933 -1.0471  1.8869
   57CHL1  H12B 6657   3.942   2.935   9.696 -0.1597 -0.7091 -0.8291
   57CHL1   C11 6658   4.022   2.845   9.873  0.6309  0.0244  1.0046
   57CHL1  H11A 6659   4.122   2.804   9.898  0.7135 -0.0750  0.5042
   57CHL1  H11B 6660   4.028   2.953   9.900  0.1182  0.3437 -0.1496
   57CHL1    C9 6661   3.909   2.769   9.942  0.1841  0.3166 -0.6401
   57CHL1    H9 6662   3.820   2.835   9.927 -0.1201  0.0562  0.0094
   57CHL1   C10 6663   3.930   2.753  10.097  0.7553  0.0450 -0.1559
   57CHL1   C19 6664   4.059   2.683  10.129 -0.1705 -0.0312  0.0821
   57CHL1  H19A 6665   4.137   2.757  10.102  3.8306 -3.0946  2.7556
   57CHL1  H19B 6666   4.072   2.676  10.239  0.9818  1.8844  0.0872
   57CHL1  H19C 6667   4.074   2.582  10.086  0.4582 -0.7975  2.0271
   57CHL1    C1 6668   3.917   2.893  10.161  0.3654  0.9972  0.4219
   57CHL1   H1A 6669   4.003   2.960  10.139  0.7210  0.2413 -0.4968
   57CHL1   H1B 6670   3.818   2.921  10.120 -0.7663 -2.8301  0.3919
   57CHL1    C2 6671   3.910   2.888  10.321  0.0635 -0.4839  0.3119
   57CHL1   H2A 6672   3.903   2.991  10.361  0.4648 -1.2892  2.5652
   57CHL1   H2B 6673   3.994   2.829  10.364  0.2379 -0.1021  0.4969
   57CHL1   C20 6674   4.013   2.741   9.387  0.1944  0.8412  0.2332
   57CHL1   H20 6675   4.089   2.660   9.388 -0.5679  0.1263  2.4453
   57CHL1   C21 6676   4.089   2.876   9.402  0.1093  0.4416  0.5306
   57CHL1  H21A 6677   4.164   2.875   9.484 -0.0224 -2.5544  0.6716
   57CHL1  H21B 6678   4.013   2.955   9.416 -1.2154 -1.1518  2.7122
   57CHL1  H21C 6679   4.152   2.894   9.312  0.2767  1.1288  0.7847
   57CHL1   C22 6680   3.940   2.726   9.252  0.1736 -0.0285  0.2648
   57CHL1  H22A 6681   3.870   2.640   9.247 -1.9637  1.6170  1.2598
   57CHL1  H22B 6682   3.874   2.816   9.246 -1.0448 -0.9129  0.2889
   57CHL1   C23 6683   4.025   2.707   9.131  0.2253  0.9322  0.1614
   57CHL1  H23A 6684   4.100   2.788   9.142  3.9479 -2.7089  3.5846
   57CHL1  H23B 6685   4.087   2.615   9.132 -0.1479  0.6853  0.9410
   57CHL1   C24 6686   3.951   2.726   8.994 -0.6418 -0.1975 -1.0558
   57CHL1  H24A 6687   3.899   2.631   8.974  1.6907 -1.4360 -1.4238
   57CHL1  H24B 6688   3.880   2.812   8.999 -0.6232 -0.2663  0.4054
   57CHL1   C25 6689   4.045   2.745   8.869  0.0520  0.2193 -0.1033
   57CHL1   H25 6690   4.114   2.658   8.862  0.8008  0.8572 -0.6430
   57CHL1   C26 6691   3.960   2.753   8.743  0.1023 -0.1169 -0.3380
   57CHL1  H26A 6692   3.897   2.665   8.719 -1.6152  0.9424  0.1614
   57CHL1  H26B 6693   3.892   2.841   8.733  0.6884  0.4916  0.9388
   57CHL1  H26C 6694   4.021   2.780   8.655  1.4240  0.8971  0.8624
   57CHL1   C27 6695   4.131   2.869   8.889 -0.2000 -0.2308  0.3352
   57CHL1  H27A 6696   4.185   2.894   8.795  3.9289 -0.5237  2.5316
   57CHL1  H27B 6697   4.065   2.951   8.924 -0.0257  0.5909 -1.1966
   57CHL1  H27C 6698   4.201   2.842   8.971  0.0779  0.2905  0.2723
   58CHL1    C3 6699   6.037   1.056   9.999 -0.3725  0.0527  0.6193
   58CHL1    H3 6700   5.998   0.963   9.954  0.1643  0.6916 -1.2366
   58CHL1    O3 6701   6.049   1.053  10.138 -0.2405  0.2811 -0.3636
   58CHL1   H3' 6702   6.104   1.129  10.156  0.0162  0.1031 -0.3924
   58CHL1    C4 6703   6.179   1.069   9.941 -0.4952 -0.4375 -0.0859
   58CHL1   H4A 6704   6.226   1.159   9.986  0.4224 -0.5563 -0.7972
   58CHL1   H4B 6705   6.231   0.973   9.958  0.4758  0.1758  0.4367
   58CHL1    C5 6706   6.187   1.101   9.792  0.4336  0.7618 -0.0186
   58CHL1    C6 6707   6.268   1.031   9.722  0.1810 -0.3187 -0.6411
   58CHL1    H6 6708   6.338   0.958   9.766 -0.6650 -2.3434 -2.5343
   58CHL1    C7 6709   6.267   1.044   9.574 -1.1386  0.0142 -0.0449
   58CHL1   H7A 6710   6.370   1.041   9.534 -1.9322  1.4834 -2.2700
   58CHL1   H7B 6711   6.222   0.953   9.529 -0.4534  0.1056 -0.9090
   58CHL1    C8 6712   6.212   1.184   9.519  0.2766  0.5134 -0.0081
   58CHL1    H8 6713   6.274   1.268   9.556  0.1110  1.1533 -1.1527
   58CHL1   C14 6714   6.200   1.188   9.372  0.2220  0.0118  0.1784
   58CHL1   H14 6715   6.123   1.110   9.351 -0.6205  1.0320 -0.6051
   58CHL1   C15 6716   6.324   1.156   9.289 -0.5241  0.3213  0.0838
   58CHL1  H15A 6717   6.408   1.199   9.348  0.4967 -0.3660 -0.8438
   58CHL1  H15B 6718   6.348   1.048   9.277 -1.9425  0.2447 -2.4584
   58CHL1   C16 6719   6.304   1.222   9.154  0.3938  0.6360 -0.0957
   58CHL1  H16A 6720   6.381   1.302   9.155  0.5907  0.4580  1.5813
   58CHL1  H16B 6721   6.327   1.154   9.069  1.6413  0.0393  0.6998
   58CHL1   C17 6722   6.165   1.278   9.163  0.6007 -0.6396 -0.2733
   58CHL1   H17 6723   6.095   1.195   9.137 -0.1769  0.4665 -1.7840
   58CHL1   C13 6724   6.138   1.310   9.312 -0.2813  0.0622  0.4644
   58CHL1   C18 6725   6.221   1.435   9.353  0.0710  0.7275 -0.0111
   58CHL1  H18A 6726   6.176   1.524   9.303  0.4467  1.2810  0.6304
   58CHL1  H18B 6727   6.219   1.457   9.462 -0.8812  1.1857 -0.1100
   58CHL1  H18C 6728   6.326   1.439   9.318  0.8402  1.2240  2.2776
   58CHL1   C12 6729   5.993   1.317   9.356  0.4046 -0.3773  0.4215
   58CHL1  H12A 6730   5.949   1.412   9.319 -1.6506 -1.2589  0.5039
   58CHL1  H12B 6731   5.937   1.238   9.301 -1.0767 -0.2792  1.7526
   58CHL1   C11 6732   5.988   1.312   9.510 -0.8554 -0.4831  0.3252
   58CHL1  H11A 6733   6.019   1.412   9.548 -1.1654  0.1780 -1.1432
   58CHL1  H11B 6734   5.879   1.306   9.532 -0.4494 -0.1356  2.5763
   58CHL1    C9 6735   6.073   1.202   9.578 -0.5906  0.7687  0.6849
   58CHL1    H9 6736   6.018   1.106   9.564 -4.1413  2.7047  0.8062
   58CHL1   C10 6737   6.085   1.212   9.733 -0.1095  0.5641 -0.1632
   58CHL1   C19 6738   6.135   1.350   9.776  0.6374  0.4851  0.0259
   58CHL1  H19A 6739   6.168   1.349   9.882 -2.3473  0.0636  0.9850
   58CHL1  H19B 6740   6.206   1.401   9.707  0.0163  1.0558 -0.2018
   58CHL1  H19C 6741   6.051   1.423   9.781  1.7189  1.8163 -0.7465
   58CHL1    C1 6742   5.948   1.190   9.809 -0.3151  1.1534  0.4281
   58CHL1   H1A 6743   5.887   1.283   9.797 -1.2896  0.6146  1.1546
   58CHL1   H1B 6744   5.879   1.119   9.758  0.0605  1.3767 -0.4012
   58CHL1    C2 6745   5.954   1.178   9.959  0.6138  0.5234 -0.1820
   58CHL1   H2A 6746   5.852   1.149   9.994  0.1987  1.9044 -0.2292
   58CHL1   H2B 6747   5.999   1.267  10.008  1.6998 -0.2388  0.2147
   58CHL1   C20 6748   6.113   1.379   9.056 -0.4835  0.6986 -0.2439
   58CHL1   H20 6749   6.036   1.445   9.101 -1.2083 -1.2299  1.3974
   58CHL1   C21 6750   6.049   1.297   8.938 -1.1214 -0.6982  0.3832
   58CHL1  H21A 6751   6.026   1.360   8.849 -1.4045 -0.7361  0.4273
   58CHL1  H21B 6752   5.959   1.246   8.979 -1.1805 -0.6091  0.3664
   58CHL1  H21C 6753   6.121   1.231   8.887 -3.8195 -1.0754 -3.1704
   58CHL1   C22 6754   6.220   1.479   9.010  1.0745  0.1179 -1.1307
   58CHL1  H22A 6755   6.272   1.525   9.097  0.4648  0.9715 -1.2158
   58CHL1  H22B 6756   6.298   1.423   8.955  1.3343  1.3900 -2.0783
   58CHL1   C23 6757   6.164   1.590   8.924  0.0751 -0.1675 -0.1976
   58CHL1  H23A 6758   6.133   1.552   8.825 -1.4679  1.8384 -0.5229
   58CHL1  H23B 6759   6.070   1.638   8.959  0.2227 -0.8538  1.1932
   58CHL1   C24 6760   6.278   1.692   8.911  0.2987  0.8517  0.1355
   58CHL1  H24A 6761   6.323   1.712   9.011  1.8515  0.1225 -0.3999
   58CHL1  H24B 6762   6.356   1.656   8.840  0.7755 -1.1811  1.6574
   58CHL1   C25 6763   6.244   1.830   8.851  0.0447 -0.1209  0.3439
   58CHL1   H25 6764   6.200   1.893   8.930  3.5598  2.3318  0.4912
   58CHL1   C26 6765   6.371   1.905   8.803  0.2051 -0.1442 -0.0365
   58CHL1  H26A 6766   6.409   1.854   8.712  0.6476  0.0729  0.0280
   58CHL1  H26B 6767   6.342   2.008   8.770 -0.0639 -1.1304 -3.0564
   58CHL1  H26C 6768   6.448   1.902   8.882 -2.0370  0.4399  2.2459
   58CHL1   C27 6769   6.147   1.818   8.727 -0.3632 -0.1522  0.0955
   58CHL1  H27A 6770   6.201   1.759   8.650  1.4209 -0.4291  1.5417
   58CHL1  H27B 6771   6.052   1.771   8.760  0.6861 -2.0999  0.4320
   58CHL1  H27C 6772   6.126   1.917   8.680  0.6330 -0.0867 -0.2234
   59CHL1    C3 6773   5.877   0.078  10.327 -0.7376  0.0713 -0.1333
   59CHL1    H3 6774   5.891  -0.032  10.323  1.8845  0.2030  3.1727
   59CHL1    O3 6775   5.870   0.122  10.460 -0.3124  0.4910  0.3381
   59CHL1   H3' 6776   5.830   0.045  10.502 -0.7128  1.1308  1.1398
   59CHL1    C4 6777   5.979   0.157  10.242 -0.5325 -0.3401  0.4525
   59CHL1   H4A 6778   5.970   0.263  10.272  0.7503 -0.3831  1.0273
   59CHL1   H4B 6779   6.084   0.135  10.272  0.8396 -0.1898 -3.9708
   59CHL1    C5 6780   5.968   0.128  10.093 -0.0875  0.7743  0.0344
   59CHL1    C6 6781   6.070   0.066  10.025  0.0995 -0.3424 -0.2195
   59CHL1    H6 6782   6.159   0.034  10.080 -0.5336 -1.1443  0.3483
   59CHL1    C7 6783   6.060   0.034   9.878 -0.5576  0.0454  0.5332
   59CHL1   H7A 6784   6.159   0.052   9.831 -0.5461 -1.2970  0.0235
   59CHL1   H7B 6785   6.030  -0.073   9.865  0.9434 -0.6534  2.5314
   59CHL1    C8 6786   5.956   0.122   9.802  0.2736  0.2765 -0.1235
   59CHL1    H8 6787   5.982   0.229   9.815  1.0009 -0.0212  1.0618
   59CHL1   C14 6788   5.947   0.083   9.657 -0.1018 -0.4985  0.6605
   59CHL1   H14 6789   5.909  -0.021   9.643 -1.4331  0.1436 -0.6079
   59CHL1   C15 6790   6.080   0.079   9.579 -0.1277  0.0849 -0.1694
   59CHL1  H15A 6791   6.144   0.163   9.614  0.6473  0.7186 -3.0168
   59CHL1  H15B 6792   6.129  -0.018   9.603  0.2691  0.3580  0.1315
   59CHL1   C16 6793   6.032   0.085   9.433  0.4562  1.1162  0.3919
   59CHL1  H16A 6794   6.082   0.163   9.373  1.0021 -0.2371 -0.9485
   59CHL1  H16B 6795   6.057  -0.005   9.373  1.2104  1.0831  0.7567
   59CHL1   C17 6796   5.874   0.099   9.434 -0.1306  0.0813  0.0198
   59CHL1   H17 6797   5.827  -0.001   9.424  0.5588 -0.0069 -2.8639
   59CHL1   C13 6798   5.840   0.154   9.581  0.2969 -0.1741 -0.3002
   59CHL1   C18 6799   5.881   0.302   9.577 -0.3755 -0.5584  0.6117
   59CHL1  H18A 6800   5.916   0.350   9.670  1.0261  2.5476 -1.4290
   59CHL1  H18B 6801   5.962   0.321   9.503 -3.1677  3.7299 -1.5521
   59CHL1  H18C 6802   5.797   0.364   9.539 -0.9361 -1.1159  0.9286
   59CHL1   C12 6803   5.698   0.127   9.647 -0.4139  0.1809 -0.5391
   59CHL1  H12A 6804   5.630   0.196   9.593  0.3543  0.7751 -0.7608
   59CHL1  H12B 6805   5.662   0.023   9.633 -2.7071  0.5317  2.3408
   59CHL1   C11 6806   5.699   0.166   9.798 -0.2061  0.1235  0.5292
   59CHL1  H11A 6807   5.703   0.277   9.799  1.5896  0.0680  0.7466
   59CHL1  H11B 6808   5.604   0.135   9.848 -0.7104  0.4162 -0.2418
   59CHL1    C9 6809   5.820   0.109   9.876  0.0642  0.7446  0.1206
   59CHL1    H9 6810   5.796   0.001   9.890  2.4095  0.1087 -0.5603
   59CHL1   C10 6811   5.829   0.152  10.027  0.3158 -0.1903  0.4137
   59CHL1   C19 6812   5.804   0.299  10.039 -1.4435 -0.3347 -0.3914
   59CHL1  H19A 6813   5.889   0.352   9.991  0.0783 -2.5527 -0.2051
   59CHL1  H19B 6814   5.706   0.338  10.003 -0.5460  1.6613 -0.7467
   59CHL1  H19C 6815   5.802   0.330  10.145 -1.5266 -1.3708 -0.0864
   59CHL1    C1 6816   5.735   0.068  10.115  0.1235  0.4362 -0.5305
   59CHL1   H1A 6817   5.631   0.079  10.077 -0.5586  1.2865  1.4948
   59CHL1   H1B 6818   5.765  -0.038  10.127 -1.3527 -0.1090 -1.5610
   59CHL1    C2 6819   5.734   0.105  10.273  0.0126  0.3385  0.1604
   59CHL1   H2A 6820   5.654   0.049  10.326  0.3392  1.8710  2.3931
   59CHL1   H2B 6821   5.712   0.214  10.286 -1.1328  0.2348 -0.8133
   59CHL1   C20 6822   5.826   0.179   9.315 -0.0397 -0.3859 -0.3358
   59CHL1   H20 6823   5.870   0.281   9.322 -1.3391  0.1092  1.1181
   59CHL1   C21 6824   5.668   0.189   9.320 -0.4902  0.2121  1.0991
   59CHL1  H21A 6825   5.625   0.245   9.234  0.7466  0.2702  0.5177
   59CHL1  H21B 6826   5.629   0.237   9.412  1.4227  2.9495  0.5326
   59CHL1  H21C 6827   5.628   0.085   9.320 -0.6551  0.2627  3.0092
   59CHL1   C22 6828   5.873   0.121   9.183  0.4141 -0.0667  1.1830
   59CHL1  H22A 6829   5.980   0.094   9.174 -0.3104 -3.0654  1.3223
   59CHL1  H22B 6830   5.815   0.027   9.176  1.6746 -0.7045 -1.2303
   59CHL1   C23 6831   5.832   0.201   9.056 -0.6288 -0.4320 -0.2269
   59CHL1  H23A 6832   5.724   0.224   9.056 -0.6098 -0.1578 -2.4062
   59CHL1  H23B 6833   5.880   0.301   9.066 -2.1004  0.2083  0.5590
   59CHL1   C24 6834   5.875   0.131   8.934 -0.8924 -0.2023  0.0555
   59CHL1  H24A 6835   5.983   0.105   8.927 -0.9776 -0.5218 -0.1116
   59CHL1  H24B 6836   5.813   0.040   8.951  1.9032 -2.1945 -0.0801
   59CHL1   C25 6837   5.852   0.199   8.797  0.2332  0.4889 -0.3592
   59CHL1   H25 6838   5.887   0.136   8.712 -1.1543 -1.8766  0.7865
   59CHL1   C26 6839   5.698   0.207   8.763  0.6826  0.1621  0.1674
   59CHL1  H26A 6840   5.647   0.266   8.842  0.5194 -1.2454  1.1239
   59CHL1  H26B 6841   5.695   0.247   8.659  1.7416 -1.6419 -0.5773
   59CHL1  H26C 6842   5.668   0.101   8.755  1.5107 -0.1326  0.9226
   59CHL1   C27 6843   5.927   0.333   8.791 -0.7238  0.1158 -0.2084
   59CHL1  H27A 6844   6.036   0.324   8.812 -0.6728 -2.2687 -1.3203
   59CHL1  H27B 6845   5.932   0.369   8.686  0.9065 -1.9189 -0.8661
   59CHL1  H27C 6846   5.895   0.409   8.865  1.9962 -0.5035  1.6750
   60CHL1    C3 6847   5.710   6.069  10.363  0.2867 -0.3881  0.0098
   60CHL1    H3 6848   5.696   6.178  10.376 -1.6773 -0.7054  0.7072
   60CHL1    O3 6849   5.740   6.011  10.487  0.0348 -0.0645 -0.0610
   60CHL1   H3' 6850   5.747   5.917  10.474  0.6973  0.0524 -0.5647
   60CHL1    C4 6851   5.576   5.998  10.321  0.3991 -0.3851 -0.3523
   60CHL1   H4A 6852   5.579   5.888  10.333 -0.6163 -0.3547  0.1653
   60CHL1   H4B 6853   5.498   6.027  10.394  1.5275  2.4995 -0.1927
   60CHL1    C5 6854   5.537   6.029  10.175 -0.6587 -0.0601  0.9372
   60CHL1    C6 6855   5.416   6.078  10.137 -0.1590  0.1076  0.5362
   60CHL1    H6 6856   5.339   6.087  10.214 -1.6366 -0.3696 -0.8598
   60CHL1    C7 6857   5.374   6.107   9.998  0.0619 -0.0196 -0.2554
   60CHL1   H7A 6858   5.268   6.077   9.985 -0.6506  2.4799 -0.4060
   60CHL1   H7B 6859   5.376   6.217   9.992 -1.5636 -0.0902 -2.7172
   60CHL1    C8 6860   5.461   6.045   9.898  0.4387  0.1228 -0.7474
   60CHL1    H8 6861   5.436   5.937   9.894  1.6035 -0.3822  3.1266
   60CHL1   C14 6862   5.433   6.109   9.755 -0.1606 -0.2652 -0.1859
   60CHL1   H14 6863   5.454   6.218   9.759  1.1780 -0.5804  3.4491
   60CHL1   C15 6864   5.292   6.089   9.701  0.1202  0.4945 -0.5220
   60CHL1  H15A 6865   5.245   5.989   9.718  2.0269 -0.4067 -0.4811
   60CHL1  H15B 6866   5.220   6.163   9.742  1.8509  2.5250 -1.0974
   60CHL1   C16 6867   5.305   6.117   9.544 -0.1318  0.7663  0.1787
   60CHL1  H16A 6868   5.265   6.027   9.493  1.7594 -1.0590  1.8351
   60CHL1  H16B 6869   5.261   6.216   9.521 -0.9028  0.5411  0.6641
   60CHL1   C17 6870   5.463   6.128   9.522  0.0005 -0.4585  0.6396
   60CHL1   H17 6871   5.478   6.237   9.531  0.1615 -0.3122 -1.2879
   60CHL1   C13 6872   5.524   6.057   9.645 -0.7386 -0.7826  0.1023
   60CHL1   C18 6873   5.507   5.909   9.624 -0.1993  0.8666  0.4191
   60CHL1  H18A 6874   5.551   5.854   9.710 -0.2834  2.9486  1.8391
   60CHL1  H18B 6875   5.401   5.881   9.605  0.1457  0.1362 -0.4333
   60CHL1  H18C 6876   5.558   5.874   9.532 -1.4502 -2.2686  0.8675
   60CHL1   C12 6877   5.673   6.080   9.685  0.2436 -0.0755  0.0264
   60CHL1  H12A 6878   5.737   6.023   9.614  0.6925  0.2658  0.1581
   60CHL1  H12B 6879   5.685   6.190   9.675 -0.6012 -0.1479 -2.0848
   60CHL1   C11 6880   5.715   6.030   9.823 -0.2219 -0.5309 -0.5334
   60CHL1  H11A 6881   5.723   5.919   9.824  0.6872 -0.4646  1.2705
   60CHL1  H11B 6882   5.812   6.077   9.848  0.4466 -1.2980 -1.6602
   60CHL1    C9 6883   5.606   6.061   9.931 -0.1064  0.0361 -1.2215
   60CHL1    H9 6884   5.620   6.171   9.934 -0.6728  0.0866 -0.0767
   60CHL1   C10 6885   5.651   6.001  10.068 -0.5221 -0.5077 -0.1944
   60CHL1   C19 6886   5.660   5.841  10.067 -0.5506  0.1002  0.6961
   60CHL1  H19A 6887   5.627   5.783  10.155  3.8918 -2.2367  0.9224
   60CHL1  H19B 6888   5.609   5.795   9.979  0.2491 -0.1094  0.3427
   60CHL1  H19C 6889   5.764   5.804  10.055 -1.3313 -2.0520  0.2750
   60CHL1    C1 6890   5.787   6.063  10.119  0.5803  0.0232  0.2276
   60CHL1   H1A 6891   5.866   6.035  10.046  0.8241 -0.9051  0.8355
   60CHL1   H1B 6892   5.773   6.172  10.131 -0.0639 -0.0074 -0.1766
   60CHL1    C2 6893   5.819   6.030  10.265  0.2367  0.0471  0.1923
   60CHL1   H2A 6894   5.912   6.086  10.287  1.3756 -0.7346 -2.4601
   60CHL1   H2B 6895   5.841   5.922  10.281 -0.9300 -0.4278 -1.3338
   60CHL1   C20 6896   5.512   6.093   9.373 -0.5009  0.3800 -0.2369
   60CHL1   H20 6897   5.491   5.985   9.359  2.8900 -0.7917  2.8941
   60CHL1   C21 6898   5.660   6.118   9.349  0.4643 -0.3853  0.0252
   60CHL1  H21A 6899   5.689   6.225   9.342  1.1649 -0.4152  2.0553
   60CHL1  H21B 6900   5.688   6.062   9.257 -0.0309  0.9979 -0.9773
   60CHL1  H21C 6901   5.718   6.070   9.431  1.5764 -0.7219 -0.9513
   60CHL1   C22 6902   5.424   6.182   9.272  0.1990 -0.2172 -0.1048
   60CHL1  H22A 6903   5.318   6.156   9.295  0.0733 -0.2186 -0.6956
   60CHL1  H22B 6904   5.444   6.290   9.288 -0.7234 -0.2911  1.6611
   60CHL1   C23 6905   5.438   6.152   9.124  0.0444 -0.1504 -0.2324
   60CHL1  H23A 6906   5.541   6.183   9.093 -0.3982  2.6821  0.9769
   60CHL1  H23B 6907   5.425   6.043   9.107 -1.7783 -0.2839  1.8556
   60CHL1   C24 6908   5.325   6.211   9.042  0.1224 -0.5001 -0.0645
   60CHL1  H24A 6909   5.237   6.143   9.043  0.0226 -0.3746  1.5499
   60CHL1  H24B 6910   5.295   6.312   9.077  2.0503  0.6161 -1.5310
   60CHL1   C25 6911   5.342   6.220   8.890 -0.3094  0.6611  0.3856
   60CHL1   H25 6912   5.434   6.283   8.885  1.4020 -1.6591  1.8838
   60CHL1   C26 6913   5.389   6.090   8.829  0.3966  0.3671 -0.3000
   60CHL1  H26A 6914   5.407   6.105   8.721 -0.0839  2.2274 -0.1368
   60CHL1  H26B 6915   5.486   6.062   8.875  0.1053 -0.7472 -0.3345
   60CHL1  H26C 6916   5.318   6.006   8.848  1.2251 -0.2415  0.1290
   60CHL1   C27 6917   5.229   6.305   8.819  0.4055 -0.7727  0.1338
   60CHL1  H27A 6918   5.262   6.322   8.714  1.4153 -2.1121  0.2147
   60CHL1  H27B 6919   5.136   6.246   8.824  1.7269 -3.0046 -0.7797
   60CHL1  H27C 6920   5.215   6.400   8.874  3.0582 -0.3410  0.1587
   61CHL1    C3 6921   2.392   5.346  10.292 -0.0793  1.1441  0.2649
   61CHL1    H3 6922   2.379   5.236  10.287 -1.9243  1.4098 -1.1416
   61CHL1    O3 6923   2.473   5.378  10.406 -0.1748  0.1162 -0.1892
   61CHL1   H3' 6924   2.428   5.449  10.452  0.7947 -0.1594  1.2174
   61CHL1    C4 6925   2.461   5.393  10.165  0.0754 -0.3478  0.3766
   61CHL1   H4A 6926   2.473   5.503  10.177 -1.9459 -0.1532  0.7698
   61CHL1   H4B 6927   2.563   5.348  10.160 -0.0412 -0.4056 -1.5639
   61CHL1    C5 6928   2.383   5.370  10.035 -0.1221 -0.7754 -0.1944
   61CHL1    C6 6929   2.439   5.306   9.935  0.5565  0.9605  0.5705
   61CHL1    H6 6930   2.547   5.293   9.926  0.4606  0.9813 -0.7037
   61CHL1    C7 6931   2.358   5.281   9.807 -0.9550 -0.4794  0.5003
   61CHL1   H7A 6932   2.423   5.287   9.717 -1.6940 -2.4463 -0.2104
   61CHL1   H7B 6933   2.330   5.173   9.800  2.2896 -1.2869 -1.4081
   61CHL1    C8 6934   2.226   5.359   9.792  0.9671 -0.4583 -0.1195
   61CHL1    H8 6935   2.249   5.466   9.772 -0.6130 -0.5098 -2.4409
   61CHL1   C14 6936   2.150   5.315   9.664 -0.0716 -0.1298  0.7826
   61CHL1   H14 6937   2.137   5.205   9.667  1.5765 -0.3103  2.9672
   61CHL1   C15 6938   2.230   5.352   9.529 -0.7216 -0.0656 -0.4442
   61CHL1  H15A 6939   2.297   5.440   9.544 -1.4648  0.5336 -0.6344
   61CHL1  H15B 6940   2.297   5.264   9.513 -0.0011  0.0458  1.7909
   61CHL1   C16 6941   2.127   5.381   9.418  0.2340  0.2337 -0.2755
   61CHL1  H16A 6942   2.136   5.485   9.379  1.4477 -0.8780 -3.0363
   61CHL1  H16B 6943   2.132   5.315   9.330 -0.2658  1.6861 -1.4142
   61CHL1   C17 6944   1.993   5.360   9.496 -0.0980  0.3326 -0.4515
   61CHL1   H17 6945   1.960   5.254   9.499  1.1073 -0.0041  1.9029
   61CHL1   C13 6946   2.025   5.394   9.649 -0.6570  0.0533 -0.4897
   61CHL1   C18 6947   2.041   5.546   9.657  0.4622 -0.7396  0.5048
   61CHL1  H18A 6948   2.075   5.581   9.757  0.9038 -0.0228  0.1099
   61CHL1  H18B 6949   2.113   5.583   9.581  2.0845  1.3304  2.9230
   61CHL1  H18C 6950   1.943   5.597   9.645 -1.3460 -3.7657  1.7520
   61CHL1   C12 6951   1.931   5.350   9.763  0.5114  0.3466  0.1319
   61CHL1  H12A 6952   1.838   5.410   9.765  0.4925  0.3001  2.2188
   61CHL1  H12B 6953   1.906   5.242   9.761  2.7463 -0.2443  1.6070
   61CHL1   C11 6954   1.991   5.384   9.902 -0.1178  1.3720  0.5755
   61CHL1  H11A 6955   1.981   5.493   9.918  0.9550  1.6796 -0.7305
   61CHL1  H11B 6956   1.944   5.325   9.984  0.3572 -1.0868 -0.8683
   61CHL1    C9 6957   2.146   5.344   9.918  0.7079 -0.5025 -0.5338
   61CHL1    H9 6958   2.147   5.236   9.946  0.0055  0.0774  1.8333
   61CHL1   C10 6959   2.229   5.409  10.042 -0.1195 -0.2322  0.3079
   61CHL1   C19 6960   2.207   5.565  10.034 -0.5131  0.0532  0.0215
   61CHL1  H19A 6961   2.231   5.586   9.927 -0.2098  1.6893  0.3932
   61CHL1  H19B 6962   2.101   5.594  10.051 -0.4719 -0.4264  1.1038
   61CHL1  H19C 6963   2.278   5.619  10.099 -1.1201 -0.0692  0.7968
   61CHL1    C1 6964   2.169   5.372  10.175 -0.0207  1.1225  0.2656
   61CHL1   H1A 6965   2.071   5.423  10.175 -0.9540 -0.6347 -0.1066
   61CHL1   H1B 6966   2.146   5.264  10.162  4.2195  0.2313 -0.6619
   61CHL1    C2 6967   2.244   5.400  10.308  0.1264  0.3983  0.1793
   61CHL1   H2A 6968   2.190   5.351  10.392  0.4446 -0.2016  0.0408
   61CHL1   H2B 6969   2.239   5.505  10.342 -0.8883  0.3622  0.1613
   61CHL1   C20 6970   1.876   5.431   9.424 -0.2789  0.1648  0.3742
   61CHL1   H20 6971   1.893   5.541   9.433 -0.3805  0.2173 -0.0304
   61CHL1   C21 6972   1.746   5.390   9.475 -0.1814  0.1177 -0.0989
   61CHL1  H21A 6973   1.719   5.282   9.463  0.4497 -0.1016  0.4297
   61CHL1  H21B 6974   1.670   5.456   9.428  0.7489 -0.1309 -2.0021
   61CHL1  H21C 6975   1.740   5.409   9.584 -0.0076 -2.3554  0.3844
   61CHL1   C22 6976   1.881   5.403   9.268 -0.0662  0.1049 -0.7840
   61CHL1  H22A 6977   1.982   5.429   9.230  0.2424  1.5259  0.9585
   61CHL1  H22B 6978   1.861   5.294   9.256 -0.5223 -0.1289  1.9069
   61CHL1   C23 6979   1.768   5.473   9.188 -0.7854 -0.1195 -0.0299
   61CHL1  H23A 6980   1.671   5.435   9.227 -0.4303  0.4779  1.4834
   61CHL1  H23B 6981   1.756   5.581   9.212 -1.3979 -0.4354  1.1535
   61CHL1   C24 6982   1.770   5.439   9.038  0.1086  0.3478  0.1999
   61CHL1  H24A 6983   1.772   5.332   9.011  1.2233 -0.0142  1.6362
   61CHL1  H24B 6984   1.682   5.492   8.995 -1.9958 -0.3831  3.3672
   61CHL1   C25 6985   1.895   5.494   8.965 -0.3229 -0.2999 -0.3438
   61CHL1   H25 6986   1.984   5.464   9.024 -0.3680  1.3366  0.6059
   61CHL1   C26 6987   1.909   5.431   8.826 -0.1203  0.1642 -0.2287
   61CHL1  H26A 6988   1.831   5.461   8.753  0.1309  1.6379  0.0924
   61CHL1  H26B 6989   2.004   5.455   8.772 -0.3199  0.8721 -0.2656
   61CHL1  H26C 6990   1.909   5.320   8.833 -3.0643  0.0766 -1.2701
   61CHL1   C27 6991   1.903   5.650   8.959  0.4740  0.5702  0.1611
   61CHL1  H27A 6992   1.999   5.668   8.905  0.8330 -0.0207  0.5907
   61CHL1  H27B 6993   1.812   5.691   8.912 -0.8652 -0.6940  1.5780
   61CHL1  H27C 6994   1.924   5.697   9.058  0.5941  0.7430  0.0526
   62CHL1    C3 6995   3.302   2.238  10.044 -0.0118 -0.0030 -0.2532
   62CHL1    H3 6996   3.372   2.153  10.031 -0.7661 -0.6135 -0.3587
   62CHL1    O3 6997   3.302   2.272  10.180  0.5113  0.0804 -0.0801
   62CHL1   H3' 6998   3.281   2.188  10.221  1.2096 -0.6734 -1.2376
   62CHL1    C4 6999   3.344   2.363   9.966  0.4651 -0.3619 -0.9962
   62CHL1   H4A 7000   3.283   2.450   9.999  0.7147 -0.1349 -1.1347
   62CHL1   H4B 7001   3.451   2.378   9.992  0.1432 -1.2904  0.9347
   62CHL1    C5 7002   3.324   2.344   9.820 -0.1775 -0.2489 -0.7958
   62CHL1    C6 7003   3.432   2.364   9.738 -0.1889 -1.0291  0.1405
   62CHL1    H6 7004   3.526   2.395   9.785 -1.8854  0.0417  2.9688
   62CHL1    C7 7005   3.430   2.357   9.586  0.8209  0.2110  0.2143
   62CHL1   H7A 7006   3.466   2.447   9.532 -0.8990  0.6592 -0.2285
   62CHL1   H7B 7007   3.494   2.275   9.547 -1.2137 -1.0642 -0.5254
   62CHL1    C8 7008   3.282   2.346   9.526 -0.4801  0.1166  0.6252
   62CHL1    H8 7009   3.233   2.446   9.530 -0.6087  0.0717  0.0923
   62CHL1   C14 7010   3.291   2.296   9.380  0.3151 -1.1200  0.2673
   62CHL1   H14 7011   3.339   2.196   9.390  2.6213 -0.3434 -2.2622
   62CHL1   C15 7012   3.374   2.371   9.277 -0.4799 -1.4352  0.4432
   62CHL1  H15A 7013   3.348   2.477   9.296  2.5043 -0.7012  0.6263
   62CHL1  H15B 7014   3.482   2.364   9.301 -0.7114 -0.8086  1.7151
   62CHL1   C16 7015   3.327   2.314   9.144  0.3641  0.7387  0.9451
   62CHL1  H16A 7016   3.307   2.399   9.077  0.3226  0.9569  1.2338
   62CHL1  H16B 7017   3.405   2.250   9.098  0.7349  1.0534  1.1330
   62CHL1   C17 7018   3.201   2.222   9.167 -0.8696  0.0178  0.3492
   62CHL1   H17 7019   3.247   2.123   9.189  2.9240  1.7056  0.5554
   62CHL1   C13 7020   3.157   2.265   9.312 -0.9021  0.1780  0.1891
   62CHL1   C18 7021   3.069   2.394   9.297 -0.3188 -0.1226  0.4766
   62CHL1  H18A 7022   2.965   2.372   9.263 -0.4585  3.5920 -1.7946
   62CHL1  H18B 7023   3.057   2.447   9.393  0.5148  1.4221 -0.2538
   62CHL1  H18C 7024   3.122   2.460   9.225 -1.7334 -1.6685 -2.1080
   62CHL1   C12 7025   3.084   2.156   9.396  0.0815 -0.4332 -1.1381
   62CHL1  H12A 7026   2.986   2.127   9.354 -0.0392  2.1641 -2.7088
   62CHL1  H12B 7027   3.146   2.064   9.405 -0.1521 -0.5153 -0.3085
   62CHL1   C11 7028   3.065   2.211   9.543  0.2651 -0.0619  0.0590
   62CHL1  H11A 7029   2.987   2.290   9.538 -0.2563 -0.3885  2.5873
   62CHL1  H11B 7030   3.010   2.140   9.607  0.7900 -1.0320 -0.5521
   62CHL1    C9 7031   3.203   2.250   9.615  0.2323 -0.6276 -0.3209
   62CHL1    H9 7032   3.271   2.162   9.613 -1.2963 -1.9478  2.2957
   62CHL1   C10 7033   3.187   2.292   9.769  0.0319 -0.4343 -0.2478
   62CHL1   C19 7034   3.075   2.409   9.785 -0.2373 -0.0689  0.2032
   62CHL1  H19A 7035   2.984   2.381   9.727  1.0575 -0.7828 -1.5482
   62CHL1  H19B 7036   3.052   2.415   9.893  0.5623 -3.1409  0.5861
   62CHL1  H19C 7037   3.126   2.500   9.746  1.5476 -1.1526 -0.0308
   62CHL1    C1 7038   3.147   2.168   9.852  0.0824 -0.3657 -0.0401
   62CHL1   H1A 7039   3.043   2.129   9.839 -0.2205 -0.1197  1.5181
   62CHL1   H1B 7040   3.211   2.081   9.826  2.2100  0.3063  2.7340
   62CHL1    C2 7041   3.162   2.186  10.004 -0.3658  0.8331  0.1004
   62CHL1   H2A 7042   3.152   2.094  10.066 -1.7760 -0.3197 -1.7966
   62CHL1   H2B 7043   3.090   2.261  10.042 -1.2537 -0.3176  0.6850
   62CHL1   C20 7044   3.109   2.215   9.047  0.2929  0.7250 -0.1969
   62CHL1   H20 7045   3.053   2.310   9.045 -3.4959 -1.4146 -0.5324
   62CHL1   C21 7046   3.006   2.108   9.077 -0.4673  0.2323 -0.4112
   62CHL1  H21A 7047   2.944   2.096   8.985  1.1461 -1.7117 -1.2742
   62CHL1  H21B 7048   2.952   2.133   9.171 -0.3056 -0.1318 -0.2212
   62CHL1  H21C 7049   3.050   2.010   9.102  0.9008  0.9077 -0.1366
   62CHL1   C22 7050   3.181   2.191   8.911  0.3164 -0.0423 -0.8652
   62CHL1  H22A 7051   3.101   2.188   8.834  0.8834 -0.4805 -1.4404
   62CHL1  H22B 7052   3.242   2.277   8.875  0.3697  0.7349  0.9969
   62CHL1   C23 7053   3.281   2.074   8.889 -0.1386 -0.2015 -1.3375
   62CHL1  H23A 7054   3.371   2.067   8.953 -0.0073 -0.6507 -1.5706
   62CHL1  H23B 7055   3.221   1.986   8.920 -0.9507  0.9252  0.3136
   62CHL1   C24 7056   3.318   2.045   8.746  0.0929 -0.3192  0.2472
   62CHL1  H24A 7057   3.227   2.047   8.683 -0.5361  0.3078  1.1563
   62CHL1  H24B 7058   3.382   2.123   8.699 -1.7141  0.5761 -0.7680
   62CHL1   C25 7059   3.386   1.909   8.717  0.1929  0.8359 -0.8744
   62CHL1   H25 7060   3.323   1.835   8.773  0.2210  0.8923 -0.7676
   62CHL1   C26 7061   3.379   1.856   8.577  0.0235 -0.3070 -0.0589
   62CHL1  H26A 7062   3.390   1.746   8.576 -2.0873 -0.5292 -1.7940
   62CHL1  H26B 7063   3.273   1.871   8.548 -0.1467  1.2303  1.2837
   62CHL1  H26C 7064   3.452   1.905   8.508  0.7041  0.2721  1.0675
   62CHL1   C27 7065   3.530   1.899   8.780  0.9555  0.2613 -0.2003
   62CHL1  H27A 7066   3.592   1.976   8.729  2.8611 -1.8781 -1.1937
   62CHL1  H27B 7067   3.518   1.913   8.890  0.6842 -1.4159 -0.0082
   62CHL1  H27C 7068   3.582   1.801   8.773 -2.7843 -1.8090 -0.3622
   63CHL1    C3 7069   4.689   3.936  10.327  0.5275  0.4541  0.0351
   63CHL1    H3 7070   4.669   4.045  10.323 -0.1463  0.4669  2.5817
   63CHL1    O3 7071   4.682   3.913  10.468 -0.5863 -0.4563 -0.3075
   63CHL1   H3' 7072   4.678   3.818  10.483  0.7856 -1.0962 -3.5623
   63CHL1    C4 7073   4.572   3.866  10.250  0.3409 -0.6398 -0.4874
   63CHL1   H4A 7074   4.582   3.757  10.269  0.7493 -0.5496 -0.1692
   63CHL1   H4B 7075   4.483   3.888  10.313  1.7976 -1.8505  2.1287
   63CHL1    C5 7076   4.577   3.886  10.095  0.3657 -0.2915 -0.4643
   63CHL1    C6 7077   4.473   3.937  10.038  0.4791 -0.4932  0.1832
   63CHL1    H6 7078   4.388   3.963  10.103 -1.1911 -1.7741 -1.4647
   63CHL1    C7 7079   4.469   3.988   9.894 -0.0191  0.1460  0.2280
   63CHL1   H7A 7080   4.374   3.958   9.846  1.7731 -2.5749 -1.7747
   63CHL1   H7B 7081   4.481   4.098   9.905 -1.4121  0.5105 -1.6677
   63CHL1    C8 7082   4.586   3.923   9.815 -0.9517  0.2643  0.3944
   63CHL1    H8 7083   4.575   3.813   9.814  2.3305 -0.1371  1.5936
   63CHL1   C14 7084   4.596   3.976   9.672  0.0730  0.2951  0.3505
   63CHL1   H14 7085   4.616   4.083   9.691 -1.1168  1.0010 -2.0353
   63CHL1   C15 7086   4.465   3.992   9.577  0.2973  0.6930 -0.3598
   63CHL1  H15A 7087   4.403   3.899   9.576  1.0417  0.1932 -0.7989
   63CHL1  H15B 7088   4.399   4.076   9.606 -0.2021 -0.6122  2.5042
   63CHL1   C16 7089   4.527   4.008   9.441 -0.6463  0.1917  1.1651
   63CHL1  H16A 7090   4.506   3.913   9.387 -2.5839  0.5756  1.2002
   63CHL1  H16B 7091   4.485   4.091   9.381  0.5123 -0.0035  0.0528
   63CHL1   C17 7092   4.686   4.010   9.457 -0.0542  1.0492  0.0416
   63CHL1   H17 7093   4.721   4.112   9.486 -1.3001  1.1564  1.2211
   63CHL1   C13 7094   4.712   3.926   9.585 -0.0412  0.5382  0.3880
   63CHL1   C18 7095   4.707   3.781   9.551  0.0521 -0.3231  0.9636
   63CHL1  H18A 7096   4.616   3.753   9.493  1.1626  1.9613 -1.9960
   63CHL1  H18B 7097   4.796   3.738   9.500 -1.2323 -1.2432 -0.5695
   63CHL1  H18C 7098   4.720   3.731   9.649 -0.0576 -1.9267  0.1924
   63CHL1   C12 7099   4.840   3.957   9.665  0.1712  0.2514 -0.1159
   63CHL1  H12A 7100   4.931   3.916   9.617  0.3018  1.5733 -0.9981
   63CHL1  H12B 7101   4.861   4.066   9.669  0.7301  0.1234  0.7176
   63CHL1   C11 7102   4.844   3.894   9.802 -0.4432  0.3011  0.0517
   63CHL1  H11A 7103   4.840   3.784   9.791 -3.3563  0.3462  0.2515
   63CHL1  H11B 7104   4.941   3.920   9.849  1.0449 -0.1611 -2.6531
   63CHL1    C9 7105   4.724   3.939   9.889  0.4194  0.0705  1.0197
   63CHL1    H9 7106   4.740   4.046   9.914 -1.0963  0.0175  2.3349
   63CHL1   C10 7107   4.714   3.869  10.032  0.3311 -0.3268 -0.2470
   63CHL1   C19 7108   4.737   3.720  10.024  0.4198  0.0423 -0.7403
   63CHL1  H19A 7109   4.702   3.666  10.115  0.0755  0.0128 -0.8869
   63CHL1  H19B 7110   4.683   3.663   9.945  0.8813  0.8330 -1.6280
   63CHL1  H19C 7111   4.845   3.697  10.013  0.1296 -2.1666  0.5486
   63CHL1    C1 7112   4.833   3.935  10.119  0.1032  0.3393  0.3339
   63CHL1   H1A 7113   4.931   3.897  10.086 -0.5710  0.2551 -1.6367
   63CHL1   H1B 7114   4.835   4.046  10.114 -1.7827  0.3229 -1.2304
   63CHL1    C2 7115   4.827   3.898  10.265 -0.2203  0.4399  0.3575
   63CHL1   H2A 7116   4.909   3.952  10.317 -1.9201  3.3828  0.0943
   63CHL1   H2B 7117   4.843   3.789  10.270 -0.2310  0.4413  0.4366
   63CHL1   C20 7118   4.750   3.970   9.322 -1.5198  0.1001  0.6867
   63CHL1   H20 7119   4.735   3.861   9.306  2.5833 -0.4671  0.1359
   63CHL1   C21 7120   4.902   3.985   9.337 -0.2247  0.1640  0.9048
   63CHL1  H21A 7121   4.947   3.908   9.403  0.6381 -0.7296 -0.7064
   63CHL1  H21B 7122   4.928   4.083   9.384 -1.3097  0.4810  0.8485
   63CHL1  H21C 7123   4.961   3.977   9.243  0.7811  1.6643  1.3794
   63CHL1   C22 7124   4.696   4.056   9.208  0.2799  0.4176 -0.8606
   63CHL1  H22A 7125   4.588   4.041   9.190 -0.1178  0.1180  1.6913
   63CHL1  H22B 7126   4.720   4.163   9.224  0.3653  0.6423 -2.4036
   63CHL1   C23 7127   4.768   3.996   9.078  0.3836  0.3022  0.0026
   63CHL1  H23A 7128   4.869   4.041   9.071  0.1415  0.6273 -1.5558
   63CHL1  H23B 7129   4.777   3.886   9.095  0.9586  0.2726 -0.5054
   63CHL1   C24 7130   4.686   4.015   8.948 -0.4109 -0.2754  0.0804
   63CHL1  H24A 7131   4.577   3.993   8.956 -1.0594  3.0512  1.0618
   63CHL1  H24B 7132   4.694   4.117   8.907  0.0097 -0.3053  0.0863
   63CHL1   C25 7133   4.749   3.928   8.833 -0.2518 -0.0802  0.0067
   63CHL1   H25 7134   4.762   3.822   8.866 -0.2754 -0.0914 -0.0212
   63CHL1   C26 7135   4.660   3.933   8.706  1.0768 -0.1557  0.2914
   63CHL1  H26A 7136   4.695   3.873   8.620  0.6845  2.4316 -1.7305
   63CHL1  H26B 7137   4.556   3.904   8.735  0.3188 -0.2804 -2.4395
   63CHL1  H26C 7138   4.665   4.040   8.676  1.9134  0.1718  1.5553
   63CHL1   C27 7139   4.894   3.974   8.813 -0.4457 -0.0501 -0.4538
   63CHL1  H27A 7140   4.935   3.929   8.720  1.7165 -0.0995  0.5055
   63CHL1  H27B 7141   4.901   4.083   8.791  1.2156 -0.1755 -0.6104
   63CHL1  H27C 7142   4.957   3.939   8.897  0.8673 -1.3180 -1.9262
   64CHL1    C3 7143   3.679   3.245   9.979  0.5899 -0.3128 -0.2771
   64CHL1    H3 7144   3.579   3.280   9.945 -1.1048 -0.8402  3.7998
   64CHL1    O3 7145   3.677   3.219  10.120  0.1072 -0.3418 -0.1863
   64CHL1   H3' 7146   3.754   3.263  10.156 -0.7769  0.3414  0.9046
   64CHL1    C4 7147   3.743   3.117   9.915  0.1670  0.8846  0.7427
   64CHL1   H4A 7148   3.846   3.105   9.955  0.4932 -0.9261 -0.5327
   64CHL1   H4B 7149   3.684   3.026   9.938  0.5630  0.8447  1.6028
   64CHL1    C5 7150   3.748   3.139   9.761 -0.0423  0.1541  0.1241
   64CHL1    C6 7151   3.682   3.062   9.678 -0.3571 -0.5788  0.0174
   64CHL1    H6 7152   3.639   2.972   9.724  2.3923 -1.7162  0.4457
   64CHL1    C7 7153   3.684   3.073   9.531  0.7602  0.7367  0.1643
   64CHL1   H7A 7154   3.701   2.976   9.481 -0.1818  0.8161 -0.3350
   64CHL1   H7B 7155   3.582   3.106   9.500  0.6626 -1.3047 -1.8716
   64CHL1    C8 7156   3.792   3.167   9.481 -0.1438 -0.1408 -0.5334
   64CHL1    H8 7157   3.883   3.103   9.474  1.4450  1.7649  1.8695
   64CHL1   C14 7158   3.766   3.202   9.334 -1.1688 -0.0241 -0.2651
   64CHL1   H14 7159   3.677   3.269   9.329  0.2421  2.2871  3.6029
   64CHL1   C15 7160   3.737   3.097   9.229  0.0047 -0.6751  0.0797
   64CHL1  H15A 7161   3.804   3.011   9.250 -0.2980 -0.9983 -0.2787
   64CHL1  H15B 7162   3.630   3.070   9.244 -0.4008  1.6812  1.7878
   64CHL1   C16 7163   3.768   3.164   9.100  0.1604  0.2843  0.5996
   64CHL1  H16A 7164   3.836   3.093   9.047 -0.4311  0.9200 -1.0364
   64CHL1  H16B 7165   3.680   3.187   9.038  0.0535 -0.6606  0.3902
   64CHL1   C17 7166   3.835   3.296   9.131 -0.8695  0.1916  0.2878
   64CHL1   H17 7167   3.754   3.370   9.151 -0.4820  0.8755 -0.6691
   64CHL1   C13 7168   3.879   3.289   9.281  0.2329 -0.5047  0.3750
   64CHL1   C18 7169   4.023   3.229   9.301 -0.1950 -0.4047  0.1275
   64CHL1  H18A 7170   4.052   3.205   9.406 -0.2036 -0.5038  0.1057
   64CHL1  H18B 7171   4.023   3.137   9.238  2.2151 -0.6311  0.4127
   64CHL1  H18C 7172   4.095   3.301   9.258  0.7487 -1.1365  0.4641
   64CHL1   C12 7173   3.868   3.425   9.359  0.5814  0.7103  0.6578
   64CHL1  H12A 7174   3.936   3.495   9.307  0.9262  0.7410  1.1425
   64CHL1  H12B 7175   3.762   3.458   9.351 -0.3119 -2.5656 -2.5892
   64CHL1   C11 7176   3.892   3.404   9.506 -0.5040  0.3133 -0.3992
   64CHL1  H11A 7177   3.997   3.384   9.536 -1.6822 -0.2796  3.6019
   64CHL1  H11B 7178   3.870   3.500   9.557  1.4218  0.3014  0.4883
   64CHL1    C9 7179   3.807   3.294   9.565  0.0704 -0.0821  1.1018
   64CHL1    H9 7180   3.702   3.330   9.559 -1.2341 -3.5183  2.1761
   64CHL1   C10 7181   3.834   3.264   9.713 -0.3127 -0.2221  0.6091
   64CHL1   C19 7182   3.982   3.215   9.712  0.1751  0.8140 -0.2436
   64CHL1  H19A 7183   4.014   3.151   9.627  2.7422  2.1086 -0.2865
   64CHL1  H19B 7184   4.041   3.309   9.716  1.8801 -0.2212 -0.5036
   64CHL1  H19C 7185   3.996   3.172   9.813 -1.4138  1.1242  0.1254
   64CHL1    C1 7186   3.807   3.382   9.803  0.6897 -0.0705  0.3007
   64CHL1   H1A 7187   3.882   3.463   9.795 -0.5057  0.9642 -0.5498
   64CHL1   H1B 7188   3.714   3.419   9.753  1.0273  0.9235  0.4028
   64CHL1    C2 7189   3.782   3.355   9.956 -0.2820 -0.0624  0.9041
   64CHL1   H2A 7190   3.751   3.448  10.008 -0.0398  0.2314  0.5297
   64CHL1   H2B 7191   3.878   3.325  10.003  0.0870  0.7528  0.6837
   64CHL1   C20 7192   3.925   3.350   9.023 -0.7616  0.7101 -0.1705
   64CHL1   H20 7193   3.971   3.442   9.063  1.7804  0.5359 -2.5029
   64CHL1   C21 7194   3.842   3.404   8.908 -0.0830 -0.0707 -0.0651
   64CHL1  H21A 7195   3.777   3.327   8.863 -1.7486  0.8570  0.6973
   64CHL1  H21B 7196   3.902   3.440   8.822 -0.0794 -0.4460 -0.2207
   64CHL1  H21C 7197   3.766   3.480   8.937  1.1422 -0.2272  3.8651
   64CHL1   C22 7198   4.026   3.246   8.970 -0.3526  0.0669 -0.3527
   64CHL1  H22A 7199   4.052   3.173   9.050 -2.2328 -1.3979 -1.0423
   64CHL1  H22B 7200   3.980   3.203   8.878 -0.4394 -1.6645  0.4641
   64CHL1   C23 7201   4.153   3.312   8.926  0.2381  0.0346  0.0563
   64CHL1  H23A 7202   4.130   3.389   8.850  1.1817 -1.9379 -2.2700
   64CHL1  H23B 7203   4.203   3.366   9.010 -2.8140  2.4006  0.4971
   64CHL1   C24 7204   4.245   3.214   8.853 -1.1433 -0.7052 -0.3842
   64CHL1  H24A 7205   4.279   3.144   8.932 -3.0618  0.0290  1.1498
   64CHL1  H24B 7206   4.184   3.159   8.777  0.7931 -2.1322 -0.9254
   64CHL1   C25 7207   4.376   3.270   8.789  0.3544 -0.0489  0.1001
   64CHL1   H25 7208   4.349   3.326   8.697 -1.3885 -0.3976  0.3863
   64CHL1   C26 7209   4.457   3.364   8.876 -0.3272  0.3696 -0.1671
   64CHL1  H26A 7210   4.489   3.306   8.965  0.7997  0.3151 -0.5941
   64CHL1  H26B 7211   4.543   3.413   8.826 -1.3814  1.6115 -0.8010
   64CHL1  H26C 7212   4.390   3.451   8.894 -1.3346  0.0644 -2.2378
   64CHL1   C27 7213   4.462   3.156   8.737 -0.3289  0.2825 -0.4673
   64CHL1  H27A 7214   4.557   3.191   8.691  1.4722 -2.6904  0.8139
   64CHL1  H27B 7215   4.492   3.086   8.817 -1.4495 -0.0495 -0.3235
   64CHL1  H27C 7216   4.404   3.097   8.662 -0.1477 -0.1614 -0.2595
   65CHL1    C3 7217   6.303   0.424  10.123  0.6982 -0.6172  0.1363
   65CHL1    H3 7218   6.308   0.313  10.112  0.8876 -0.6201  0.2440
   65CHL1    O3 7219   6.282   0.457  10.265 -0.2526  0.5500 -0.3145
   65CHL1   H3' 7220   6.359   0.423  10.311 -0.9089 -1.8572 -0.9189
   65CHL1    C4 7221   6.434   0.481  10.065 -0.5052 -0.1307 -0.5228
   65CHL1   H4A 7222   6.436   0.590  10.087 -1.7491 -0.3768  0.8996
   65CHL1   H4B 7223   6.513   0.431  10.125 -0.2783  0.2087 -0.5407
   65CHL1    C5 7224   6.450   0.461   9.916 -0.4682  0.2742 -0.1598
   65CHL1    C6 7225   6.562   0.410   9.861  0.2782  0.0814 -0.8826
   65CHL1    H6 7226   6.638   0.373   9.932 -1.5765 -2.5554 -0.1675
   65CHL1    C7 7227   6.583   0.391   9.719 -0.7825 -0.6221  0.6135
   65CHL1   H7A 7228   6.686   0.406   9.680 -1.9007  2.2379 -1.4574
   65CHL1   H7B 7229   6.556   0.287   9.693 -1.1386 -0.4525  0.3039
   65CHL1    C8 7230   6.475   0.455   9.625  0.5945 -0.6796 -0.4614
   65CHL1    H8 7231   6.495   0.564   9.617  2.3588 -0.8358  1.4398
   65CHL1   C14 7232   6.482   0.391   9.484  1.0744  0.2651  0.2315
   65CHL1   H14 7233   6.464   0.282   9.501  0.8949  0.0680 -1.1826
   65CHL1   C15 7234   6.617   0.401   9.406 -0.3027 -0.4710 -0.0560
   65CHL1  H15A 7235   6.661   0.503   9.415 -2.3353  0.5099 -0.8232
   65CHL1  H15B 7236   6.681   0.325   9.455  1.4993  0.1763 -1.3357
   65CHL1   C16 7237   6.569   0.364   9.261 -0.0362  0.3358 -0.2610
   65CHL1  H16A 7238   6.606   0.441   9.190  0.1919 -0.7332 -1.3041
   65CHL1  H16B 7239   6.614   0.267   9.229  1.0066  0.9755 -0.7619
   65CHL1   C17 7240   6.414   0.367   9.253  0.5324  0.2432 -0.5794
   65CHL1   H17 7241   6.376   0.264   9.271 -2.3461  1.3922  0.2782
   65CHL1   C13 7242   6.371   0.442   9.388  0.6949 -0.4541 -0.2060
   65CHL1   C18 7243   6.390   0.599   9.361 -0.1752  0.4724  0.8843
   65CHL1  H18A 7244   6.363   0.652   9.455 -1.1564 -1.9353  2.0004
   65CHL1  H18B 7245   6.498   0.623   9.349 -0.0413 -1.4743 -2.3008
   65CHL1  H18C 7246   6.333   0.633   9.273  0.6537  1.1274  0.5948
   65CHL1   C12 7247   6.232   0.422   9.456  0.0554 -0.0513  0.0322
   65CHL1  H12A 7248   6.158   0.472   9.390 -1.1431  1.4872  2.4434
   65CHL1  H12B 7249   6.215   0.313   9.465 -1.4090  0.2971  1.9010
   65CHL1   C11 7250   6.230   0.501   9.588 -0.0430  0.2848 -0.1428
   65CHL1  H11A 7251   6.221   0.612   9.586  1.2147  0.4772  2.8691
   65CHL1  H11B 7252   6.134   0.466   9.630  0.5316 -2.7527 -1.2367
   65CHL1    C9 7253   6.338   0.446   9.688  0.0368  0.6610 -0.9649
   65CHL1    H9 7254   6.320   0.337   9.703  1.2971  0.4922 -0.5311
   65CHL1   C10 7255   6.323   0.501   9.834  0.0141 -0.2292  0.0299
   65CHL1   C19 7256   6.325   0.649   9.828  0.1483  0.2626 -0.4546
   65CHL1  H19A 7257   6.226   0.670   9.781 -0.1444 -2.5062 -1.1124
   65CHL1  H19B 7258   6.342   0.708   9.921 -0.0219  0.6463 -0.6671
   65CHL1  H19C 7259   6.403   0.680   9.756  0.5219 -1.8077 -0.9687
   65CHL1    C1 7260   6.198   0.442   9.901  0.2522  0.0482 -0.2295
   65CHL1   H1A 7261   6.106   0.478   9.850  0.3468  0.7899  0.1072
   65CHL1   H1B 7262   6.195   0.332   9.891  3.0416 -0.0542 -0.2637
   65CHL1    C2 7263   6.183   0.476  10.046 -0.1761 -0.0504 -0.6529
   65CHL1   H2A 7264   6.097   0.420  10.089  0.5230 -0.8420 -0.2561
   65CHL1   H2B 7265   6.168   0.583  10.072  2.4790  0.0796  0.5567
   65CHL1   C20 7266   6.354   0.398   9.115  0.3121  0.4458  0.4561
   65CHL1   H20 7267   6.380   0.502   9.087  2.5365  0.2051  1.5045
   65CHL1   C21 7268   6.197   0.374   9.108  0.1028  0.6127  0.7438
   65CHL1  H21A 7269   6.169   0.390   9.002  1.4307 -0.3159  0.2319
   65CHL1  H21B 7270   6.146   0.447   9.175  1.1596  0.6218  1.5519
   65CHL1  H21C 7271   6.156   0.276   9.138 -0.9015  0.7548 -0.1277
   65CHL1   C22 7272   6.424   0.314   9.002 -0.0316  0.2100  0.1862
   65CHL1  H22A 7273   6.533   0.329   9.020 -0.4478  0.2339  2.7441
   65CHL1  H22B 7274   6.397   0.207   9.016  2.8770 -1.1637 -3.7250
   65CHL1   C23 7275   6.385   0.340   8.856 -0.9865  0.0623  0.7548
   65CHL1  H23A 7276   6.287   0.294   8.831 -1.2229  0.6974  0.4867
   65CHL1  H23B 7277   6.367   0.449   8.844  0.6006  0.2239 -0.3409
   65CHL1   C24 7278   6.502   0.296   8.753 -0.4082  0.0599  0.1269
   65CHL1  H24A 7279   6.598   0.333   8.795 -0.5103  1.6379 -0.9800
   65CHL1  H24B 7280   6.512   0.186   8.749  0.6335  0.2028 -1.5270
   65CHL1   C25 7281   6.493   0.336   8.610  0.3004 -0.8983 -0.5040
   65CHL1   H25 7282   6.397   0.301   8.567 -0.1739 -0.9714  0.5783
   65CHL1   C26 7283   6.497   0.486   8.585 -0.4110 -0.4525  1.1144
   65CHL1  H26A 7284   6.507   0.522   8.480 -1.3527  1.2067  1.5790
   65CHL1  H26B 7285   6.411   0.535   8.634 -0.1640 -0.5210  1.6217
   65CHL1  H26C 7286   6.584   0.516   8.647 -1.0275 -1.0574  2.2962
   65CHL1   C27 7287   6.611   0.270   8.537  0.2313  0.9566  0.0400
   65CHL1  H27A 7288   6.608   0.280   8.426  0.4465  1.1236  0.0464
   65CHL1  H27B 7289   6.703   0.312   8.584 -0.3704 -1.0048  3.0851
   65CHL1  H27C 7290   6.602   0.160   8.548 -1.9990  1.1540  0.3513
   66CHL1    C3 7291   4.476   5.278  10.674 -0.0428  0.4416 -0.3406
   66CHL1    H3 7292   4.395   5.334  10.725 -1.2025 -3.2511  2.0743
   66CHL1    O3 7293   4.527   5.186  10.765 -0.0541  0.1979  0.3642
   66CHL1   H3' 7294   4.451   5.141  10.802 -1.0743  2.5232  1.1625
   66CHL1    C4 7295   4.419   5.196  10.550 -0.0085  0.1350 -1.0317
   66CHL1   H4A 7296   4.500   5.131  10.512  1.9849  1.9885 -0.0582
   66CHL1   H4B 7297   4.340   5.128  10.589 -0.0078  0.9309  0.3934
   66CHL1    C5 7298   4.366   5.290  10.447  0.1306  0.0097  0.5441
   66CHL1    C6 7299   4.243   5.283  10.399 -0.1695  0.0662  0.4969
   66CHL1    H6 7300   4.168   5.215  10.441  1.4880 -1.7483  0.5879
   66CHL1    C7 7301   4.186   5.368  10.289 -0.0247 -0.1452 -0.1742
   66CHL1   H7A 7302   4.126   5.306  10.219  1.2932  0.2200 -1.6678
   66CHL1   H7B 7303   4.119   5.435  10.348 -1.3604 -0.9542 -0.7432
   66CHL1    C8 7304   4.299   5.437  10.207 -1.0446  0.0177  0.9047
   66CHL1    H8 7305   4.354   5.360  10.150 -0.0777  0.3042  1.4308
   66CHL1   C14 7306   4.248   5.534  10.105 -0.4538  0.2017 -0.5220
   66CHL1   H14 7307   4.204   5.617  10.166  0.1651 -0.0611  0.2932
   66CHL1   C15 7308   4.136   5.497  10.017  0.5221  0.5827 -0.8985
   66CHL1  H15A 7309   4.145   5.392   9.980  0.2073  0.0730  0.4536
   66CHL1  H15B 7310   4.046   5.501  10.082  0.3999 -2.4198 -0.8156
   66CHL1   C16 7311   4.131   5.598   9.908 -0.2283  0.2231 -0.1574
   66CHL1  H16A 7312   4.135   5.553   9.806  0.4414  0.7665 -0.3729
   66CHL1  H16B 7313   4.038   5.659   9.909 -2.5241 -3.1094  0.1998
   66CHL1   C17 7314   4.261   5.690   9.934 -0.0109  0.5867 -0.6555
   66CHL1   H17 7315   4.220   5.774   9.994  3.5979  0.4529  2.1395
   66CHL1   C13 7316   4.352   5.611  10.030 -0.4035 -0.6578  0.1983
   66CHL1   C18 7317   4.429   5.514   9.938  0.0632  0.1444  0.1203
   66CHL1  H18A 7318   4.501   5.568   9.873  0.2085 -0.9096 -0.6006
   66CHL1  H18B 7319   4.489   5.445  10.001 -0.3218 -1.1783 -0.9537
   66CHL1  H18C 7320   4.353   5.456   9.882 -1.0885 -0.1604  1.9369
   66CHL1   C12 7321   4.437   5.694  10.129 -0.2130 -0.2827 -0.9961
   66CHL1  H12A 7322   4.529   5.732  10.079  1.0946 -1.0110  0.7687
   66CHL1  H12B 7323   4.371   5.775  10.168 -0.5209 -0.7943 -0.4530
   66CHL1   C11 7324   4.500   5.604  10.244 -0.2112 -0.0987 -0.4278
   66CHL1  H11A 7325   4.574   5.545  10.186 -0.7478 -1.0656 -0.1323
   66CHL1  H11B 7326   4.551   5.668  10.318 -0.5947 -1.1544  0.7614
   66CHL1    C9 7327   4.401   5.506  10.307 -0.5877  0.2533  0.0066
   66CHL1    H9 7328   4.336   5.565  10.375  0.3189  0.7754  0.4183
   66CHL1   C10 7329   4.467   5.395  10.393  0.4591 -0.0670 -0.2262
   66CHL1   C19 7330   4.574   5.322  10.313  0.3440  0.3058 -0.2433
   66CHL1  H19A 7331   4.526   5.278  10.223 -0.6406  1.6710 -0.4064
   66CHL1  H19B 7332   4.651   5.388  10.268 -1.6035  1.1019 -2.5106
   66CHL1  H19C 7333   4.633   5.248  10.371  0.3941  0.8713  0.4343
   66CHL1    C1 7334   4.532   5.466  10.512 -0.6776 -0.4393  0.0328
   66CHL1   H1A 7335   4.616   5.522  10.465 -2.5439 -0.2813 -3.2539
   66CHL1   H1B 7336   4.465   5.542  10.556  1.4221  1.2364  0.3923
   66CHL1    C2 7337   4.589   5.372  10.624 -0.0937  0.0510  0.2616
   66CHL1   H2A 7338   4.635   5.428  10.708  2.0699 -1.3315  0.0515
   66CHL1   H2B 7339   4.667   5.313  10.571 -0.2043  0.5624 -0.4713
   66CHL1   C20 7340   4.326   5.745   9.802  0.2210  0.0454 -0.3580
   66CHL1   H20 7341   4.377   5.668   9.741  1.2318  1.5707 -1.4874
   66CHL1   C21 7342   4.436   5.857   9.823 -0.1708  0.3817 -0.3871
   66CHL1  H21A 7343   4.400   5.941   9.885  0.0373  1.0063 -1.1039
   66CHL1  H21B 7344   4.456   5.905   9.725  2.7435  1.7632  0.8315
   66CHL1  H21C 7345   4.535   5.821   9.856 -0.7663 -1.8980 -0.9629
   66CHL1   C22 7346   4.215   5.797   9.708 -0.0592 -0.6678 -0.1606
   66CHL1  H22A 7347   4.264   5.810   9.609  0.3032 -3.8629 -0.4491
   66CHL1  H22B 7348   4.136   5.724   9.680  0.6840 -1.6067  0.1559
   66CHL1   C23 7349   4.147   5.927   9.757  0.9298 -0.4396 -0.1715
   66CHL1  H23A 7350   4.131   5.913   9.866 -0.7177  1.8264 -0.0901
   66CHL1  H23B 7351   4.202   6.024   9.754 -2.1035  1.3140 -0.7820
   66CHL1   C24 7352   4.011   5.947   9.690 -0.2040  0.0066 -0.2888
   66CHL1  H24A 7353   3.958   5.862   9.736  2.0727 -1.3970 -0.1658
   66CHL1  H24B 7354   3.961   6.038   9.729  0.4595  1.1682 -2.0945
   66CHL1   C25 7355   4.003   5.934   9.532  0.3527  0.2592  0.2839
   66CHL1   H25 7356   4.045   5.835   9.502 -0.6785 -0.2777  0.5814
   66CHL1   C26 7357   3.853   5.925   9.484 -0.3479  0.4181  0.0617
   66CHL1  H26A 7358   3.809   6.025   9.505  1.0831  1.1729 -0.4745
   66CHL1  H26B 7359   3.852   5.901   9.375 -1.5076  1.0087 -0.0640
   66CHL1  H26C 7360   3.804   5.845   9.544  2.3914  0.1036  1.9909
   66CHL1   C27 7361   4.087   6.038   9.464 -0.4530 -0.3778 -0.6709
   66CHL1  H27A 7362   4.189   6.063   9.502  0.4581 -0.0206 -3.2549
   66CHL1  H27B 7363   4.089   6.011   9.356 -0.5460  2.5539 -1.4498
   66CHL1  H27C 7364   4.036   6.136   9.459 -0.1539 -0.2194 -0.6438
   67CHL1    C3 7365   1.862   5.775  10.180  0.0031 -0.0042  0.0847
   67CHL1    H3 7366   1.958   5.800  10.130 -0.4500 -0.3290 -0.9484
   67CHL1    O3 7367   1.878   5.758  10.318 -0.2704  0.6714 -0.1804
   67CHL1   H3' 7368   1.789   5.729  10.338  0.5578 -1.3599  0.6618
   67CHL1    C4 7369   1.763   5.893  10.164 -0.6304  0.3703 -1.0475
   67CHL1   H4A 7370   1.666   5.882  10.215 -1.6832  2.8201 -2.4428
   67CHL1   H4B 7371   1.823   5.979  10.200 -1.6569  0.8965 -0.6073
   67CHL1    C5 7372   1.733   5.916  10.018 -0.2490  0.1351 -1.1811
   67CHL1    C6 7373   1.760   6.033   9.952  0.5376  0.1623 -0.3877
   67CHL1    H6 7374   1.799   6.128   9.991  0.1817 -0.5579  1.7326
   67CHL1    C7 7375   1.704   6.059   9.818  0.8904 -0.4982  1.0691
   67CHL1   H7A 7376   1.634   6.145   9.814  0.7475 -0.6964 -1.5258
   67CHL1   H7B 7377   1.790   6.071   9.749 -0.1627 -0.3624 -0.2304
   67CHL1    C8 7378   1.619   5.946   9.751  0.8696 -0.9029  0.5913
   67CHL1    H8 7379   1.512   5.942   9.782 -0.0440 -0.7473 -2.4134
   67CHL1   C14 7380   1.616   5.954   9.593  0.4698 -0.0611 -0.4749
   67CHL1   H14 7381   1.719   5.928   9.559  0.9228  1.4771 -0.3413
   67CHL1   C15 7382   1.591   6.087   9.530 -0.3003 -0.0107 -0.0323
   67CHL1  H15A 7383   1.507   6.139   9.581 -1.4325 -1.4382 -0.4207
   67CHL1  H15B 7384   1.682   6.150   9.539 -0.6597  0.8063 -1.7278
   67CHL1   C16 7385   1.535   6.053   9.391  0.4987  1.3619 -0.1345
   67CHL1  H16A 7386   1.429   6.086   9.391  0.1969  0.4626  1.5145
   67CHL1  H16B 7387   1.595   6.096   9.307  1.1407  0.6449 -0.0467
   67CHL1   C17 7388   1.542   5.900   9.380  0.2336 -0.5542 -0.5628
   67CHL1   H17 7389   1.645   5.871   9.350  0.6472 -0.0899  0.3738
   67CHL1   C13 7390   1.528   5.850   9.531  0.0633 -0.4054 -0.2772
   67CHL1   C18 7391   1.377   5.861   9.570  0.3595  0.0527  0.1143
   67CHL1  H18A 7392   1.370   5.842   9.679 -1.6332 -0.8973 -0.1476
   67CHL1  H18B 7393   1.336   5.962   9.549 -0.3437 -0.3196 -0.3116
   67CHL1  H18C 7394   1.328   5.777   9.515  2.8246 -1.4746  0.1669
   67CHL1   C12 7395   1.588   5.711   9.567  0.5973 -0.1125  0.3870
   67CHL1  H12A 7396   1.519   5.635   9.522  0.2104  0.4415  0.0349
   67CHL1  H12B 7397   1.689   5.701   9.523  0.3190 -1.3789  0.0177
   67CHL1   C11 7398   1.609   5.692   9.718  0.1411  0.1716 -0.5635
   67CHL1  H11A 7399   1.507   5.682   9.761 -0.8720  0.1698 -2.8949
   67CHL1  H11B 7400   1.665   5.597   9.732  0.3179 -0.1321 -3.0521
   67CHL1    C9 7401   1.677   5.811   9.793  0.3941  0.6740 -0.1170
   67CHL1    H9 7402   1.782   5.816   9.756  0.8781  2.0216  1.3671
   67CHL1   C10 7403   1.687   5.796   9.942 -0.2726 -0.0882  0.1495
   67CHL1   C19 7404   1.542   5.769  10.001 -0.2776 -0.2536 -0.3297
   67CHL1  H19A 7405   1.475   5.847   9.958  0.0520  0.5502  0.6053
   67CHL1  H19B 7406   1.510   5.666   9.974 -0.2860 -0.5520  0.8241
   67CHL1  H19C 7407   1.532   5.778  10.111 -1.2156  2.4846 -0.5961
   67CHL1    C1 7408   1.782   5.669   9.970 -0.5810 -0.1568 -0.4550
   67CHL1   H1A 7409   1.736   5.574   9.934  0.6445 -2.1744  3.0645
   67CHL1   H1B 7410   1.878   5.691   9.918  0.5237  1.2085  2.0685
   67CHL1    C2 7411   1.804   5.645  10.118 -0.1106  0.2352 -0.1461
   67CHL1   H2A 7412   1.873   5.562  10.145 -0.7178 -0.2201  0.0255
   67CHL1   H2B 7413   1.705   5.623  10.165 -0.6398  0.6518 -1.0572
   67CHL1   C20 7414   1.444   5.850   9.272  0.0024  0.0142  0.0557
   67CHL1   H20 7415   1.340   5.870   9.304 -0.9688 -1.2099 -2.1892
   67CHL1   C21 7416   1.453   5.702   9.251 -0.1158  0.3434 -0.0432
   67CHL1  H21A 7417   1.388   5.671   9.167 -3.9842 -0.7196  3.1889
   67CHL1  H21B 7418   1.429   5.639   9.340 -0.5030 -1.0320 -1.1125
   67CHL1  H21C 7419   1.561   5.684   9.230  0.0627  0.4465  0.7664
   67CHL1   C22 7420   1.459   5.921   9.129  0.3302 -0.8895 -0.1207
   67CHL1  H22A 7421   1.369   5.884   9.077 -0.4265  0.7592  0.0095
   67CHL1  H22B 7422   1.444   6.030   9.138 -1.2611 -0.9682 -1.6852
   67CHL1   C23 7423   1.589   5.879   9.049  0.5132  0.1960  0.1177
   67CHL1  H23A 7424   1.665   5.854   9.126 -0.7539  0.5047  1.4986
   67CHL1  H23B 7425   1.562   5.786   8.994  0.4150 -0.3824  1.1304
   67CHL1   C24 7426   1.631   5.990   8.950  0.7110 -0.2590 -0.2841
   67CHL1  H24A 7427   1.664   6.074   9.015 -1.9065 -0.2131  1.0746
   67CHL1  H24B 7428   1.727   5.969   8.899 -0.2593  1.0444 -2.7419
   67CHL1   C25 7429   1.524   6.027   8.854 -0.8973  0.2106 -0.9912
   67CHL1   H25 7430   1.431   6.054   8.909  1.0186 -0.7289  2.8473
   67CHL1   C26 7431   1.559   6.151   8.763 -0.7739  0.6714 -0.8340
   67CHL1  H26A 7432   1.477   6.165   8.690 -1.3849 -1.0721 -0.5068
   67CHL1  H26B 7433   1.569   6.250   8.812  2.1163 -0.4952  1.0821
   67CHL1  H26C 7434   1.655   6.128   8.713 -0.1291  0.9519  0.2558
   67CHL1   C27 7435   1.490   5.911   8.771  0.7299  0.4728 -0.5603
   67CHL1  H27A 7436   1.402   5.948   8.713  0.3452  0.5860  0.0898
   67CHL1  H27B 7437   1.560   5.874   8.694  0.8280  1.3872 -0.9120
   67CHL1  H27C 7438   1.440   5.829   8.827 -1.0529  1.2553 -0.9754
   68CHL1    C3 7439   6.644   6.602  10.035  0.3942  0.1460  0.1680
   68CHL1    H3 7440   6.729   6.672  10.023  1.4046 -1.0363  0.4495
   68CHL1    O3 7441   6.633   6.592  10.182  0.0424 -0.1771 -0.3983
   68CHL1   H3' 7442   6.723   6.579  10.213  0.9281  0.8145 -2.5032
   68CHL1    C4 7443   6.517   6.669   9.967  0.0098  0.2279 -0.1475
   68CHL1   H4A 7444   6.442   6.596  10.004  2.6655 -1.3832  2.3401
   68CHL1   H4B 7445   6.485   6.763  10.016 -0.7838 -0.2741  0.3119
   68CHL1    C5 7446   6.522   6.688   9.817 -0.3288 -0.5374  0.6404
   68CHL1    C6 7447   6.513   6.804   9.753  0.5859 -0.5103  0.5314
   68CHL1    H6 7448   6.493   6.896   9.810  1.0997 -0.0573 -0.0182
   68CHL1    C7 7449   6.515   6.826   9.608  0.1613 -0.2395 -0.3370
   68CHL1   H7A 7450   6.426   6.885   9.578  0.9527 -0.2255 -2.7387
   68CHL1   H7B 7451   6.610   6.881   9.592  0.4633 -0.8688 -0.7147
   68CHL1    C8 7452   6.513   6.695   9.533 -0.4880 -0.0199  0.2658
   68CHL1    H8 7453   6.405   6.672   9.533 -0.4355 -0.3920  2.2445
   68CHL1   C14 7454   6.568   6.712   9.395  0.3842 -0.0778 -0.3011
   68CHL1   H14 7455   6.678   6.727   9.410 -0.1866  0.7215  3.6334
   68CHL1   C15 7456   6.523   6.835   9.318  0.7774  0.3108  0.3392
   68CHL1  H15A 7457   6.412   6.842   9.319  0.9370  3.4542 -0.1197
   68CHL1  H15B 7458   6.564   6.922   9.373  0.5824 -0.5650  1.9251
   68CHL1   C16 7459   6.562   6.808   9.175  0.3800 -0.0479  0.5032
   68CHL1  H16A 7460   6.469   6.827   9.118  0.8645  2.8744  0.6064
   68CHL1  H16B 7461   6.639   6.874   9.130  0.6960 -0.4825  0.4129
   68CHL1   C17 7462   6.602   6.658   9.170 -0.4463  0.7756  0.4244
   68CHL1   H17 7463   6.711   6.647   9.190 -1.1045 -1.5161  3.0229
   68CHL1   C13 7464   6.539   6.598   9.299  0.8732  0.3323  0.2536
   68CHL1   C18 7465   6.389   6.574   9.281  0.2115  0.1159 -0.2854
   68CHL1  H18A 7466   6.333   6.561   9.376  0.6705  1.0961  0.1174
   68CHL1  H18B 7467   6.337   6.656   9.227 -0.1665  0.3985  0.5050
   68CHL1  H18C 7468   6.381   6.490   9.209 -1.2386  0.5394 -0.6310
   68CHL1   C12 7469   6.607   6.471   9.354 -0.0661 -0.2201 -0.5635
   68CHL1  H12A 7470   6.584   6.385   9.287 -1.9708 -0.7050  0.6443
   68CHL1  H12B 7471   6.717   6.479   9.360 -0.0109 -0.1654 -1.6320
   68CHL1   C11 7472   6.566   6.449   9.502 -0.0640 -0.3607  0.2205
   68CHL1  H11A 7473   6.460   6.415   9.493 -1.3129  3.2470  0.6324
   68CHL1  H11B 7474   6.636   6.373   9.543  0.9390  0.0711 -0.6618
   68CHL1    C9 7475   6.584   6.575   9.595  0.8600  0.2036 -0.2917
   68CHL1    H9 7476   6.690   6.605   9.602  0.4542  1.6466 -0.2501
   68CHL1   C10 7477   6.550   6.562   9.748 -0.2635  0.4733  0.4724
   68CHL1   C19 7478   6.420   6.480   9.757 -0.1566 -0.1954  0.1007
   68CHL1  H19A 7479   6.335   6.519   9.696 -0.0963  2.9001  1.8641
   68CHL1  H19B 7480   6.458   6.381   9.725  1.6178  0.9877 -1.5772
   68CHL1  H19C 7481   6.374   6.464   9.857  0.3412 -0.0339  0.3550
   68CHL1    C1 7482   6.666   6.475   9.823 -0.1824 -0.2657 -0.3600
   68CHL1   H1A 7483   6.669   6.374   9.776  0.7864  0.6058 -2.2461
   68CHL1   H1B 7484   6.764   6.521   9.797 -0.4306  0.9107  0.7420
   68CHL1    C2 7485   6.664   6.466   9.972  0.5500  0.1100  0.0489
   68CHL1   H2A 7486   6.752   6.418  10.019  0.4876  1.0349  1.1367
   68CHL1   H2B 7487   6.581   6.401  10.007 -0.4105  1.8274  1.0507
   68CHL1   C20 7488   6.565   6.594   9.041 -0.0367 -0.2434 -0.2108
   68CHL1   H20 7489   6.455   6.599   9.030 -0.1345 -2.0254 -0.0703
   68CHL1   C21 7490   6.604   6.447   9.012  0.1792 -0.5541  0.7635
   68CHL1  H21A 7491   6.713   6.448   9.033  0.2423  2.3308  0.3995
   68CHL1  H21B 7492   6.565   6.416   8.913  1.0072 -2.0358  0.8872
   68CHL1  H21C 7493   6.559   6.384   9.092 -2.0990 -0.2027 -0.2127
   68CHL1   C22 7494   6.614   6.676   8.916 -0.2855 -0.0706  0.3189
   68CHL1  H22A 7495   6.583   6.618   8.826 -2.0305  0.3219  0.6532
   68CHL1  H22B 7496   6.554   6.769   8.905 -1.9591 -0.9319  1.8478
   68CHL1   C23 7497   6.763   6.714   8.907 -0.1083 -0.2773  0.2928
   68CHL1  H23A 7498   6.793   6.784   8.988 -0.4399 -0.3315  0.4618
   68CHL1  H23B 7499   6.828   6.624   8.917  0.3645 -0.0923 -1.0044
   68CHL1   C24 7500   6.801   6.802   8.780 -0.1136 -0.2522 -0.3306
   68CHL1  H24A 7501   6.709   6.863   8.768  1.0781  1.5842 -0.4072
   68CHL1  H24B 7502   6.880   6.870   8.819  0.7797 -1.6456  0.3355
   68CHL1   C25 7503   6.857   6.729   8.656  0.5970 -0.0754 -0.1000
   68CHL1   H25 7504   6.938   6.664   8.695 -1.5769 -3.4422 -0.9099
   68CHL1   C26 7505   6.757   6.638   8.581  0.2976 -0.5210  0.0747
   68CHL1  H26A 7506   6.657   6.683   8.570  0.7192  0.8013  1.5883
   68CHL1  H26B 7507   6.792   6.610   8.479  0.0373  0.3671 -0.2567
   68CHL1  H26C 7508   6.745   6.545   8.641 -0.0181  0.5619  1.7139
   68CHL1   C27 7509   6.908   6.831   8.557 -0.3307 -0.3993 -0.4676
   68CHL1  H27A 7510   6.978   6.899   8.610  1.7070 -1.8791 -1.1879
   68CHL1  H27B 7511   6.972   6.785   8.479 -1.7074 -2.6602 -0.3304
   68CHL1  H27C 7512   6.833   6.896   8.507 -2.0224 -0.7778  1.4799
   69CHL1    C3 7513   5.399   4.982   6.750  0.4629 -0.6738 -0.2461
   69CHL1    H3 7514   5.473   5.064   6.755  0.0545  0.0311 -4.3455
   69CHL1    O3 7515   5.359   4.967   6.617 -0.3891 -0.3655 -0.7704
   69CHL1   H3' 7516   5.293   4.898   6.619 -0.9663  0.2063  1.1586
   69CHL1    C4 7517   5.456   4.854   6.810 -1.6008  0.5291 -0.6090
   69CHL1   H4A 7518   5.378   4.776   6.797 -1.1007  0.0547 -0.8230
   69CHL1   H4B 7519   5.543   4.829   6.745  0.7549  0.5470  2.4154
   69CHL1    C5 7520   5.500   4.854   6.956  0.2305 -0.3366  0.5147
   69CHL1    C6 7521   5.628   4.835   6.994 -0.6303 -0.3309  0.2721
   69CHL1    H6 7522   5.703   4.811   6.918 -2.4476  3.7527 -3.0133
   69CHL1    C7 7523   5.684   4.836   7.132 -0.2669  0.6820  0.6189
   69CHL1   H7A 7524   5.747   4.746   7.153 -0.0244  0.3368 -1.4213
   69CHL1   H7B 7525   5.751   4.923   7.149  1.2980 -0.1769 -0.9410
   69CHL1    C8 7526   5.575   4.851   7.237  0.4335 -0.4849  0.9350
   69CHL1    H8 7527   5.537   4.748   7.251 -2.3334  0.5476  1.3983
   69CHL1   C14 7528   5.623   4.902   7.368 -0.8430 -0.1656 -0.0432
   69CHL1   H14 7529   5.665   5.004   7.353 -1.7357  0.1601 -0.3476
   69CHL1   C15 7530   5.742   4.833   7.434 -0.3650 -0.2450  0.5881
   69CHL1  H15A 7531   5.717   4.727   7.412  1.1793 -0.0307 -2.3729
   69CHL1  H15B 7532   5.845   4.854   7.399 -1.2431  3.5522  0.0641
   69CHL1   C16 7533   5.731   4.851   7.585  0.0743  0.3100 -0.2051
   69CHL1  H16A 7534   5.708   4.750   7.624  1.7669 -0.0569 -0.1109
   69CHL1  H16B 7535   5.812   4.907   7.636  1.0384 -0.3777 -0.9526
   69CHL1   C17 7536   5.600   4.933   7.606 -0.2154 -0.1009  0.3502
   69CHL1   H17 7537   5.626   5.039   7.584  1.4244 -0.7508 -0.9186
   69CHL1   C13 7538   5.519   4.899   7.478  0.2033 -1.1620  0.1043
   69CHL1   C18 7539   5.443   4.768   7.515 -0.2649 -0.8211  0.6843
   69CHL1  H18A 7540   5.357   4.775   7.585 -0.2792  1.6559  0.4719
   69CHL1  H18B 7541   5.404   4.717   7.425  0.0222  0.1975 -0.0282
   69CHL1  H18C 7542   5.516   4.692   7.550  1.1670 -0.3109 -1.0907
   69CHL1   C12 7543   5.411   5.005   7.440  0.7429 -0.5983 -0.2270
   69CHL1  H12A 7544   5.325   5.007   7.510 -0.0486 -1.2093 -1.1563
   69CHL1  H12B 7545   5.452   5.108   7.437  0.6093 -0.5245  0.4510
   69CHL1   C11 7546   5.359   4.972   7.305  0.2724  0.8171  0.0387
   69CHL1  H11A 7547   5.299   4.879   7.304 -1.7520  2.0719  1.0037
   69CHL1  H11B 7548   5.293   5.054   7.270 -3.0913 -1.8479 -0.1152
   69CHL1    C9 7549   5.468   4.947   7.189 -0.7499  0.2804  0.3117
   69CHL1    H9 7550   5.515   5.047   7.181 -2.7973  1.0933 -2.4444
   69CHL1   C10 7551   5.397   4.916   7.050  0.2678 -0.8724  0.3210
   69CHL1   C19 7552   5.306   4.791   7.069  0.0102  0.1160  0.0646
   69CHL1  H19A 7553   5.257   4.754   6.977 -0.7564  0.1758  0.4496
   69CHL1  H19B 7554   5.374   4.711   7.105  0.4760  0.5380  0.1323
   69CHL1  H19C 7555   5.223   4.800   7.142  2.7072  1.1512  3.1720
   69CHL1    C1 7556   5.329   5.043   6.990 -0.2063 -0.0773 -0.0393
   69CHL1   H1A 7557   5.238   5.081   7.042  0.5031 -1.6961  2.4641
   69CHL1   H1B 7558   5.397   5.131   6.999 -0.6975  0.4573 -1.4822
   69CHL1    C2 7559   5.291   5.033   6.840  0.2344 -0.6982 -0.9697
   69CHL1   H2A 7560   5.267   5.134   6.800  2.4256  0.3161  0.1952
   69CHL1   H2B 7561   5.199   4.971   6.830  0.0995 -0.2706 -2.4427
   69CHL1   C20 7562   5.532   4.919   7.748  0.2335 -0.2002  0.9128
   69CHL1   H20 7563   5.506   4.812   7.763 -2.0348  0.3797  1.1637
   69CHL1   C21 7564   5.402   5.001   7.768 -0.1736 -0.5440  0.1612
   69CHL1  H21A 7565   5.421   5.105   7.731  1.3321 -0.6588  0.5639
   69CHL1  H21B 7566   5.355   4.993   7.868 -1.7108  1.3430 -0.3685
   69CHL1  H21C 7567   5.318   4.963   7.706 -0.0961 -1.7529  0.7957
   69CHL1   C22 7568   5.637   4.959   7.853 -0.3900 -0.5182  0.3243
   69CHL1  H22A 7569   5.742   4.926   7.837  0.4801  1.4482  1.8085
   69CHL1  H22B 7570   5.655   5.068   7.843 -1.9981 -0.1769  1.0577
   69CHL1   C23 7571   5.610   4.915   7.999  0.0541 -0.5214 -0.3209
   69CHL1  H23A 7572   5.510   4.937   8.041  0.5084 -0.1482  0.5730
   69CHL1  H23B 7573   5.606   4.804   7.993  1.3242 -0.5735 -0.1992
   69CHL1   C24 7574   5.718   4.970   8.090 -0.6665  0.3909 -0.3172
   69CHL1  H24A 7575   5.815   4.923   8.064 -0.3711  1.8730 -1.9782
   69CHL1  H24B 7576   5.731   5.080   8.083  0.7349  0.2131 -0.5450
   69CHL1   C25 7577   5.694   4.932   8.237 -0.6674 -0.2640 -0.9297
   69CHL1   H25 7578   5.686   4.822   8.242 -0.0153 -0.2515  0.5603
   69CHL1   C26 7579   5.816   4.951   8.329  0.4165  0.3414 -0.3105
   69CHL1  H26A 7580   5.836   5.059   8.347  1.3954  0.7157 -3.2487
   69CHL1  H26B 7581   5.811   4.890   8.422  1.5226  0.0845 -0.4072
   69CHL1  H26C 7582   5.905   4.906   8.280  0.6737 -1.2894  1.5843
   69CHL1   C27 7583   5.574   5.011   8.292 -0.0263 -0.4595  0.8678
   69CHL1  H27A 7584   5.489   5.021   8.221 -0.8791 -1.1175  1.7923
   69CHL1  H27B 7585   5.527   4.975   8.385 -1.5100 -0.7715  0.0070
   69CHL1  H27C 7586   5.610   5.115   8.306 -2.5739  0.6703 -0.7418
   70CHL1    C3 7587   4.535   1.413   7.091  0.6370 -0.7500  0.2168
   70CHL1    H3 7588   4.428   1.413   7.120  0.2375  0.9383 -1.1712
   70CHL1    O3 7589   4.535   1.477   6.965  0.2176 -0.7565  0.6534
   70CHL1   H3' 7590   4.626   1.507   6.959  0.1581 -0.1844  2.3475
   70CHL1    C4 7591   4.599   1.511   7.197  0.1998 -0.0143  0.7217
   70CHL1   H4A 7592   4.702   1.541   7.168 -0.2860  0.0841 -0.9045
   70CHL1   H4B 7593   4.530   1.598   7.199 -0.2725 -0.3693 -0.1014
   70CHL1    C5 7594   4.612   1.456   7.338 -0.0193  0.7530  0.1283
   70CHL1    C6 7595   4.561   1.515   7.449 -0.4868 -0.2759 -0.0987
   70CHL1    H6 7596   4.525   1.619   7.446  2.1093  0.6994  0.9129
   70CHL1    C7 7597   4.583   1.464   7.591 -0.1223  0.3114  0.5012
   70CHL1   H7A 7598   4.613   1.544   7.661  0.7616  0.7473 -0.3608
   70CHL1   H7B 7599   4.488   1.423   7.631 -0.2465  1.2895  1.2350
   70CHL1    C8 7600   4.690   1.348   7.597  0.8111 -0.6866  0.6746
   70CHL1    H8 7601   4.790   1.394   7.582  1.4593 -2.6946 -1.5530
   70CHL1   C14 7602   4.680   1.266   7.727  0.5378 -0.8491 -0.5847
   70CHL1   H14 7603   4.579   1.224   7.739 -0.5126  1.4922 -0.9286
   70CHL1   C15 7604   4.694   1.350   7.854  0.0688  0.0718 -0.1925
   70CHL1  H15A 7605   4.775   1.425   7.840 -0.0016  0.3207  0.6706
   70CHL1  H15B 7606   4.605   1.415   7.872 -0.7317 -1.5688  2.0077
   70CHL1   C16 7607   4.727   1.251   7.965  0.3802  0.7612 -1.0190
   70CHL1  H16A 7608   4.814   1.280   8.026 -1.2347  2.3056  0.6014
   70CHL1  H16B 7609   4.644   1.246   8.039  0.2789  1.9519 -1.0470
   70CHL1   C17 7610   4.767   1.125   7.888 -0.3048  0.6294 -0.0794
   70CHL1   H17 7611   4.678   1.060   7.891 -0.5729  0.9953 -0.0291
   70CHL1   C13 7612   4.786   1.157   7.739 -0.6370 -0.2140  0.1242
   70CHL1   C18 7613   4.921   1.211   7.717  0.1490  0.4011  0.6792
   70CHL1  H18A 7614   4.946   1.293   7.788  0.2571  1.9942 -1.1638
   70CHL1  H18B 7615   4.987   1.123   7.724 -2.7933 -1.9256  0.2080
   70CHL1  H18C 7616   4.932   1.257   7.616 -1.0360  1.3206  0.9536
   70CHL1   C12 7617   4.756   1.055   7.629  0.7374  0.0551 -0.0391
   70CHL1  H12A 7618   4.834   0.976   7.630 -0.0869 -0.7567  0.9763
   70CHL1  H12B 7619   4.663   0.998   7.647  1.3183 -1.5867 -2.0079
   70CHL1   C11 7620   4.748   1.111   7.487  0.9182  0.0279  1.0850
   70CHL1  H11A 7621   4.852   1.130   7.451  0.9809  0.4234  1.4678
   70CHL1  H11B 7622   4.712   1.028   7.423  1.9377 -1.3765  2.2933
   70CHL1    C9 7623   4.661   1.248   7.479 -0.0453 -0.2720  0.1162
   70CHL1    H9 7624   4.559   1.208   7.495  0.0547 -0.9480 -0.9271
   70CHL1   C10 7625   4.679   1.317   7.341  0.4785  0.0854 -0.1630
   70CHL1   C19 7626   4.831   1.349   7.315 -0.0110  0.0293  0.2143
   70CHL1  H19A 7627   4.848   1.400   7.217 -0.5543 -2.2617 -1.1012
   70CHL1  H19B 7628   4.881   1.403   7.398 -2.5032 -2.2600  3.3036
   70CHL1  H19C 7629   4.891   1.257   7.300 -0.8791 -0.5091 -0.0325
   70CHL1    C1 7630   4.618   1.225   7.236  0.2547 -0.9491  0.8073
   70CHL1   H1A 7631   4.674   1.131   7.214 -0.0284 -0.4619 -2.1919
   70CHL1   H1B 7632   4.517   1.203   7.275  0.7130 -1.8084  1.5329
   70CHL1    C2 7633   4.605   1.278   7.087 -0.5569 -0.3483  0.5794
   70CHL1   H2A 7634   4.552   1.215   7.013  0.3024  0.8056 -1.0802
   70CHL1   H2B 7635   4.709   1.303   7.054 -0.5216 -2.8318 -1.3940
   70CHL1   C20 7636   4.874   1.041   7.962  0.4312 -0.3591 -0.4710
   70CHL1   H20 7637   4.957   1.110   7.985 -0.3320  0.6614 -0.6998
   70CHL1   C21 7638   4.918   0.916   7.890 -0.4286 -0.6302  0.2091
   70CHL1  H21A 7639   4.997   0.869   7.953  0.6016  2.7932  1.5674
   70CHL1  H21B 7640   4.951   0.926   7.785 -1.5103  0.3698 -0.0358
   70CHL1  H21C 7641   4.828   0.851   7.888 -1.1082  0.3240 -0.1575
   70CHL1   C22 7642   4.816   1.005   8.103  0.9268 -0.3803 -0.8707
   70CHL1  H22A 7643   4.787   1.096   8.160  0.5039 -0.3157 -1.1873
   70CHL1  H22B 7644   4.731   0.933   8.102  1.8373 -1.4695 -3.1547
   70CHL1   C23 7645   4.918   0.928   8.193  0.6697 -0.3267 -0.6914
   70CHL1  H23A 7646   4.910   0.825   8.152  0.6231  0.1621 -1.9381
   70CHL1  H23B 7647   5.019   0.974   8.193  0.4106  0.2446 -0.1239
   70CHL1   C24 7648   4.868   0.913   8.337  0.7557  0.2869  1.0124
   70CHL1  H24A 7649   4.759   0.926   8.321  0.6801  0.8133  1.9082
   70CHL1  H24B 7650   4.900   0.812   8.371 -0.7841 -0.7203 -0.4534
   70CHL1   C25 7651   4.918   1.017   8.444  1.0327  0.1085  0.2706
   70CHL1   H25 7652   4.880   1.116   8.413  2.4625  0.4266 -0.5122
   70CHL1   C26 7653   4.857   0.982   8.587 -0.0516  0.5481  0.1626
   70CHL1  H26A 7654   4.747   0.995   8.588  0.0726  1.8319 -1.4791
   70CHL1  H26B 7655   4.880   0.877   8.617 -0.9806  0.5166  0.8005
   70CHL1  H26C 7656   4.906   1.055   8.655 -0.7112  1.8598 -0.7583
   70CHL1   C27 7657   5.067   1.018   8.451  0.6564  0.1533  1.3955
   70CHL1  H27A 7658   5.106   1.102   8.513 -2.5982  1.9615  1.1074
   70CHL1  H27B 7659   5.111   0.922   8.485 -3.5138 -1.8022  1.6664
   70CHL1  H27C 7660   5.110   1.046   8.353  0.2118  1.0666  1.4518
   71CHL1    C3 7661   4.140   4.250   6.844  0.0868  0.1580  0.4814
   71CHL1    H3 7662   4.053   4.318   6.850 -0.2591 -0.4070  1.9100
   71CHL1    O3 7663   4.186   4.267   6.710  0.0246  0.1205 -0.6824
   71CHL1   H3' 7664   4.277   4.235   6.710  0.4553  1.3187 -0.8563
   71CHL1    C4 7665   4.245   4.301   6.936 -0.4709  0.8688 -1.3837
   71CHL1   H4A 7666   4.340   4.248   6.911  2.1002  3.9296  1.4671
   71CHL1   H4B 7667   4.273   4.403   6.903 -0.6265  0.6448 -2.2263
   71CHL1    C5 7668   4.223   4.289   7.083 -0.2294 -0.5779 -0.1668
   71CHL1    C6 7669   4.250   4.396   7.164 -0.6693  0.0762  0.9616
   71CHL1    H6 7670   4.293   4.487   7.122 -0.3439 -0.4483  0.1394
   71CHL1    C7 7671   4.229   4.382   7.314 -0.2847 -0.2233  0.1973
   71CHL1   H7A 7672   4.309   4.426   7.378 -0.3645 -0.5863  0.5485
   71CHL1   H7B 7673   4.143   4.446   7.344  1.3736  2.5192 -0.7325
   71CHL1    C8 7674   4.212   4.234   7.367 -0.3780  0.1159  0.3977
   71CHL1    H8 7675   4.314   4.190   7.379  0.1912  0.9331 -1.3397
   71CHL1   C14 7676   4.153   4.242   7.508 -0.1009 -0.2788 -0.7001
   71CHL1   H14 7677   4.050   4.284   7.504 -0.3740 -0.8306  0.3012
   71CHL1   C15 7678   4.210   4.332   7.621  0.8955  0.6622  0.5565
   71CHL1  H15A 7679   4.320   4.345   7.626  0.9667  0.5881 -0.8307
   71CHL1  H15B 7680   4.171   4.436   7.625 -2.0860 -0.4221  0.9446
   71CHL1   C16 7681   4.155   4.273   7.753 -0.1270  0.1601  0.0260
   71CHL1  H16A 7682   4.239   4.247   7.821  0.0803 -0.5706 -0.5107
   71CHL1  H16B 7683   4.091   4.345   7.808  0.1181 -2.1762  3.5385
   71CHL1   C17 7684   4.080   4.139   7.711 -0.2857 -0.6211  0.4798
   71CHL1   H17 7685   3.971   4.160   7.706 -0.1578 -0.2552 -0.7934
   71CHL1   C13 7686   4.139   4.105   7.575  0.5277 -0.3696 -0.3342
   71CHL1   C18 7687   4.277   4.027   7.591 -0.7009 -0.2717  0.3407
   71CHL1  H18A 7688   4.252   3.919   7.594  0.4693 -0.5003  1.8978
   71CHL1  H18B 7689   4.346   4.034   7.504  0.0525  0.9073  1.0187
   71CHL1  H18C 7690   4.326   4.063   7.683 -0.0215  0.9782 -0.4983
   71CHL1   C12 7691   4.041   4.024   7.479  0.7523 -0.0350 -1.6145
   71CHL1  H12A 7692   4.011   3.926   7.523 -1.2017  1.3309  0.2401
   71CHL1  H12B 7693   3.941   4.071   7.475  0.2251 -0.5125  3.1516
   71CHL1   C11 7694   4.105   4.008   7.336  0.5513  0.6751 -0.1982
   71CHL1  H11A 7695   4.202   3.953   7.343  0.2518 -0.2993 -2.9937
   71CHL1  H11B 7696   4.030   3.949   7.280 -0.8234  0.9180  1.3563
   71CHL1    C9 7697   4.127   4.146   7.270  0.4406  0.3928 -0.0131
   71CHL1    H9 7698   4.024   4.188   7.271  0.9262  1.6104  0.0746
   71CHL1   C10 7699   4.171   4.156   7.125 -0.1385 -0.3373 -0.4939
   71CHL1   C19 7700   4.290   4.056   7.103 -0.1132 -0.3327  0.5128
   71CHL1  H19A 7701   4.372   4.064   7.177  1.5927 -0.5201 -1.3146
   71CHL1  H19B 7702   4.251   3.956   7.129  1.4970 -0.9186  0.7088
   71CHL1  H19C 7703   4.321   4.040   6.998  2.8835  0.0275  1.2911
   71CHL1    C1 7704   4.056   4.122   7.035 -0.0779  0.2573 -0.2140
   71CHL1   H1A 7705   4.006   4.031   7.074 -1.1994  0.4066 -1.2819
   71CHL1   H1B 7706   3.979   4.201   7.050 -3.4323 -3.2472  1.6323
   71CHL1    C2 7707   4.090   4.109   6.887 -0.8083 -0.3592  0.4240
   71CHL1   H2A 7708   4.006   4.082   6.819 -0.6267 -0.0061  0.0553
   71CHL1   H2B 7709   4.175   4.042   6.861  0.8700  1.7004  0.4317
   71CHL1   C20 7710   4.096   4.036   7.822  0.0623  0.3904  0.0911
   71CHL1   H20 7711   4.203   4.005   7.822  0.8100  2.8325  0.1745
   71CHL1   C21 7712   4.004   3.912   7.801 -0.2271  0.6135 -0.8942
   71CHL1  H21A 7713   4.040   3.858   7.712 -0.4124 -0.4051 -0.3556
   71CHL1  H21B 7714   3.899   3.946   7.796 -1.1814 -2.2843 -1.2930
   71CHL1  H21C 7715   4.004   3.845   7.889  0.1525 -1.6261 -2.5713
   71CHL1   C22 7716   4.069   4.085   7.968  0.1385  0.5254 -0.0224
   71CHL1  H22A 7717   4.089   3.996   8.032 -0.6607  0.7611  0.5596
   71CHL1  H22B 7718   4.141   4.166   7.995 -0.3955  1.3215 -0.9619
   71CHL1   C23 7719   3.922   4.136   7.993 -0.0702 -0.2567  0.1061
   71CHL1  H23A 7720   3.907   4.215   7.916  0.3747 -1.8325 -1.6437
   71CHL1  H23B 7721   3.866   4.042   7.973 -0.6436  0.6012 -2.5918
   71CHL1   C24 7722   3.921   4.181   8.138  0.2169 -0.6153  0.6185
   71CHL1  H24A 7723   3.960   4.097   8.199 -0.0464 -1.2846 -0.1253
   71CHL1  H24B 7724   3.964   4.281   8.161 -0.0863 -0.4026  0.2722
   71CHL1   C25 7725   3.772   4.180   8.186 -0.4654 -0.6086  0.1825
   71CHL1   H25 7726   3.709   4.239   8.117  0.2826  0.5716  0.4836
   71CHL1   C26 7727   3.723   4.034   8.211 -0.1311  0.0142 -0.0328
   71CHL1  H26A 7728   3.626   4.035   8.265 -0.7899  4.8579 -1.0621
   71CHL1  H26B 7729   3.694   3.988   8.114 -1.4722  0.5796  0.0859
   71CHL1  H26C 7730   3.796   3.970   8.265 -2.4274 -1.0830  1.8810
   71CHL1   C27 7731   3.772   4.258   8.317 -0.4397  0.2938 -0.1151
   71CHL1  H27A 7732   3.848   4.215   8.386 -1.8095 -0.8731  0.6969
   71CHL1  H27B 7733   3.788   4.365   8.295  3.2206 -0.6231 -2.3188
   71CHL1  H27C 7734   3.674   4.252   8.369  0.2253 -0.7109  1.0603
   72CHL1    C3 7735   4.650   1.909   7.151  0.7105 -0.4153  0.2365
   72CHL1    H3 7736   4.569   1.834   7.167  0.0804 -0.1467 -1.4895
   72CHL1    O3 7737   4.628   1.973   7.022  0.2405  0.2749  0.0984
   72CHL1   H3' 7738   4.692   2.045   7.024 -0.2032  0.6558  2.6771
   72CHL1    C4 7739   4.635   2.016   7.262  0.0560 -0.0945  0.3839
   72CHL1   H4A 7740   4.698   2.106   7.242  0.0009  0.2139  1.5953
   72CHL1   H4B 7741   4.528   2.047   7.264  0.2502  0.6152  0.1188
   72CHL1    C5 7742   4.671   1.957   7.397 -0.4440  0.2899  0.0191
   72CHL1    C6 7743   4.580   1.950   7.503  0.5379 -0.3294  0.4746
   72CHL1    H6 7744   4.479   1.988   7.482  0.3277 -1.0411  0.1654
   72CHL1    C7 7745   4.611   1.903   7.644  0.3527 -0.2907  0.1716
   72CHL1   H7A 7746   4.562   1.966   7.721 -0.2781 -2.2613  1.4200
   72CHL1   H7B 7747   4.572   1.801   7.665 -0.2453 -0.0556  0.2143
   72CHL1    C8 7748   4.766   1.902   7.666 -0.0826 -0.3015 -0.1941
   72CHL1    H8 7749   4.788   2.007   7.696  0.8054  0.3100 -2.8897
   72CHL1   C14 7750   4.794   1.816   7.789 -0.1701  0.2757  0.0421
   72CHL1   H14 7751   4.750   1.716   7.772  1.0400 -0.4269  0.8901
   72CHL1   C15 7752   4.719   1.857   7.921 -0.7760 -0.0821 -0.0310
   72CHL1  H15A 7753   4.732   1.966   7.939 -1.3967 -0.4844  3.1131
   72CHL1  H15B 7754   4.610   1.842   7.905 -0.3797 -1.5191 -1.5144
   72CHL1   C16 7755   4.794   1.781   8.028  0.3014  0.2976  0.6715
   72CHL1  H16A 7756   4.823   1.843   8.115 -0.1027  1.5817 -0.0770
   72CHL1  H16B 7757   4.733   1.698   8.068  2.5058 -1.2396  0.8995
   72CHL1   C17 7758   4.915   1.710   7.959  0.6456 -0.3518  0.0124
   72CHL1   H17 7759   4.888   1.609   7.922  1.2905 -0.6479  0.3340
   72CHL1   C13 7760   4.935   1.794   7.830 -0.4314  0.2401  0.4327
   72CHL1   C18 7761   4.998   1.931   7.861  0.3051  0.0103 -0.3897
   72CHL1  H18A 7762   5.108   1.914   7.868  0.4446  1.0372  0.0881
   72CHL1  H18B 7763   4.970   2.004   7.781 -0.7329  0.7166  0.6017
   72CHL1  H18C 7764   4.974   1.976   7.960  1.8675 -0.4038  0.1907
   72CHL1   C12 7765   5.000   1.727   7.708 -0.3631 -0.2629 -0.2821
   72CHL1  H12A 7766   5.108   1.707   7.726 -0.8969 -3.1754 -0.1370
   72CHL1  H12B 7767   4.944   1.631   7.708 -0.0614 -0.4705 -2.3957
   72CHL1   C11 7768   4.990   1.814   7.578 -0.1505  0.2556  0.3941
   72CHL1  H11A 7769   5.054   1.904   7.588  0.4029 -0.2752  1.7571
   72CHL1  H11B 7770   5.034   1.753   7.496 -0.0348 -1.6930  1.8526
   72CHL1    C9 7771   4.842   1.839   7.550 -0.4490 -0.0034  0.0635
   72CHL1    H9 7772   4.794   1.742   7.526 -0.7502  0.5390 -1.6255
   72CHL1   C10 7773   4.812   1.909   7.408 -0.4164  0.3013  0.2258
   72CHL1   C19 7774   4.904   2.032   7.396 -1.0168 -0.5450  0.7471
   72CHL1  H19A 7775   4.878   2.081   7.299  2.6397 -0.2011 -0.1193
   72CHL1  H19B 7776   4.875   2.103   7.476  0.5580 -1.6430  2.3231
   72CHL1  H19C 7777   5.013   2.013   7.399 -0.8650  0.0222 -0.5779
   72CHL1    C1 7778   4.827   1.809   7.292  0.3421 -0.3763 -0.3105
   72CHL1   H1A 7779   4.933   1.775   7.290 -0.2268 -2.3246  0.7793
   72CHL1   H1B 7780   4.762   1.722   7.316  1.5723 -1.0663  0.6155
   72CHL1    C2 7781   4.788   1.855   7.148  0.5071  0.0793  0.3241
   72CHL1   H2A 7782   4.784   1.774   7.073  1.0553  0.6601 -0.3433
   72CHL1   H2B 7783   4.869   1.918   7.106 -1.8635  2.3731 -0.9290
   72CHL1   C20 7784   5.033   1.687   8.056 -0.0378  0.2170 -0.1296
   72CHL1   H20 7785   5.060   1.773   8.121 -1.1858 -2.1404  3.6654
   72CHL1   C21 7786   5.159   1.646   7.980 -0.2505  0.1032 -0.4933
   72CHL1  H21A 7787   5.147   1.571   7.898  3.6278 -1.9935  0.7252
   72CHL1  H21B 7788   5.235   1.607   8.051 -0.3395 -1.6053 -1.2926
   72CHL1  H21C 7789   5.201   1.740   7.940 -3.4951  1.6881 -0.4070
   72CHL1   C22 7790   4.999   1.586   8.165  0.8021 -0.1788 -0.1156
   72CHL1  H22A 7791   4.892   1.598   8.194  0.2712 -0.9742 -1.7122
   72CHL1  H22B 7792   5.007   1.482   8.126  1.8560 -1.0516  2.3153
   72CHL1   C23 7793   5.080   1.593   8.299 -0.2657  0.1834  0.4847
   72CHL1  H23A 7794   5.184   1.556   8.283 -1.0356 -1.4289 -0.9201
   72CHL1  H23B 7795   5.086   1.697   8.339  0.2160  0.7910 -1.1152
   72CHL1   C24 7796   5.002   1.507   8.408  0.4836 -0.3269  0.1516
   72CHL1  H24A 7797   4.899   1.547   8.422  0.0705 -1.1969 -0.3316
   72CHL1  H24B 7798   4.984   1.401   8.378 -2.8059 -0.2186  1.5380
   72CHL1   C25 7799   5.076   1.512   8.539 -0.3057 -0.1018  0.0256
   72CHL1   H25 7800   5.183   1.487   8.519 -0.4404 -1.9101  1.4443
   72CHL1   C26 7801   5.082   1.651   8.604 -0.0376  0.6103  0.7038
   72CHL1  H26A 7802   5.146   1.640   8.695  0.5638  1.4974  0.3971
   72CHL1  H26B 7803   5.136   1.718   8.533  1.0934  0.5701  1.5116
   72CHL1  H26C 7804   4.986   1.694   8.638  0.4726  1.9648  0.4595
   72CHL1   C27 7805   5.022   1.405   8.636 -0.8714 -0.4901  0.2439
   72CHL1  H27A 7806   4.919   1.436   8.664 -1.0587 -0.6260 -0.2840
   72CHL1  H27B 7807   5.024   1.304   8.591  1.3150 -0.7998  0.9335
   72CHL1  H27C 7808   5.095   1.394   8.720 -0.9297  1.4123  0.5629
   73CHL1    C3 7809   4.390   4.914   7.096 -0.3761  0.4277  0.4917
   73CHL1    H3 7810   4.477   4.845   7.106  0.3526  1.2639  0.0005
   73CHL1    O3 7811   4.341   4.909   6.967  0.1064 -0.1506 -0.2513
   73CHL1   H3' 7812   4.341   5.001   6.939  0.1813 -0.7140 -2.2063
   73CHL1    C4 7813   4.278   4.871   7.192  0.4824 -0.1645  0.7732
   73CHL1   H4A 7814   4.184   4.929   7.181 -0.2916 -1.4215  0.6280
   73CHL1   H4B 7815   4.246   4.770   7.158 -1.7293  1.1664 -1.2645
   73CHL1    C5 7816   4.326   4.867   7.338 -0.2550 -0.4484  0.1036
   73CHL1    C6 7817   4.316   4.760   7.414 -0.0694 -0.4146  0.0887
   73CHL1    H6 7818   4.273   4.665   7.378 -1.2373 -0.4272  1.4837
   73CHL1    C7 7819   4.362   4.768   7.558 -0.0517 -0.3952  0.0492
   73CHL1   H7A 7820   4.289   4.723   7.629  0.0027 -1.4473 -0.5615
   73CHL1   H7B 7821   4.457   4.712   7.569 -0.5777 -1.6250 -1.5041
   73CHL1    C8 7822   4.386   4.910   7.620  0.0448  0.0226  0.0547
   73CHL1    H8 7823   4.284   4.955   7.625 -0.5052 -1.0807 -0.7578
   73CHL1   C14 7824   4.459   4.902   7.747 -0.0710 -0.2332 -0.1410
   73CHL1   H14 7825   4.556   4.854   7.720 -0.6749 -1.5328 -0.0173
   73CHL1   C15 7826   4.407   4.814   7.857  0.0026 -0.5570  0.0257
   73CHL1  H15A 7827   4.296   4.818   7.868 -0.2443 -0.0287 -2.3367
   73CHL1  H15B 7828   4.436   4.711   7.826 -1.0960 -0.7126 -0.5247
   73CHL1   C16 7829   4.485   4.850   7.979 -0.3239 -0.1891 -0.6963
   73CHL1  H16A 7830   4.416   4.875   8.062  0.5643  1.2157 -0.3746
   73CHL1  H16B 7831   4.545   4.763   8.013 -1.6843 -0.1497  1.9066
   73CHL1   C17 7832   4.561   4.987   7.947  0.2743 -0.5418  0.1803
   73CHL1   H17 7833   4.667   4.967   7.919  0.6466  3.0638 -1.2886
   73CHL1   C13 7834   4.496   5.034   7.813  0.0096 -0.6952 -0.0831
   73CHL1   C18 7835   4.365   5.107   7.849  0.8958 -0.2022  0.5157
   73CHL1  H18A 7836   4.299   5.116   7.760  0.8979  1.7372  0.6695
   73CHL1  H18B 7837   4.300   5.054   7.921 -0.0979 -0.6282 -0.6774
   73CHL1  H18C 7838   4.394   5.211   7.876 -0.9555  1.1696 -2.4378
   73CHL1   C12 7839   4.590   5.110   7.714  0.8678 -0.5383 -0.5321
   73CHL1  H12A 7840   4.615   5.211   7.753  3.4525 -1.8839  1.4116
   73CHL1  H12B 7841   4.678   5.045   7.697 -0.5771 -2.5639 -0.3540
   73CHL1   C11 7842   4.529   5.122   7.569 -0.4315  0.7414 -0.6758
   73CHL1  H11A 7843   4.439   5.188   7.576 -0.3378  0.9232 -1.1427
   73CHL1  H11B 7844   4.593   5.155   7.484  2.7443 -2.3331  0.4412
   73CHL1    C9 7845   4.463   4.985   7.512 -0.2407 -0.7366  0.0489
   73CHL1    H9 7846   4.549   4.919   7.489  0.8868  0.9249 -0.6323
   73CHL1   C10 7847   4.387   5.001   7.380 -0.5231  0.6024 -0.4061
   73CHL1   C19 7848   4.265   5.104   7.394 -0.2224  0.0597  0.0097
   73CHL1  H19A 7849   4.185   5.078   7.468  1.1081  0.3699  1.5885
   73CHL1  H19B 7850   4.304   5.205   7.419  0.1055 -0.3310  1.1304
   73CHL1  H19C 7851   4.203   5.119   7.303 -2.3318  2.7363  1.7760
   73CHL1    C1 7852   4.488   5.061   7.277 -0.5024 -0.0742  0.5797
   73CHL1   H1A 7853   4.487   5.171   7.292 -2.5084 -0.2363  1.8557
   73CHL1   H1B 7854   4.592   5.023   7.293 -0.0247  1.6030  1.4982
   73CHL1    C2 7855   4.437   5.052   7.137  0.3095 -0.1262  0.4328
   73CHL1   H2A 7856   4.509   5.103   7.070  0.9982  1.7888  2.5582
   73CHL1   H2B 7857   4.359   5.125   7.111  0.1891 -1.0233 -1.8049
   73CHL1   C20 7858   4.569   5.086   8.062  0.3084  0.2461  0.6357
   73CHL1   H20 7859   4.468   5.128   8.082 -0.3052 -0.6922 -0.5011
   73CHL1   C21 7860   4.659   5.200   8.015  0.0266  0.5235 -0.8563
   73CHL1  H21A 7861   4.755   5.147   7.997 -1.1723 -1.8687 -0.4363
   73CHL1  H21B 7862   4.662   5.272   8.099 -1.3025 -1.1009  0.6337
   73CHL1  H21C 7863   4.616   5.254   7.928  0.6190  0.1579 -1.3806
   73CHL1   C22 7864   4.625   5.016   8.194  0.1387  0.0377  0.1795
   73CHL1  H22A 7865   4.541   4.951   8.226  0.4897  0.2077  1.4765
   73CHL1  H22B 7866   4.713   4.954   8.165  0.6082  1.0518 -0.5949
   73CHL1   C23 7867   4.669   5.115   8.301 -0.1786  0.0202 -0.1358
   73CHL1  H23A 7868   4.763   5.164   8.266  0.0925 -0.0105  0.5447
   73CHL1  H23B 7869   4.595   5.192   8.331  1.0318  1.2095 -0.0959
   73CHL1   C24 7870   4.714   5.033   8.423  0.6620 -0.1452 -1.2484
   73CHL1  H24A 7871   4.626   5.004   8.483  0.9748 -0.8640 -1.1310
   73CHL1  H24B 7872   4.765   4.938   8.395 -1.4170 -1.9098  0.7897
   73CHL1   C25 7873   4.812   5.123   8.511  0.2672 -0.2159  0.1005
   73CHL1   H25 7874   4.900   5.158   8.453  0.0931 -0.6549 -0.4290
   73CHL1   C26 7875   4.747   5.251   8.563  0.0610 -0.1254 -0.0497
   73CHL1  H26A 7876   4.660   5.224   8.628  0.5744  1.3376  1.2922
   73CHL1  H26B 7877   4.801   5.320   8.631 -1.7574  0.6969  0.6135
   73CHL1  H26C 7878   4.721   5.311   8.474  1.0119 -2.4832 -1.9618
   73CHL1   C27 7879   4.867   5.049   8.636 -0.4610 -0.5791 -0.4401
   73CHL1  H27A 7880   4.933   5.124   8.685  0.6109 -0.8122 -1.4806
   73CHL1  H27B 7881   4.781   5.014   8.696 -1.1758  1.7459 -0.0609
   73CHL1  H27C 7882   4.924   4.963   8.594  0.7213  0.0237 -0.1084
   74CHL1    C3 7883   3.590   3.577   7.010  0.7735 -0.6581 -0.4840
   74CHL1    H3 7884   3.651   3.636   7.082  1.7127 -2.6408  0.3784
   74CHL1    O3 7885   3.636   3.589   6.872 -0.2995 -0.2948 -0.3152
   74CHL1   H3' 7886   3.551   3.581   6.829 -1.5416  0.3794  1.9260
   74CHL1    C4 7887   3.592   3.432   7.053  0.0124  0.1011  0.0356
   74CHL1   H4A 7888   3.525   3.364   6.995  0.2546 -0.3286  0.2541
   74CHL1   H4B 7889   3.695   3.393   7.037 -0.3223 -1.6060  1.8462
   74CHL1    C5 7890   3.553   3.417   7.199  0.8275 -0.0106 -0.1672
   74CHL1    C6 7891   3.633   3.366   7.295 -0.4206  0.3153  0.0569
   74CHL1    H6 7892   3.734   3.330   7.270  1.4392  2.3574  4.1099
   74CHL1    C7 7893   3.594   3.350   7.438  0.4719  0.6196 -0.0296
   74CHL1   H7A 7894   3.619   3.246   7.469  1.9628  0.2422 -2.4017
   74CHL1   H7B 7895   3.645   3.418   7.509 -1.3487  0.9802  0.9607
   74CHL1    C8 7896   3.438   3.370   7.459  1.1216  0.1076 -1.0342
   74CHL1    H8 7897   3.382   3.278   7.431  2.9877 -2.0569  2.0488
   74CHL1   C14 7898   3.420   3.396   7.610  0.0948 -0.2959 -0.6054
   74CHL1   H14 7899   3.470   3.493   7.631  0.1322 -0.6496  0.9454
   74CHL1   C15 7900   3.478   3.298   7.712  0.3880 -0.0808 -0.1068
   74CHL1  H15A 7901   3.454   3.195   7.679 -1.4820  0.8398 -1.7075
   74CHL1  H15B 7902   3.587   3.311   7.727  0.5405 -1.8239  0.3398
   74CHL1   C16 7903   3.395   3.329   7.846 -0.9504 -0.3045 -0.1084
   74CHL1  H16A 7904   3.341   3.234   7.868 -0.2823 -0.4854  0.7624
   74CHL1  H16B 7905   3.439   3.366   7.941 -1.1440 -1.2149  0.3404
   74CHL1   C17 7906   3.284   3.430   7.804  0.6599 -0.5974 -0.8630
   74CHL1   H17 7907   3.319   3.534   7.824 -1.0493 -0.4414  1.5446
   74CHL1   C13 7908   3.275   3.422   7.653  0.1099  0.1614 -0.2129
   74CHL1   C18 7909   3.184   3.304   7.608 -0.1687  0.8354  0.1481
   74CHL1  H18A 7910   3.204   3.285   7.501 -3.2475 -0.8362 -0.2026
   74CHL1  H18B 7911   3.212   3.206   7.653 -2.0957 -0.8757 -2.2324
   74CHL1  H18C 7912   3.079   3.333   7.631 -1.2830 -3.1492  0.5348
   74CHL1   C12 7913   3.230   3.551   7.579  0.2757 -0.3447 -0.8119
   74CHL1  H12A 7914   3.125   3.576   7.607  0.5830  0.1708 -0.1009
   74CHL1  H12B 7915   3.299   3.628   7.619 -0.3477  1.0056 -2.2829
   74CHL1   C11 7916   3.261   3.545   7.429  0.1943  0.3089 -0.1536
   74CHL1  H11A 7917   3.183   3.483   7.379  0.8904 -0.5469 -0.1916
   74CHL1  H11B 7918   3.246   3.649   7.392  1.8442 -0.0162 -1.7895
   74CHL1    C9 7919   3.399   3.492   7.384  0.2059 -0.2240  0.2792
   74CHL1    H9 7920   3.472   3.569   7.416 -0.7879  1.1813 -0.8084
   74CHL1   C10 7921   3.416   3.479   7.233  0.1845  0.4135  0.1569
   74CHL1   C19 7922   3.310   3.390   7.173  0.1542 -0.8920  0.1094
   74CHL1  H19A 7923   3.316   3.292   7.224  1.6358  0.0352  1.7373
   74CHL1  H19B 7924   3.206   3.425   7.189  1.0296  1.3007  1.1396
   74CHL1  H19C 7925   3.322   3.370   7.064  0.2664  1.8377 -0.4000
   74CHL1    C1 7926   3.404   3.623   7.169 -0.9463 -0.1627 -0.3566
   74CHL1   H1A 7927   3.304   3.669   7.176  0.7479  3.3658  2.2199
   74CHL1   H1B 7928   3.454   3.690   7.242 -2.8961 -0.3139  1.1627
   74CHL1    C2 7929   3.446   3.637   7.022  0.4783 -0.7138 -0.0806
   74CHL1   H2A 7930   3.435   3.743   6.989  0.4330 -0.9991 -1.0053
   74CHL1   H2B 7931   3.377   3.575   6.960 -0.6749  0.4763 -0.0231
   74CHL1   C20 7932   3.151   3.426   7.893  0.7379 -0.3875  1.0738
   74CHL1   H20 7933   3.106   3.327   7.872 -0.9828  0.8142 -0.9985
   74CHL1   C21 7934   3.040   3.530   7.850  0.6620 -0.7544  0.3933
   74CHL1  H21A 7935   3.085   3.629   7.870 -1.3645  0.1896  0.3514
   74CHL1  H21B 7936   2.947   3.521   7.909  0.0198  1.3412 -0.2800
   74CHL1  H21C 7937   2.998   3.510   7.749  2.2767  0.8683 -0.6218
   74CHL1   C22 7938   3.182   3.430   8.044  0.8606  1.0856 -0.6295
   74CHL1  H22A 7939   3.240   3.340   8.076  0.1790 -0.1396 -2.7689
   74CHL1  H22B 7940   3.232   3.523   8.080  1.7431  0.4838 -0.2766
   74CHL1   C23 7941   3.060   3.412   8.145  0.6144  0.0944  0.5396
   74CHL1  H23A 7942   2.981   3.490   8.135  1.3879  0.8758  0.4147
   74CHL1  H23B 7943   3.009   3.319   8.113  1.1420 -0.8611  2.4340
   74CHL1   C24 7944   3.107   3.407   8.286 -0.1881 -0.1217  0.0019
   74CHL1  H24A 7945   3.184   3.327   8.297  1.0862  0.7930 -1.9815
   74CHL1  H24B 7946   3.152   3.505   8.313 -2.1822  0.4580  1.2327
   74CHL1   C25 7947   2.993   3.385   8.394 -0.5344  0.1071 -0.6083
   74CHL1   H25 7948   2.913   3.460   8.379 -0.3764  0.4176  0.0958
   74CHL1   C26 7949   2.927   3.247   8.373 -0.4670 -1.4485  0.1040
   74CHL1  H26A 7950   3.004   3.168   8.385  1.5904  0.5713  0.4163
   74CHL1  H26B 7951   2.842   3.234   8.444 -0.8159  1.4875  0.2875
   74CHL1  H26C 7952   2.883   3.243   8.271  0.8878 -0.3502 -0.5400
   74CHL1   C27 7953   3.032   3.409   8.535  0.7998 -0.1458 -0.2634
   74CHL1  H27A 7954   3.094   3.325   8.572  1.1503  0.2334  0.0109
   74CHL1  H27B 7955   3.080   3.507   8.552 -0.1280  0.2477  0.1546
   74CHL1  H27C 7956   2.948   3.409   8.608  0.1727 -1.5630 -0.9730
   75CHL1    C3 7957   0.051   5.667   6.741  0.0198 -0.5466 -0.2551
   75CHL1    H3 7958   0.153   5.712   6.745 -0.4308  0.3880  0.8542
   75CHL1    O3 7959   0.016   5.637   6.607  0.2534  0.0012  0.9103
   75CHL1   H3' 7960  -0.078   5.621   6.611  0.4603 -1.3462  0.4944
   75CHL1    C4 7961   0.059   5.530   6.812 -0.4268 -0.2683  0.5614
   75CHL1   H4A 7962  -0.035   5.482   6.778 -0.2094  0.3276 -0.8850
   75CHL1   H4B 7963   0.145   5.472   6.771 -0.0297  0.2974  0.5927
   75CHL1    C5 7964   0.062   5.536   6.964 -0.2482 -0.0032  0.0170
   75CHL1    C6 7965   0.162   5.478   7.029 -0.3717 -0.0860 -0.2989
   75CHL1    H6 7966   0.240   5.430   6.969 -0.1723  0.2212 -0.2901
   75CHL1    C7 7967   0.192   5.489   7.176  0.3563 -0.3126  0.0305
   75CHL1   H7A 7968   0.215   5.387   7.214 -0.4738 -0.4138  0.2839
   75CHL1   H7B 7969   0.281   5.553   7.191  1.1501 -1.7323  1.4998
   75CHL1    C8 7970   0.076   5.551   7.257 -0.0148  0.1498  0.8724
   75CHL1    H8 7971   0.004   5.467   7.270  0.9736 -1.2066 -2.0307
   75CHL1   C14 7972   0.138   5.600   7.391  0.0060  0.1381 -0.5200
   75CHL1   H14 7973   0.214   5.679   7.374  0.5538 -0.8066 -2.6857
   75CHL1   C15 7974   0.198   5.491   7.477  0.3380  0.6898  0.5170
   75CHL1  H15A 7975   0.143   5.395   7.472  0.2818  0.7803 -0.8685
   75CHL1  H15B 7976   0.293   5.458   7.429  0.3672  0.9198  0.4172
   75CHL1   C16 7977   0.209   5.563   7.614  0.1959  0.2148 -0.0292
   75CHL1  H16A 7978   0.161   5.505   7.695  0.4360 -0.1259 -0.1302
   75CHL1  H16B 7979   0.315   5.594   7.632  1.5155 -0.5286 -5.6310
   75CHL1   C17 7980   0.121   5.696   7.602 -0.3826  0.2606 -0.4102
   75CHL1   H17 7981   0.192   5.777   7.575  0.7127 -0.2994  0.7328
   75CHL1   C13 7982   0.035   5.670   7.481 -0.2702  0.8816 -0.2778
   75CHL1   C18 7983  -0.082   5.577   7.515  0.0571 -0.0770 -0.1391
   75CHL1  H18A 7984  -0.122   5.531   7.422  2.1020 -0.2554 -0.9450
   75CHL1  H18B 7985  -0.059   5.492   7.583  3.0866 -0.3439 -1.4234
   75CHL1  H18C 7986  -0.157   5.645   7.562 -0.0049 -0.7068  0.6854
   75CHL1   C12 7987  -0.027   5.791   7.405 -0.3540 -0.4533  0.3163
   75CHL1  H12A 7988  -0.101   5.856   7.455  1.1575  2.1492 -0.7027
   75CHL1  H12B 7989   0.068   5.847   7.390 -0.7778  0.4051  0.8246
   75CHL1   C11 7990  -0.087   5.757   7.262  0.2052  0.5809 -0.1910
   75CHL1  H11A 7991  -0.188   5.712   7.274  1.2158 -1.9955 -1.0349
   75CHL1  H11B 7992  -0.098   5.855   7.211 -2.8221 -1.7953 -4.4622
   75CHL1    C9 7993   0.011   5.669   7.177  0.4423  0.5207  0.2176
   75CHL1    H9 7994   0.096   5.739   7.160  0.0679  1.2366  1.2110
   75CHL1   C10 7995  -0.038   5.629   7.034  0.4680 -0.3694 -0.8064
   75CHL1   C19 7996  -0.174   5.544   7.045 -0.4509  0.4483  0.0793
   75CHL1  H19A 7997  -0.157   5.446   7.095 -1.4138 -0.0900 -0.6173
   75CHL1  H19B 7998  -0.249   5.602   7.104  0.5968  1.2273  0.6583
   75CHL1  H19C 7999  -0.218   5.521   6.946 -1.5038 -0.5654  0.7634
   75CHL1    C1 8000  -0.041   5.765   6.951 -0.1762  0.3055 -0.1532
   75CHL1   H1A 8001  -0.127   5.830   6.980  0.7609  1.3937  0.2541
   75CHL1   H1B 8002   0.047   5.830   6.971  0.6636 -0.1328 -2.3038
   75CHL1    C2 8003  -0.049   5.762   6.803  0.7403 -0.7073  0.3675
   75CHL1   H2A 8004  -0.037   5.863   6.756 -0.3933  0.3284  2.2439
   75CHL1   H2B 8005  -0.154   5.736   6.777 -0.0756 -0.2373  3.1035
   75CHL1   C20 8006   0.047   5.734   7.735 -0.0680 -0.4977  0.1263
   75CHL1   H20 8007  -0.023   5.649   7.751 -2.6037  1.4638 -0.3491
   75CHL1   C21 8008  -0.037   5.862   7.723 -0.6122 -0.3639 -0.3896
   75CHL1  H21A 8009  -0.053   5.910   7.822  1.9217 -2.1779  0.9723
   75CHL1  H21B 8010  -0.133   5.838   7.673 -1.8985 -0.2120  1.9296
   75CHL1  H21C 8011   0.027   5.935   7.669  1.1576 -0.4248  1.5734
   75CHL1   C22 8012   0.141   5.730   7.858  0.5403 -0.8074 -0.6622
   75CHL1  H22A 8013   0.195   5.636   7.881  1.1535 -0.1480  0.6695
   75CHL1  H22B 8014   0.212   5.816   7.857 -1.7237  1.1053 -2.6709
   75CHL1   C23 8015   0.066   5.757   7.995  0.1460  0.6324 -0.0060
   75CHL1  H23A 8016   0.133   5.742   8.083 -1.9671  0.9884  1.6885
   75CHL1  H23B 8017   0.054   5.866   7.979 -0.5428  0.5877  0.2116
   75CHL1   C24 8018  -0.071   5.693   8.011 -0.0334  0.1430 -0.1213
   75CHL1  H24A 8019  -0.132   5.736   7.928 -0.6242  0.1494  0.3139
   75CHL1  H24B 8020  -0.081   5.584   7.997 -0.9151  0.5414 -3.0137
   75CHL1   C25 8021  -0.140   5.734   8.143  0.6980 -0.0721  0.1163
   75CHL1   H25 8022  -0.078   5.695   8.226  0.5140  0.8037  0.6669
   75CHL1   C26 8023  -0.156   5.883   8.154 -0.2867 -0.4129  0.1579
   75CHL1  H26A 8024  -0.203   5.925   8.063  0.3634  1.0615  0.4760
   75CHL1  H26B 8025  -0.210   5.915   8.246  0.5446  1.4997  0.0235
   75CHL1  H26C 8026  -0.053   5.926   8.165  0.2136 -1.7210  0.6203
   75CHL1   C27 8027  -0.274   5.654   8.156 -0.1797 -0.2349 -0.5862
   75CHL1  H27A 8028  -0.324   5.680   8.251 -0.8957  0.7794 -1.2275
   75CHL1  H27B 8029  -0.338   5.684   8.070 -2.6945 -2.6684  0.3662
   75CHL1  H27C 8030  -0.255   5.544   8.162  0.0061 -0.2901 -2.0288
   76CHL1    C3 8031   3.933   0.920   7.334  1.1350 -0.1800 -0.5978
   76CHL1    H3 8032   4.002   1.006   7.348  1.1497 -0.2121 -0.4714
   76CHL1    O3 8033   3.918   0.923   7.191  0.5146  1.2103 -0.5969
   76CHL1   H3' 8034   3.941   0.839   7.151 -1.0165  0.2928  0.4061
   76CHL1    C4 8035   4.001   0.786   7.364 -0.2733  0.5622  0.0185
   76CHL1   H4A 8036   3.934   0.704   7.331 -0.4092  0.8119 -0.3254
   76CHL1   H4B 8037   4.096   0.776   7.307  1.5058  0.9977  2.7897
   76CHL1    C5 8038   4.020   0.782   7.519  0.0538  0.1528  0.1882
   76CHL1    C6 8039   4.138   0.756   7.582 -0.1713 -0.0905  0.2903
   76CHL1    H6 8040   4.228   0.721   7.529  0.6972  2.6357 -0.1054
   76CHL1    C7 8041   4.162   0.744   7.730 -1.1960  0.8904 -0.0243
   76CHL1   H7A 8042   4.229   0.658   7.750 -1.5244  1.0901  2.1028
   76CHL1   H7B 8043   4.222   0.830   7.768  1.8824 -1.3143  0.2985
   76CHL1    C8 8044   4.027   0.728   7.810 -0.3658 -0.2503 -0.2638
   76CHL1    H8 8045   3.990   0.623   7.812 -1.6995  0.2115 -0.2306
   76CHL1   C14 8046   4.052   0.758   7.950  0.5382  0.5400  0.4641
   76CHL1   H14 8047   4.092   0.861   7.959  1.1214  0.4688 -1.1571
   76CHL1   C15 8048   4.171   0.682   8.008  0.2382 -0.6650  1.2811
   76CHL1  H15A 8049   4.193   0.585   7.959  2.2125  0.2572  0.2994
   76CHL1  H15B 8050   4.265   0.740   8.005 -0.8898  1.0681 -2.3956
   76CHL1   C16 8051   4.136   0.663   8.156  0.5144  0.4082  0.6826
   76CHL1  H16A 8052   4.125   0.558   8.192 -0.5035  1.0635  2.2964
   76CHL1  H16B 8053   4.221   0.694   8.221  2.0009  1.0395 -1.5251
   76CHL1   C17 8054   4.007   0.750   8.189  0.6045 -0.3075  0.5256
   76CHL1   H17 8055   4.050   0.852   8.203  0.2748 -0.3366  1.7974
   76CHL1   C13 8056   3.933   0.740   8.049 -0.1905 -0.1254 -0.7280
   76CHL1   C18 8057   3.857   0.608   8.044  0.5080 -0.2286 -0.0358
   76CHL1  H18A 8058   3.766   0.612   8.108  1.9184 -0.8411  2.0235
   76CHL1  H18B 8059   3.823   0.590   7.939  0.2315 -2.5557  0.4323
   76CHL1  H18C 8060   3.930   0.532   8.078  2.1572  0.4809 -1.8944
   76CHL1   C12 8061   3.837   0.851   8.000 -0.1565 -0.2095  0.1933
   76CHL1  H12A 8062   3.743   0.836   8.058  1.8487 -1.4842  3.2712
   76CHL1  H12B 8063   3.883   0.951   8.012 -1.6150  0.3757  1.0525
   76CHL1   C11 8064   3.800   0.830   7.852  0.4200 -0.1903 -0.0467
   76CHL1  H11A 8065   3.744   0.734   7.854 -0.0163  0.0716  0.5935
   76CHL1  H11B 8066   3.738   0.914   7.815 -0.4344 -0.8035 -0.0047
   76CHL1    C9 8067   3.922   0.827   7.764  0.0780 -0.0639 -0.3368
   76CHL1    H9 8068   3.970   0.927   7.772  0.3216  0.0692 -2.9115
   76CHL1   C10 8069   3.898   0.811   7.608  0.3783 -0.2642 -0.3813
   76CHL1   C19 8070   3.797   0.688   7.597 -0.3697  0.0775  0.2586
   76CHL1  H19A 8071   3.853   0.606   7.647 -3.2897 -1.6504  0.7470
   76CHL1  H19B 8072   3.696   0.705   7.639 -1.0378 -0.1724 -1.2397
   76CHL1  H19C 8073   3.782   0.662   7.490  1.8856 -1.6204  0.3122
   76CHL1    C1 8074   3.827   0.939   7.555 -0.3286  0.0629  0.4703
   76CHL1   H1A 8075   3.734   0.960   7.611 -0.0561  0.2201  0.8647
   76CHL1   H1B 8076   3.896   1.022   7.581  1.0178 -0.2011 -2.0757
   76CHL1    C2 8077   3.803   0.936   7.406  0.0198  0.5099  0.7872
   76CHL1   H2A 8078   3.772   1.039   7.378 -0.0932  0.0324 -0.8995
   76CHL1   H2B 8079   3.717   0.873   7.375  0.1072  1.5415 -1.6426
   76CHL1   C20 8080   3.937   0.707   8.321  0.1524  0.2735 -0.1757
   76CHL1   H20 8081   3.892   0.609   8.297  2.5105 -0.7647 -0.5364
   76CHL1   C21 8082   3.821   0.806   8.344  0.3265 -0.4353 -0.3780
   76CHL1  H21A 8083   3.746   0.782   8.266 -0.0659 -1.6711  0.3667
   76CHL1  H21B 8084   3.844   0.914   8.332 -3.0804  0.4096  0.0959
   76CHL1  H21C 8085   3.792   0.787   8.450 -2.3665  0.3791 -0.9176
   76CHL1   C22 8086   4.033   0.710   8.442  0.2542 -0.4687 -0.0433
   76CHL1  H22A 8087   4.138   0.700   8.407 -0.2915  0.3624 -1.9538
   76CHL1  H22B 8088   4.026   0.813   8.484  1.6192 -0.4612  0.2117
   76CHL1   C23 8089   3.998   0.610   8.542  0.8764 -1.1591  0.3992
   76CHL1  H23A 8090   3.912   0.655   8.595  1.2050  0.6902 -0.5965
   76CHL1  H23B 8091   3.981   0.511   8.494 -0.9253  1.2072 -4.1530
   76CHL1   C24 8092   4.119   0.605   8.639  0.8926  1.0906  0.6135
   76CHL1  H24A 8093   4.217   0.605   8.586  0.5154 -2.4694 -0.2305
   76CHL1  H24B 8094   4.116   0.690   8.710 -2.3115  1.2257  0.3838
   76CHL1   C25 8095   4.125   0.475   8.725  0.7073 -0.4405 -0.2924
   76CHL1   H25 8096   4.121   0.391   8.652  0.4900  1.3539 -2.4069
   76CHL1   C26 8097   4.241   0.459   8.816 -0.0765  0.4848 -0.1736
   76CHL1  H26A 8098   4.328   0.474   8.749  1.0049  0.6958  1.2475
   76CHL1  H26B 8099   4.236   0.535   8.896  3.6171  1.6509 -0.9432
   76CHL1  H26C 8100   4.231   0.355   8.856  0.5267  0.3481 -0.3677
   76CHL1   C27 8101   3.991   0.455   8.810 -0.3349  0.7304  0.6358
   76CHL1  H27A 8102   3.992   0.365   8.875  2.1842 -1.5334 -2.4026
   76CHL1  H27B 8103   3.973   0.536   8.885  0.4675  0.6691  0.8969
   76CHL1  H27C 8104   3.901   0.447   8.745  0.1388 -1.8049  0.2409
   77CHL1    C3 8105   4.430   5.693   6.840  0.6529  0.7715 -0.2110
   77CHL1    H3 8106   4.369   5.785   6.859  2.1701  1.7929 -0.2153
   77CHL1    O3 8107   4.450   5.671   6.702 -0.2215  0.0101  0.3225
   77CHL1   H3' 8108   4.517   5.603   6.695 -0.8414 -0.4242 -1.6950
   77CHL1    C4 8109   4.563   5.689   6.919  0.6041  0.2507  0.4965
   77CHL1   H4A 8110   4.625   5.605   6.882 -0.4059  0.0411 -0.7297
   77CHL1   H4B 8111   4.611   5.786   6.893  0.2322  0.4823  0.6629
   77CHL1    C5 8112   4.546   5.697   7.069 -0.4129 -0.1555  0.6202
   77CHL1    C6 8113   4.585   5.804   7.138  0.3462 -0.2008  0.1235
   77CHL1    H6 8114   4.622   5.891   7.081 -1.2138 -0.7240 -1.7554
   77CHL1    C7 8115   4.564   5.819   7.284  0.3011 -0.0284 -0.7094
   77CHL1   H7A 8116   4.648   5.868   7.337 -1.0959  0.4772  1.1173
   77CHL1   H7B 8117   4.475   5.878   7.314  1.1008  0.3666  0.9557
   77CHL1    C8 8118   4.532   5.686   7.362 -0.0129  1.3138 -0.1613
   77CHL1    H8 8119   4.625   5.626   7.373 -1.6000 -1.1743  0.0760
   77CHL1   C14 8120   4.483   5.705   7.504  0.2248  0.3264 -0.8252
   77CHL1   H14 8121   4.384   5.756   7.495 -0.2567 -0.3293  0.6813
   77CHL1   C15 8122   4.563   5.798   7.598  0.0078 -0.6559 -0.0653
   77CHL1  H15A 8123   4.670   5.768   7.594  0.6189  1.4317  0.2177
   77CHL1  H15B 8124   4.548   5.905   7.572  2.3698 -0.0367  1.0495
   77CHL1   C16 8125   4.508   5.761   7.737 -0.3186  0.6162 -0.3723
   77CHL1  H16A 8126   4.592   5.739   7.805 -1.4704 -1.5253  0.4031
   77CHL1  H16B 8127   4.455   5.849   7.779  1.5139  1.3264  0.5046
   77CHL1   C17 8128   4.408   5.636   7.718  0.0128 -0.1335 -0.7043
   77CHL1   H17 8129   4.309   5.684   7.704 -1.1783 -1.7620  1.7070
   77CHL1   C13 8130   4.459   5.574   7.585 -0.7172 -0.9545 -0.0118
   77CHL1   C18 8131   4.590   5.485   7.594 -0.1140  0.0543 -0.1398
   77CHL1  H18A 8132   4.677   5.548   7.622 -0.6002  0.3320  0.7858
   77CHL1  H18B 8133   4.568   5.407   7.670 -2.3724 -0.6351 -1.4560
   77CHL1  H18C 8134   4.608   5.436   7.496 -0.3602  1.4149 -0.8760
   77CHL1   C12 8135   4.351   5.493   7.512 -0.2248 -0.4361  0.4572
   77CHL1  H12A 8136   4.330   5.396   7.562  0.6861 -1.6194 -1.3952
   77CHL1  H12B 8137   4.259   5.552   7.530  0.6295  1.0830 -0.0784
   77CHL1   C11 8138   4.390   5.474   7.362 -0.5652  0.1965 -0.7928
   77CHL1  H11A 8139   4.472   5.400   7.354  1.0513  1.9335 -0.7416
   77CHL1  H11B 8140   4.298   5.433   7.316  0.2456 -1.6075 -0.8338
   77CHL1    C9 8141   4.438   5.601   7.282  0.4914 -0.4815 -0.1932
   77CHL1    H9 8142   4.349   5.667   7.272 -0.2049 -1.5453 -1.2421
   77CHL1   C10 8143   4.474   5.575   7.129 -0.2329 -0.6025 -0.1102
   77CHL1   C19 8144   4.568   5.453   7.124  0.0698  0.2679  1.0209
   77CHL1  H19A 8145   4.521   5.355   7.149  0.8246 -0.5216 -0.5608
   77CHL1  H19B 8146   4.615   5.453   7.023 -1.9170  1.7254  0.0657
   77CHL1  H19C 8147   4.648   5.476   7.197  1.1979  1.3332 -0.5337
   77CHL1    C1 8148   4.344   5.560   7.046 -0.2383 -0.3566  0.0378
   77CHL1   H1A 8149   4.305   5.460   7.074  0.0247 -0.7410 -0.9511
   77CHL1   H1B 8150   4.283   5.646   7.081 -0.3766 -0.6767  0.5873
   77CHL1    C2 8151   4.351   5.570   6.897 -0.2946  0.1992  0.0169
   77CHL1   H2A 8152   4.247   5.574   6.857  0.2938 -0.6821 -1.6788
   77CHL1   H2B 8153   4.399   5.477   6.858  0.4024  0.9856 -1.0227
   77CHL1   C20 8154   4.402   5.551   7.846  0.7255 -0.2313  0.6679
   77CHL1   H20 8155   4.480   5.473   7.861  1.9572  1.0544  1.0041
   77CHL1   C21 8156   4.264   5.484   7.845  0.1305 -0.4293  1.1439
   77CHL1  H21A 8157   4.271   5.412   7.762  3.4501  0.1404  0.8478
   77CHL1  H21B 8158   4.188   5.564   7.829 -0.9556 -1.5863  0.4131
   77CHL1  H21C 8159   4.248   5.424   7.937  1.1065 -1.6348  0.5324
   77CHL1   C22 8160   4.400   5.643   7.981 -0.2917 -0.0825  0.2874
   77CHL1  H22A 8161   4.492   5.705   7.983 -0.1387 -0.3216  2.5276
   77CHL1  H22B 8162   4.313   5.711   7.966  0.2590  0.4640 -0.4162
   77CHL1   C23 8163   4.394   5.573   8.116 -0.4523  0.0884 -0.4791
   77CHL1  H23A 8164   4.287   5.543   8.119  0.4135 -3.1187 -0.0342
   77CHL1  H23B 8165   4.459   5.483   8.121 -0.0222  0.3950 -0.4908
   77CHL1   C24 8166   4.409   5.657   8.246 -0.0959 -0.4269  0.2511
   77CHL1  H24A 8167   4.514   5.671   8.278 -0.1244  0.3366  0.0138
   77CHL1  H24B 8168   4.354   5.753   8.236  0.0910 -0.5293 -2.0808
   77CHL1   C25 8169   4.336   5.595   8.367 -1.0937 -0.0424  0.3614
   77CHL1   H25 8170   4.227   5.601   8.352 -1.2126  1.6976  1.8648
   77CHL1   C26 8171   4.389   5.456   8.418 -0.6733 -0.3132  0.9098
   77CHL1  H26A 8172   4.488   5.459   8.467 -0.5309  0.9992  0.5408
   77CHL1  H26B 8173   4.318   5.417   8.494 -1.0845 -0.8970  0.2397
   77CHL1  H26C 8174   4.400   5.386   8.332  1.2360  0.6487  0.3453
   77CHL1   C27 8175   4.374   5.685   8.485  0.4580  0.5776 -0.6723
   77CHL1  H27A 8176   4.345   5.791   8.472 -0.2134  0.3608 -0.9603
   77CHL1  H27B 8177   4.316   5.650   8.574 -0.5207 -1.7961 -2.1890
   77CHL1  H27C 8178   4.480   5.685   8.519  0.1042 -2.0610  0.5743
   78CHL1    C3 8179   6.723   0.519   6.818  0.2704 -0.1503  0.4067
   78CHL1    H3 8180   6.719   0.417   6.862  0.4884 -0.7149 -0.8537
   78CHL1    O3 8181   6.682   0.520   6.681 -0.2085 -0.5673 -0.0346
   78CHL1   H3' 8182   6.598   0.565   6.671 -0.0631 -0.5006 -0.9699
   78CHL1    C4 8183   6.634   0.606   6.910 -0.0776  0.1425 -1.1042
   78CHL1   H4A 8184   6.627   0.711   6.873 -1.1647  0.5091  0.1006
   78CHL1   H4B 8185   6.537   0.551   6.912 -1.1066  1.9333 -0.1780
   78CHL1    C5 8186   6.684   0.605   7.054 -0.4422  0.1312 -0.1258
   78CHL1    C6 8187   6.611   0.564   7.155 -0.1364 -0.2059 -0.8043
   78CHL1    H6 8188   6.508   0.533   7.130 -1.0378  4.4027 -3.1966
   78CHL1    C7 8189   6.650   0.565   7.295 -0.8180 -0.6006  0.3772
   78CHL1   H7A 8190   6.571   0.601   7.365  0.4418 -0.0025  1.5236
   78CHL1   H7B 8191   6.668   0.457   7.313 -1.0684 -1.1522 -2.4389
   78CHL1    C8 8192   6.782   0.650   7.318 -0.0599  0.3714 -0.0184
   78CHL1    H8 8193   6.747   0.756   7.318 -2.1443 -0.2775  1.3949
   78CHL1   C14 8194   6.843   0.601   7.451  0.1387 -0.0472 -0.0105
   78CHL1   H14 8195   6.879   0.498   7.432  1.1060  0.3337 -0.2856
   78CHL1   C15 8196   6.757   0.595   7.579 -0.5634  0.0059  0.9938
   78CHL1  H15A 8197   6.687   0.681   7.586 -1.2288 -0.5104  0.6968
   78CHL1  H15B 8198   6.687   0.509   7.574 -2.5479  1.6607 -1.2030
   78CHL1   C16 8199   6.852   0.588   7.696 -0.0568 -0.9173  0.5888
   78CHL1  H16A 8200   6.810   0.652   7.777  2.6306  0.7792  0.7203
   78CHL1  H16B 8201   6.866   0.485   7.735  1.4087 -0.3837  1.5292
   78CHL1   C17 8202   6.994   0.633   7.636 -0.3684 -0.1363 -0.1270
   78CHL1   H17 8203   7.052   0.540   7.619 -1.1022 -0.6447  0.1153
   78CHL1   C13 8204   6.964   0.686   7.496 -0.3470 -0.1532  0.0118
   78CHL1   C18 8205   6.934   0.837   7.509 -0.6573  0.7695  0.6614
   78CHL1  H18A 8206   6.863   0.855   7.591 -3.0582 -0.8420 -1.0060
   78CHL1  H18B 8207   7.023   0.897   7.538  0.9476 -0.9252 -0.5765
   78CHL1  H18C 8208   6.904   0.898   7.421 -0.8156 -1.8991 -1.2284
   78CHL1   C12 8209   7.074   0.665   7.384  0.4040  0.6138 -0.2138
   78CHL1  H12A 8210   7.162   0.729   7.408  0.7742  0.3673 -0.9180
   78CHL1  H12B 8211   7.104   0.559   7.375 -0.5588  0.2907  0.3191
   78CHL1   C11 8212   7.016   0.708   7.244 -0.3197  0.3779 -0.0993
   78CHL1  H11A 8213   6.995   0.817   7.240  0.2944  0.5063  0.1473
   78CHL1  H11B 8214   7.091   0.684   7.166 -1.0383 -4.0774  0.4742
   78CHL1    C9 8215   6.884   0.627   7.208 -0.1319 -0.0322  0.0671
   78CHL1    H9 8216   6.913   0.521   7.215  3.2346  0.8368 -0.1640
   78CHL1   C10 8217   6.823   0.655   7.066 -0.1030  0.0119 -0.7936
   78CHL1   C19 8218   6.822   0.806   7.045  0.0412 -0.0985  0.3274
   78CHL1  H19A 8219   6.928   0.839   7.031  0.8404 -2.3032  0.9467
   78CHL1  H19B 8220   6.769   0.833   6.951 -0.4196  0.1757  0.6650
   78CHL1  H19C 8221   6.767   0.854   7.128  2.8118  1.3773  1.3862
   78CHL1    C1 8222   6.917   0.587   6.957  0.0753 -0.5119  0.7075
   78CHL1   H1A 8223   7.012   0.645   6.964 -1.8976  3.2648 -1.8436
   78CHL1   H1B 8224   6.928   0.483   6.992  0.4687 -0.4137  0.8762
   78CHL1    C2 8225   6.870   0.571   6.814 -1.3032 -0.3046  0.2341
   78CHL1   H2A 8226   6.931   0.501   6.754 -1.8905  0.2968 -1.0886
   78CHL1   H2B 8227   6.875   0.673   6.771 -1.2440  0.0844  1.1386
   78CHL1   C20 8228   7.063   0.715   7.737  0.5669 -0.3733  0.1559
   78CHL1   H20 8229   7.010   0.812   7.745  1.9649  0.4390 -0.2274
   78CHL1   C21 8230   7.202   0.770   7.691 -0.1965  0.1533 -0.0010
   78CHL1  H21A 8231   7.240   0.847   7.762  0.0517  0.1918 -0.1746
   78CHL1  H21B 8232   7.195   0.818   7.591 -0.0416 -0.3895 -0.2704
   78CHL1  H21C 8233   7.274   0.686   7.692  0.3178  0.5660 -1.3525
   78CHL1   C22 8234   7.076   0.634   7.875  0.8143  0.5266  0.4669
   78CHL1  H22A 8235   6.990   0.570   7.903  0.5001  0.1040 -1.3673
   78CHL1  H22B 8236   7.155   0.559   7.853 -2.2806 -2.2716 -1.6318
   78CHL1   C23 8237   7.100   0.727   7.992 -0.0658  0.2158 -0.2572
   78CHL1  H23A 8238   7.089   0.669   8.085 -1.0537 -0.7909 -0.9898
   78CHL1  H23B 8239   7.206   0.758   7.982 -0.1463  0.2273 -1.1143
   78CHL1   C24 8240   6.993   0.835   7.998 -0.5797  0.1196 -0.4306
   78CHL1  H24A 8241   6.990   0.902   7.909 -3.1443 -2.2824 -2.2613
   78CHL1  H24B 8242   6.895   0.783   8.009 -1.7748  2.5220  0.5955
   78CHL1   C25 8243   7.005   0.908   8.133  0.8545  0.4086 -0.0568
   78CHL1   H25 8244   7.011   0.828   8.210  0.7635 -0.4998 -0.9862
   78CHL1   C26 8245   7.129   0.994   8.138 -0.0677  0.3651  0.1083
   78CHL1  H26A 8246   7.223   0.935   8.128  0.3535  1.2110 -1.0342
   78CHL1  H26B 8247   7.124   1.068   8.055 -0.2975  0.4796  0.2230
   78CHL1  H26C 8248   7.134   1.047   8.236  0.5524 -1.5526  1.1310
   78CHL1   C27 8249   6.882   0.989   8.155 -0.2878 -0.5250  0.3119
   78CHL1  H27A 8250   6.878   1.076   8.087  0.1535 -0.7070  0.0521
   78CHL1  H27B 8251   6.795   0.923   8.133 -0.1382 -1.0964  1.3688
   78CHL1  H27C 8252   6.894   1.023   8.260 -0.8570  2.1451 -0.4496
   79CHL1    C3 8253   4.688   0.116   7.272  0.0578 -0.3183 -0.1002
   79CHL1    H3 8254   4.594   0.163   7.308  0.6285  0.5055  0.3183
   79CHL1    O3 8255   4.702   0.144   7.134 -0.5266  0.0469  0.1137
   79CHL1   H3' 8256   4.627   0.102   7.091 -0.0190  0.8278 -1.5735
   79CHL1    C4 8257   4.814   0.169   7.351  0.8561  0.7769  0.1681
   79CHL1   H4A 8258   4.902   0.118   7.305 -0.0446 -1.2400  0.6369
   79CHL1   H4B 8259   4.820   0.279   7.341 -1.6532  0.8935 -0.4604
   79CHL1    C5 8260   4.791   0.122   7.500  1.3010  0.8436 -0.4375
   79CHL1    C6 8261   4.783   0.220   7.594 -0.2383  0.5068  0.1370
   79CHL1    H6 8262   4.796   0.326   7.569 -0.7848  0.0529 -2.2018
   79CHL1    C7 8263   4.755   0.182   7.732  0.8520 -0.5896 -0.6567
   79CHL1   H7A 8264   4.809   0.252   7.799 -1.3989  2.2578 -1.7064
   79CHL1   H7B 8265   4.646   0.197   7.747  0.9035 -1.1089  0.3195
   79CHL1    C8 8266   4.794   0.034   7.768 -0.0060 -0.5053 -0.3232
   79CHL1    H8 8267   4.904   0.037   7.757 -0.2419  2.1471 -2.4778
   79CHL1   C14 8268   4.750   0.000   7.911 -0.7042  0.1614 -0.3050
   79CHL1   H14 8269   4.639  -0.009   7.915 -0.6020 -1.1198 -0.1001
   79CHL1   C15 8270   4.789   0.096   8.020  0.3651  0.0343 -0.3254
   79CHL1  H15A 8271   4.889   0.139   7.996  0.7421 -0.8007 -0.2425
   79CHL1  H15B 8272   4.719   0.182   8.024  0.9682  0.6621 -2.5179
   79CHL1   C16 8273   4.776   0.018   8.151  0.1356 -0.3090 -0.8373
   79CHL1  H16A 8274   4.864   0.025   8.219  0.0548  0.6522 -0.8179
   79CHL1  H16B 8275   4.691   0.061   8.208  0.6569  2.7998 -2.2628
   79CHL1   C17 8276   4.745  -0.128   8.105 -0.1073 -0.3342 -0.1642
   79CHL1   H17 8277   4.635  -0.141   8.099  0.0897 -1.4330 -1.5878
   79CHL1   C13 8278   4.794  -0.132   7.956  0.5462  0.1148  0.0942
   79CHL1   C18 8279   4.947  -0.138   7.942  0.0402 -0.3837  0.2236
   79CHL1  H18A 8280   4.976  -0.235   7.988 -0.0517 -0.9970 -1.0085
   79CHL1  H18B 8281   4.977  -0.133   7.836 -1.2536  0.0582 -0.1307
   79CHL1  H18C 8282   5.001  -0.054   7.991 -0.0812 -0.7548  1.0006
   79CHL1   C12 8283   4.722  -0.233   7.861  0.0400 -0.3233  0.3745
   79CHL1  H12A 8284   4.762  -0.335   7.880  1.5392  0.1331 -0.2707
   79CHL1  H12B 8285   4.614  -0.236   7.885  0.3099 -1.3411  1.5066
   79CHL1   C11 8286   4.746  -0.211   7.709  0.0739 -0.1476 -0.8640
   79CHL1  H11A 8287   4.843  -0.258   7.683 -0.4395 -2.2990  0.9119
   79CHL1  H11B 8288   4.667  -0.255   7.644 -2.5832  1.6556  1.0232
   79CHL1    C9 8289   4.729  -0.062   7.670  0.2315 -0.7142 -0.2326
   79CHL1    H9 8290   4.619  -0.047   7.681  0.5549  3.5876 -2.0601
   79CHL1   C10 8291   4.763  -0.027   7.526 -0.5883  0.2516  0.2265
   79CHL1   C19 8292   4.904  -0.091   7.483  0.3789  0.4920 -0.2242
   79CHL1  H19A 8293   4.938  -0.063   7.381 -1.3190 -0.5804 -1.0963
   79CHL1  H19B 8294   4.980  -0.049   7.553  0.4667  0.0785 -0.0645
   79CHL1  H19C 8295   4.902  -0.202   7.483 -2.6939  0.5201 -0.1847
   79CHL1    C1 8296   4.655  -0.079   7.433 -0.5616  0.4825  0.6200
   79CHL1   H1A 8297   4.639  -0.189   7.434 -0.4039  0.4244 -1.5097
   79CHL1   H1B 8298   4.557  -0.035   7.458 -0.1018  1.1862  1.2006
   79CHL1    C2 8299   4.676  -0.032   7.286  0.4021  0.1412  0.1575
   79CHL1   H2A 8300   4.594  -0.078   7.227  1.3009 -3.1528  1.3630
   79CHL1   H2B 8301   4.767  -0.085   7.250  0.9799  0.6662  0.8330
   79CHL1   C20 8302   4.804  -0.225   8.208 -0.2085 -0.2176 -0.6751
   79CHL1   H20 8303   4.914  -0.211   8.214 -0.2272 -0.8403  2.2747
   79CHL1   C21 8304   4.783  -0.367   8.165  0.5766  0.5471 -0.6592
   79CHL1  H21A 8305   4.819  -0.433   8.247  0.2955 -0.1187 -1.0691
   79CHL1  H21B 8306   4.848  -0.390   8.077 -1.3887  1.9809 -2.5356
   79CHL1  H21C 8307   4.678  -0.383   8.132  0.2904  0.6732  0.1732
   79CHL1   C22 8308   4.742  -0.198   8.354 -0.3317 -0.3684  1.0328
   79CHL1  H22A 8309   4.705  -0.095   8.369  2.6882  0.7864  0.9436
   79CHL1  H22B 8310   4.668  -0.276   8.381  0.5381 -1.5379  0.1286
   79CHL1   C23 8311   4.842  -0.204   8.471 -0.7615  0.4559  0.1607
   79CHL1  H23A 8312   4.891  -0.303   8.463  1.7244  1.6478 -0.0890
   79CHL1  H23B 8313   4.923  -0.127   8.465 -0.7849  0.6782  2.3509
   79CHL1   C24 8314   4.786  -0.193   8.609  0.0624 -0.1509 -0.1196
   79CHL1  H24A 8315   4.748  -0.091   8.632 -1.5621 -1.1922  2.0092
   79CHL1  H24B 8316   4.700  -0.262   8.621 -0.3851  0.2139 -1.1584
   79CHL1   C25 8317   4.898  -0.253   8.706  1.0592 -0.4644  0.2820
   79CHL1   H25 8318   4.937  -0.352   8.674  0.1537 -0.9572  0.6683
   79CHL1   C26 8319   5.020  -0.154   8.716 -0.0191  0.4451  0.1925
   79CHL1  H26A 8320   5.076  -0.171   8.622 -1.2186 -1.3569 -0.2184
   79CHL1  H26B 8321   4.978  -0.051   8.708 -2.0779 -0.4487 -0.7450
   79CHL1  H26C 8322   5.089  -0.180   8.800  0.0657 -3.3111 -0.9737
   79CHL1   C27 8323   4.826  -0.277   8.846  0.0658  0.1289 -0.6863
   79CHL1  H27A 8324   4.740  -0.346   8.834  0.4042  0.1299 -3.6966
   79CHL1  H27B 8325   4.895  -0.331   8.915 -0.0989  0.1093 -0.5410
   79CHL1  H27C 8326   4.793  -0.181   8.890  1.0898  0.4528 -0.6009
   80CHL1    C3 8327   3.163   4.165   7.155 -0.1473 -0.0481 -0.3441
   80CHL1    H3 8328   3.079   4.096   7.132 -0.8245  0.7055 -0.1553
   80CHL1    O3 8329   3.211   4.225   7.036 -0.0073 -0.1721  0.2869
   80CHL1   H3' 8330   3.255   4.305   7.067  2.1115  0.1795 -3.2577
   80CHL1    C4 8331   3.105   4.276   7.248 -0.7381  1.0988  0.0860
   80CHL1   H4A 8332   3.188   4.350   7.250 -0.3981  0.7077  0.4871
   80CHL1   H4B 8333   3.021   4.313   7.184 -0.0953 -1.9893 -2.6590
   80CHL1    C5 8334   3.068   4.236   7.395 -0.1025  0.0268 -0.4806
   80CHL1    C6 8335   2.944   4.258   7.440 -0.2505 -0.4428 -0.5314
   80CHL1    H6 8336   2.874   4.309   7.372  1.5547  1.6035 -0.9192
   80CHL1    C7 8337   2.905   4.207   7.572 -0.2933  0.0525  0.0943
   80CHL1   H7A 8338   2.847   4.281   7.631  0.7154 -0.0535  1.2236
   80CHL1   H7B 8339   2.841   4.119   7.547 -0.2298  0.0849 -0.1893
   80CHL1    C8 8340   3.022   4.156   7.669  0.2950  0.2368  0.2296
   80CHL1    H8 8341   3.073   4.244   7.713  0.9417  0.4932 -1.0355
   80CHL1   C14 8342   2.962   4.086   7.785 -0.1536  0.5939  0.4465
   80CHL1   H14 8343   2.907   3.997   7.746 -2.0458  1.7088  0.5044
   80CHL1   C15 8344   2.865   4.166   7.878 -0.1026  0.2022  0.3498
   80CHL1  H15A 8345   2.922   4.261   7.883 -1.1226  0.9994 -2.3906
   80CHL1  H15B 8346   2.771   4.194   7.827 -0.1712  0.7273  0.7695
   80CHL1   C16 8347   2.858   4.080   8.001  0.3112  0.7164  0.0982
   80CHL1  H16A 8348   2.856   4.143   8.093  0.2380  0.2933  0.3854
   80CHL1  H16B 8349   2.760   4.030   7.989  1.3116 -1.1581 -0.4212
   80CHL1   C17 8350   2.971   3.971   7.987  0.0322  0.7848 -1.1783
   80CHL1   H17 8351   2.929   3.878   7.941 -0.2759 -0.7494  2.0482
   80CHL1   C13 8352   3.069   4.026   7.880  0.3774  0.4279 -0.8474
   80CHL1   C18 8353   3.161   4.129   7.944  0.0157 -0.6137  0.1767
   80CHL1  H18A 8354   3.110   4.218   7.988  0.3895 -0.4280  0.2360
   80CHL1  H18B 8355   3.212   4.080   8.029 -1.0991  0.8711  1.7562
   80CHL1  H18C 8356   3.225   4.187   7.875 -0.3141  0.7004  0.9489
   80CHL1   C12 8357   3.150   3.928   7.792  0.1081  0.4319  0.3215
   80CHL1  H12A 8358   3.230   3.886   7.856  1.1691 -1.1294 -1.9845
   80CHL1  H12B 8359   3.081   3.853   7.746  0.0369  0.3342  0.5889
   80CHL1   C11 8360   3.218   4.004   7.678 -0.3155  0.5693  0.3264
   80CHL1  H11A 8361   3.298   4.073   7.713  1.3025 -1.4759  0.7875
   80CHL1  H11B 8362   3.277   3.933   7.616  0.2142  3.5274 -2.6951
   80CHL1    C9 8363   3.116   4.073   7.588 -0.2554  0.5296 -0.8085
   80CHL1    H9 8364   3.058   3.988   7.547  0.8849 -2.0971  2.7164
   80CHL1   C10 8365   3.173   4.150   7.468 -0.1599 -0.2519  0.0305
   80CHL1   C19 8366   3.289   4.245   7.511  0.4274  0.2490  0.8355
   80CHL1  H19A 8367   3.266   4.306   7.601 -0.0850  0.3107  0.6634
   80CHL1  H19B 8368   3.372   4.179   7.545 -0.8975 -1.5604  0.6214
   80CHL1  H19C 8369   3.317   4.310   7.425  0.4550 -2.2120 -1.0682
   80CHL1    C1 8370   3.237   4.049   7.375 -0.1967 -0.2356  0.8256
   80CHL1   H1A 8371   3.335   4.021   7.418  0.0567  0.4987  0.7357
   80CHL1   H1B 8372   3.164   3.965   7.368  0.6462 -0.7490 -2.2696
   80CHL1    C2 8373   3.273   4.095   7.232 -0.3681  0.2356 -0.3486
   80CHL1   H2A 8374   3.318   4.013   7.173 -0.0090 -1.4159  2.1308
   80CHL1   H2B 8375   3.358   4.166   7.233  0.0178 -0.2243 -0.2633
   80CHL1   C20 8376   3.032   3.930   8.126  0.7110 -0.4132  0.3522
   80CHL1   H20 8377   3.057   4.031   8.167  1.6887  0.0498 -1.3307
   80CHL1   C21 8378   3.159   3.841   8.117 -0.6683 -0.0611 -0.5987
   80CHL1  H21A 8379   3.126   3.742   8.080 -0.4584  0.0585 -1.1245
   80CHL1  H21B 8380   3.206   3.832   8.217  0.5877  1.0027 -1.0714
   80CHL1  H21C 8381   3.241   3.885   8.055  0.3283 -0.9865  0.0426
   80CHL1   C22 8382   2.933   3.873   8.236  0.2903  0.3931  0.3840
   80CHL1  H22A 8383   2.832   3.915   8.215  0.7565  1.3728  0.1059
   80CHL1  H22B 8384   2.940   3.763   8.221  0.8412  0.9655 -4.1790
   80CHL1   C23 8385   2.977   3.909   8.377 -0.8347 -0.1542 -0.1230
   80CHL1  H23A 8386   3.073   3.863   8.407 -1.0014 -1.1082 -0.9972
   80CHL1  H23B 8387   2.989   4.019   8.381  2.6983 -0.5484  1.4583
   80CHL1   C24 8388   2.878   3.856   8.477  0.2912 -0.1890 -0.7905
   80CHL1  H24A 8389   2.776   3.897   8.460  0.3184 -0.2519 -1.0895
   80CHL1  H24B 8390   2.871   3.745   8.478  1.2302 -0.2730  1.7268
   80CHL1   C25 8391   2.922   3.886   8.624 -0.0455  0.1262  0.3540
   80CHL1   H25 8392   2.901   3.989   8.660 -2.5007 -0.5466  0.9378
   80CHL1   C26 8393   2.820   3.803   8.710 -0.0804  0.3248  0.2150
   80CHL1  H26A 8394   2.722   3.807   8.658  0.7318  0.2420 -1.3618
   80CHL1  H26B 8395   2.836   3.694   8.699 -1.3090 -0.0565  2.0892
   80CHL1  H26C 8396   2.823   3.825   8.819  0.5285 -3.2102  0.9509
   80CHL1   C27 8397   3.068   3.849   8.660  0.0275 -0.0760  0.5410
   80CHL1  H27A 8398   3.092   3.741   8.648  0.3323 -0.0256  0.6909
   80CHL1  H27B 8399   3.140   3.910   8.602  0.6061 -1.9042 -0.7087
   80CHL1  H27C 8400   3.077   3.866   8.769 -0.9958  0.4915  0.5402
   81CHL1    C3 8401   0.633   4.409   6.703  0.5598  0.1818  0.0318
   81CHL1    H3 8402   0.572   4.502   6.700 -0.3451 -0.4515 -1.9026
   81CHL1    O3 8403   0.626   4.372   6.567  0.6354  0.4515 -0.5622
   81CHL1   H3' 8404   0.602   4.279   6.573 -1.0591  0.8473 -0.8895
   81CHL1    C4 8405   0.774   4.434   6.748  0.3086 -0.7442 -0.2905
   81CHL1   H4A 8406   0.833   4.342   6.728  0.1913 -0.8577 -0.1193
   81CHL1   H4B 8407   0.815   4.515   6.684  1.4251 -0.4656  0.7542
   81CHL1    C5 8408   0.778   4.487   6.889  0.0943 -0.4080  0.3189
   81CHL1    C6 8409   0.830   4.608   6.917 -0.3219 -0.2072 -0.1568
   81CHL1    H6 8410   0.875   4.656   6.829  1.9882 -1.4864  0.3000
   81CHL1    C7 8411   0.828   4.671   7.057  0.2583  0.1272  0.4516
   81CHL1   H7A 8412   0.924   4.713   7.093  1.0376 -0.2365 -1.1364
   81CHL1   H7B 8413   0.747   4.746   7.069  0.6330  0.1521  3.2398
   81CHL1    C8 8414   0.799   4.557   7.168 -0.0423  0.5138 -0.0347
   81CHL1    H8 8415   0.892   4.498   7.185  1.1354  2.5759  0.9274
   81CHL1   C14 8416   0.769   4.628   7.304 -0.0638  0.0644 -0.5749
   81CHL1   H14 8417   0.679   4.692   7.287  0.5467  0.6777 -1.5145
   81CHL1   C15 8418   0.869   4.723   7.374  0.1209  0.5724  0.5375
   81CHL1  H15A 8419   0.970   4.681   7.356  0.1765  1.4122 -1.2162
   81CHL1  H15B 8420   0.863   4.821   7.321 -0.7406 -0.4318 -1.2731
   81CHL1   C16 8421   0.832   4.732   7.523 -0.4170 -0.7131  0.2492
   81CHL1  H16A 8422   0.933   4.722   7.569 -0.1734 -0.3463 -0.2041
   81CHL1  H16B 8423   0.797   4.835   7.542 -3.0100 -1.7806  1.6082
   81CHL1   C17 8424   0.731   4.619   7.546 -0.0040  0.3721 -0.3298
   81CHL1   H17 8425   0.625   4.654   7.544  0.1041  0.6657 -0.8438
   81CHL1   C13 8426   0.734   4.533   7.417 -0.0398  0.5082 -0.2434
   81CHL1   C18 8427   0.856   4.438   7.445  0.1730  0.1147  0.3952
   81CHL1  H18A 8428   0.869   4.377   7.353 -0.6411  1.4735 -0.6303
   81CHL1  H18B 8429   0.941   4.502   7.478  0.1480 -0.6389  2.0150
   81CHL1  H18C 8430   0.845   4.364   7.528  0.2729 -1.4388 -0.9523
   81CHL1   C12 8431   0.601   4.453   7.366  1.1555 -0.0842 -0.4046
   81CHL1  H12A 8432   0.572   4.380   7.443 -0.0373  0.0073 -0.7568
   81CHL1  H12B 8433   0.517   4.525   7.372  1.1815 -0.2036  1.8437
   81CHL1   C11 8434   0.612   4.379   7.234  0.1132  0.3735  0.0525
   81CHL1  H11A 8435   0.679   4.292   7.250 -3.2503 -2.5215 -0.8919
   81CHL1  H11B 8436   0.515   4.330   7.210  2.0256 -1.7437 -3.8239
   81CHL1    C9 8437   0.677   4.468   7.122 -0.7852 -0.3662 -0.0288
   81CHL1    H9 8438   0.601   4.548   7.109 -0.2303  0.0835 -0.5581
   81CHL1   C10 8439   0.708   4.399   6.987 -0.3730 -0.8179  0.4176
   81CHL1   C19 8440   0.798   4.274   7.010  0.4942 -0.4877  0.4588
   81CHL1  H19A 8441   0.743   4.191   7.060 -2.0126  1.2692  0.7096
   81CHL1  H19B 8442   0.843   4.235   6.916  0.0316 -1.3718  0.5925
   81CHL1  H19C 8443   0.871   4.297   7.090  1.6351 -1.1100 -0.3900
   81CHL1    C1 8444   0.573   4.351   6.931  0.5880  0.5226 -0.7089
   81CHL1   H1A 8445   0.538   4.267   6.993 -1.0532 -0.4496 -2.8838
   81CHL1   H1B 8446   0.493   4.427   6.936  0.9329  0.9336 -1.3208
   81CHL1    C2 8447   0.577   4.302   6.786  0.8141  0.7909 -0.3935
   81CHL1   H2A 8448   0.473   4.276   6.757 -0.3551  1.3985  3.0442
   81CHL1   H2B 8449   0.641   4.214   6.766  0.5185  1.1101 -3.0292
   81CHL1   C20 8450   0.747   4.557   7.682  0.2314  0.1682 -0.0439
   81CHL1   H20 8451   0.851   4.517   7.694  0.4968  0.8073 -0.1979
   81CHL1   C21 8452   0.647   4.438   7.707  0.2426 -0.2386  0.3901
   81CHL1  H21A 8453   0.653   4.360   7.629  1.7586 -0.5791  0.8248
   81CHL1  H21B 8454   0.545   4.481   7.723  1.3105  1.7896  2.0473
   81CHL1  H21C 8455   0.680   4.389   7.801  0.6391  0.0933  0.4261
   81CHL1   C22 8456   0.729   4.665   7.798  0.1050  0.8019  0.2255
   81CHL1  H22A 8457   0.806   4.743   7.779 -0.6221  1.3849 -0.4027
   81CHL1  H22B 8458   0.628   4.711   7.791 -0.7850 -0.9161  1.4814
   81CHL1   C23 8459   0.743   4.613   7.938 -0.1987  0.1238 -0.7831
   81CHL1  H23A 8460   0.654   4.548   7.954 -0.2598  0.6231  0.9640
   81CHL1  H23B 8461   0.830   4.544   7.939 -0.4930 -0.2830 -2.0990
   81CHL1   C24 8462   0.752   4.736   8.030  0.3293  0.0714 -0.1117
   81CHL1  H24A 8463   0.827   4.805   7.987  0.2351 -1.8620 -3.5513
   81CHL1  H24B 8464   0.654   4.789   8.037  1.1915  1.4802  1.5994
   81CHL1   C25 8465   0.788   4.692   8.183  0.2710 -0.4813 -0.2734
   81CHL1   H25 8466   0.703   4.623   8.204 -0.8505  1.0488  0.3337
   81CHL1   C26 8467   0.925   4.627   8.192 -0.0326 -0.3597  0.3690
   81CHL1  H26A 8468   1.001   4.690   8.140  0.4808 -0.5088  0.9280
   81CHL1  H26B 8469   0.959   4.620   8.298 -1.1009  0.9950  0.8207
   81CHL1  H26C 8470   0.921   4.521   8.161 -0.9140 -0.4171  0.6652
   81CHL1   C27 8471   0.770   4.817   8.274  1.2629 -0.1021 -0.6548
   81CHL1  H27A 8472   0.855   4.885   8.252  0.2967  1.1495 -0.6049
   81CHL1  H27B 8473   0.674   4.871   8.260  0.6071 -1.6712 -2.3103
   81CHL1  H27C 8474   0.779   4.782   8.379 -1.7780  2.3340  0.4873
   82CHL1    C3 8475   1.793   5.494   7.086 -0.0005 -0.6896 -1.0554
   82CHL1    H3 8476   1.826   5.598   7.062  0.4216 -0.2860  1.1390
   82CHL1    O3 8477   1.759   5.421   6.965 -0.1081  0.3231  0.1233
   82CHL1   H3' 8478   1.815   5.343   6.964  0.1683  0.5372 -1.9918
   82CHL1    C4 8479   1.893   5.406   7.165 -1.0397  0.7422  0.6599
   82CHL1   H4A 8480   1.856   5.302   7.173  2.3527 -0.5790  0.0644
   82CHL1   H4B 8481   1.984   5.395   7.102 -0.3451 -2.5744  2.1569
   82CHL1    C5 8482   1.915   5.455   7.306  0.0534 -0.2837 -0.4034
   82CHL1    C6 8483   2.037   5.491   7.345 -1.1762  0.3914 -0.8889
   82CHL1    H6 8484   2.119   5.467   7.276 -1.1031 -2.5801  0.1877
   82CHL1    C7 8485   2.067   5.536   7.485 -0.0531 -0.6028  0.2802
   82CHL1   H7A 8486   2.153   5.481   7.527  1.0196  1.5979  1.0733
   82CHL1   H7B 8487   2.097   5.643   7.489  1.0921 -0.9631  1.3361
   82CHL1    C8 8488   1.945   5.521   7.580 -0.0461  0.2868  0.7775
   82CHL1    H8 8489   1.942   5.412   7.602 -1.5321  0.1280 -0.1429
   82CHL1   C14 8490   1.971   5.602   7.703  1.3402 -0.7443 -0.0391
   82CHL1   H14 8491   1.983   5.703   7.659  1.9693 -0.7569  0.1071
   82CHL1   C15 8492   2.100   5.564   7.780 -0.1211 -0.1476 -0.1964
   82CHL1  H15A 8493   2.118   5.454   7.782  0.1905 -0.1346 -1.3726
   82CHL1  H15B 8494   2.182   5.620   7.731  1.2413 -3.0359 -1.3735
   82CHL1   C16 8495   2.087   5.625   7.923  0.3700  0.6294  0.0420
   82CHL1  H16A 8496   2.119   5.544   7.992  0.3265 -1.0685 -1.8830
   82CHL1  H16B 8497   2.161   5.706   7.941  1.0278  0.0225  0.0898
   82CHL1   C17 8498   1.944   5.679   7.921  0.4167  0.1743  0.3055
   82CHL1   H17 8499   1.948   5.783   7.881  0.3247  0.2843  0.5824
   82CHL1   C13 8500   1.868   5.603   7.808  0.2821 -0.0911  0.4160
   82CHL1   C18 8501   1.832   5.461   7.857  0.5990 -0.0161 -1.1038
   82CHL1  H18A 8502   1.916   5.403   7.899 -1.4425 -1.4811  1.1085
   82CHL1  H18B 8503   1.760   5.474   7.941  1.1488  1.9560 -0.9069
   82CHL1  H18C 8504   1.803   5.391   7.775  0.0757 -0.1719 -0.7880
   82CHL1   C12 8505   1.748   5.677   7.735  0.6102 -0.1152  0.6690
   82CHL1  H12A 8506   1.663   5.688   7.805  0.5066 -1.2884  0.7296
   82CHL1  H12B 8507   1.782   5.781   7.714  1.4937 -0.3379  0.9960
   82CHL1   C11 8508   1.706   5.605   7.608 -0.1350  0.0949 -0.3276
   82CHL1  H11A 8509   1.639   5.523   7.641 -0.7486  1.1862  1.1855
   82CHL1  H11B 8510   1.646   5.673   7.544  1.4866  0.3837 -1.5623
   82CHL1    C9 8511   1.819   5.567   7.512  0.4090  0.1292 -0.0937
   82CHL1    H9 8512   1.842   5.668   7.470 -0.2679  0.4926  0.3945
   82CHL1   C10 8513   1.784   5.492   7.387  0.2022  0.3237  1.0195
   82CHL1   C19 8514   1.714   5.365   7.445 -0.1193  0.1496 -0.4868
   82CHL1  H19A 8515   1.705   5.279   7.375 -1.9784  0.7133 -0.9569
   82CHL1  H19B 8516   1.757   5.325   7.539  1.8596  1.8053 -0.6537
   82CHL1  H19C 8517   1.610   5.392   7.474 -0.3447  0.8540 -1.8924
   82CHL1    C1 8518   1.690   5.575   7.301  0.6487 -0.0345  0.4772
   82CHL1   H1A 8519   1.590   5.586   7.350  0.2388 -2.0067  0.1164
   82CHL1   H1B 8520   1.738   5.675   7.289  0.6909 -0.1084  0.0366
   82CHL1    C2 8521   1.667   5.509   7.165  0.2006  0.4968 -0.2476
   82CHL1   H2A 8522   1.591   5.569   7.110  1.1281  1.7390 -0.1958
   82CHL1   H2B 8523   1.621   5.409   7.178  0.1908  0.7947  2.3907
   82CHL1   C20 8524   1.880   5.694   8.060  0.2272 -0.0453 -0.5495
   82CHL1   H20 8525   1.868   5.589   8.094  0.7369 -0.0287 -0.3090
   82CHL1   C21 8526   1.747   5.770   8.051  0.3227  0.4150  0.0961
   82CHL1  H21A 8527   1.702   5.784   8.152  1.3418  2.5905  0.2769
   82CHL1  H21B 8528   1.667   5.720   7.992  1.4637 -0.6808 -0.5264
   82CHL1  H21C 8529   1.764   5.872   8.010 -1.4943  2.1146  3.3285
   82CHL1   C22 8530   1.966   5.767   8.172 -0.2723 -0.3387  0.2367
   82CHL1  H22A 8531   1.913   5.772   8.270 -2.1416  0.8296 -0.8149
   82CHL1  H22B 8532   2.058   5.710   8.195  0.5644  0.7465 -0.3566
   82CHL1   C23 8533   2.021   5.901   8.129  0.1073  0.1229  0.3077
   82CHL1  H23A 8534   2.112   5.879   8.069 -0.2442 -0.6402  0.0447
   82CHL1  H23B 8535   1.948   5.964   8.074  2.3879  2.4573 -0.1275
   82CHL1   C24 8536   2.064   5.974   8.251 -0.3850 -0.0751 -0.1860
   82CHL1  H24A 8537   1.971   5.981   8.312 -1.3138 -0.2077 -1.5621
   82CHL1  H24B 8538   2.145   5.923   8.305  0.4049  0.9743 -0.3658
   82CHL1   C25 8539   2.107   6.127   8.231 -0.2940  0.2803 -0.4753
   82CHL1   H25 8540   2.019   6.177   8.185 -0.6147  1.9501  1.8593
   82CHL1   C26 8541   2.137   6.196   8.361  0.0918 -0.3021 -0.2118
   82CHL1  H26A 8542   2.051   6.192   8.431  1.1494 -0.4268  1.1012
   82CHL1  H26B 8543   2.227   6.154   8.410 -0.4386  1.7213  2.6404
   82CHL1  H26C 8544   2.161   6.302   8.338  0.6649 -0.2672  0.5073
   82CHL1   C27 8545   2.224   6.137   8.140 -0.3996 -0.2831  0.3877
   82CHL1  H27A 8546   2.186   6.118   8.037 -1.8385 -1.9540  1.2019
   82CHL1  H27B 8547   2.278   6.234   8.147  0.5489 -0.5203 -2.6355
   82CHL1  H27C 8548   2.291   6.051   8.163 -0.9339  0.0080  3.1598
   83CHL1    C3 8549   5.196   6.555   7.009 -0.3435  0.1808  0.9555
   83CHL1    H3 8550   5.264   6.635   7.046 -0.5936  0.0106  1.8000
   83CHL1    O3 8551   5.177   6.573   6.870 -0.1017 -0.0349 -0.0203
   83CHL1   H3' 8552   5.195   6.667   6.863 -0.4168  0.5630  5.6521
   83CHL1    C4 8553   5.277   6.423   7.033 -0.5890 -0.8117  0.4715
   83CHL1   H4A 8554   5.221   6.340   6.986 -2.7122  1.1293 -0.5315
   83CHL1   H4B 8555   5.372   6.438   6.977 -0.9335 -1.1036 -0.1948
   83CHL1    C5 8556   5.295   6.402   7.180 -0.7323 -0.7614  0.2768
   83CHL1    C6 8557   5.419   6.406   7.232  0.6638 -0.1363 -0.0271
   83CHL1    H6 8558   5.504   6.415   7.162 -1.0005  1.0772 -1.9400
   83CHL1    C7 8559   5.446   6.381   7.381 -0.5703 -0.3446  0.3785
   83CHL1   H7A 8560   5.526   6.304   7.377  0.2425  0.4743  0.5811
   83CHL1   H7B 8561   5.486   6.470   7.434  1.3448 -0.1423 -1.3477
   83CHL1    C8 8562   5.324   6.323   7.459 -0.2290 -0.3878  0.2292
   83CHL1    H8 8563   5.320   6.217   7.426 -2.3497 -0.7779  1.6433
   83CHL1   C14 8564   5.339   6.332   7.613  0.1676 -0.6737  0.3780
   83CHL1   H14 8565   5.335   6.441   7.634 -2.3115 -0.6749  0.1304
   83CHL1   C15 8566   5.471   6.280   7.678 -0.0349 -0.6967  0.4047
   83CHL1  H15A 8567   5.516   6.190   7.630  0.9797  0.4394 -0.8171
   83CHL1  H15B 8568   5.545   6.363   7.679  1.4863 -2.0011 -1.0418
   83CHL1   C16 8569   5.427   6.246   7.820 -0.8912  0.2459 -0.6416
   83CHL1  H16A 8570   5.462   6.142   7.838  1.0089  1.0626  0.4721
   83CHL1  H16B 8571   5.479   6.313   7.892  0.7756 -2.0357  0.3450
   83CHL1   C17 8572   5.268   6.264   7.833  1.1165 -0.3990 -0.6882
   83CHL1   H17 8573   5.260   6.371   7.863  0.1523 -0.3688 -1.0458
   83CHL1   C13 8574   5.225   6.256   7.690  0.4087  0.0018  0.9030
   83CHL1   C18 8575   5.225   6.104   7.651 -0.1544 -0.1772 -0.1413
   83CHL1  H18A 8576   5.144   6.049   7.704  0.8079  1.2949  2.9727
   83CHL1  H18B 8577   5.220   6.079   7.543 -0.9457 -3.4270  0.5947
   83CHL1  H18C 8578   5.313   6.054   7.695 -1.7645 -2.6067  0.4186
   83CHL1   C12 8579   5.099   6.329   7.651  0.1435  0.2746 -0.3620
   83CHL1  H12A 8580   5.007   6.289   7.699  0.7597 -0.5151  0.1795
   83CHL1  H12B 8581   5.106   6.437   7.675 -0.9805  0.3152 -0.1824
   83CHL1   C11 8582   5.072   6.326   7.502 -0.2497  0.2974 -0.1557
   83CHL1  H11A 8583   5.055   6.219   7.474  2.3389  0.4529 -2.5044
   83CHL1  H11B 8584   4.984   6.388   7.474 -0.9878 -0.2123  1.0063
   83CHL1    C9 8585   5.189   6.385   7.422 -0.5031  0.1052  0.0696
   83CHL1    H9 8586   5.195   6.487   7.464 -3.9842  1.1497 -1.7476
   83CHL1   C10 8587   5.171   6.386   7.265  0.0321  0.5718 -0.3826
   83CHL1   C19 8588   5.100   6.255   7.219  0.6690 -0.1882  0.0425
   83CHL1  H19A 8589   4.998   6.249   7.261  0.5408  0.8930 -0.1020
   83CHL1  H19B 8590   5.081   6.255   7.109 -1.0642  0.6712  0.3330
   83CHL1  H19C 8591   5.152   6.162   7.252 -0.4500 -0.6126  0.6167
   83CHL1    C1 8592   5.082   6.504   7.231 -0.5982  0.6515  0.2688
   83CHL1   H1A 8593   4.981   6.487   7.274 -0.8297  2.2296  0.3973
   83CHL1   H1B 8594   5.123   6.591   7.287 -2.7529 -0.1302  3.2066
   83CHL1    C2 8595   5.063   6.549   7.078  0.3038 -0.0421 -0.1605
   83CHL1   H2A 8596   5.018   6.650   7.075  0.6113  0.2020  2.6365
   83CHL1   H2B 8597   4.993   6.478   7.028 -0.5315 -1.3610  2.7924
   83CHL1   C20 8598   5.186   6.180   7.934  0.5992 -0.2531 -0.6536
   83CHL1   H20 8599   5.155   6.083   7.890  0.9495 -0.1304 -1.1823
   83CHL1   C21 8600   5.062   6.263   7.982  0.5331  0.6361  0.0268
   83CHL1  H21A 8601   5.104   6.348   8.041  0.1658  0.6886  0.2115
   83CHL1  H21B 8602   5.000   6.190   8.038  1.1495 -0.2102 -0.3933
   83CHL1  H21C 8603   4.998   6.300   7.899  1.4230 -1.5389 -1.6684
   83CHL1   C22 8604   5.282   6.145   8.054 -0.1037  0.7413 -0.7915
   83CHL1  H22A 8605   5.370   6.084   8.023  0.1654  1.3779 -1.3118
   83CHL1  H22B 8606   5.322   6.239   8.098 -1.1220  0.0756  1.5965
   83CHL1   C23 8607   5.216   6.075   8.174  0.8126 -0.1391  0.0139
   83CHL1  H23A 8608   5.152   6.147   8.229 -1.6853 -2.4977  0.2570
   83CHL1  H23B 8609   5.158   5.981   8.163  0.7892 -0.0575 -0.5869
   83CHL1   C24 8610   5.323   6.035   8.277  0.3454  0.1109  1.6613
   83CHL1  H24A 8611   5.391   5.958   8.234  0.1043  0.1097  1.2772
   83CHL1  H24B 8612   5.384   6.126   8.296  2.6889 -0.6897 -1.5587
   83CHL1   C25 8613   5.274   5.971   8.407 -0.7845 -0.4369 -0.6871
   83CHL1   H25 8614   5.203   5.889   8.380  0.0661 -1.9860  1.5676
   83CHL1   C26 8615   5.394   5.917   8.476  0.0448  0.6907 -0.7946
   83CHL1  H26A 8616   5.388   5.915   8.587 -0.3923 -1.1109 -0.8313
   83CHL1  H26B 8617   5.441   5.827   8.431  1.8950  2.4008 -2.3927
   83CHL1  H26C 8618   5.475   5.993   8.468 -0.0559  1.2330  2.6441
   83CHL1   C27 8619   5.191   6.080   8.494 -0.3204 -0.2630 -0.3304
   83CHL1  H27A 8620   5.114   6.125   8.427 -1.1282 -0.8373  0.1979
   83CHL1  H27B 8621   5.131   6.015   8.561  2.3430 -0.8656  1.5359
   83CHL1  H27C 8622   5.253   6.145   8.559 -0.2945 -1.2452  0.6410
   84CHL1    C3 8623   0.005   3.181   7.006  0.5701 -0.8342 -0.0044
   84CHL1    H3 8624  -0.015   3.290   6.996 -0.6041 -1.3180 -3.4542
   84CHL1    O3 8625   0.059   3.129   6.887 -0.0983  0.3528 -0.0479
   84CHL1   H3' 8626  -0.004   3.059   6.871 -0.6133  0.6384  0.7075
   84CHL1    C4 8627   0.117   3.171   7.110  0.0058 -1.2094 -0.6949
   84CHL1   H4A 8628   0.150   3.065   7.108  0.0911 -1.1658 -2.1450
   84CHL1   H4B 8629   0.201   3.232   7.071 -1.0130  0.3459 -0.4995
   84CHL1    C5 8630   0.072   3.219   7.253  0.4843 -0.6023 -0.1675
   84CHL1    C6 8631   0.132   3.324   7.312  0.0828 -0.2539 -0.2364
   84CHL1    H6 8632   0.217   3.374   7.263 -0.9334  4.0235  2.1126
   84CHL1    C7 8633   0.096   3.380   7.446  0.2501 -0.5641  0.2438
   84CHL1   H7A 8634   0.190   3.391   7.503 -0.2286  1.8347  0.6006
   84CHL1   H7B 8635   0.042   3.477   7.438  0.1009 -0.4776  2.2004
   84CHL1    C8 8636  -0.006   3.293   7.533  1.7066  0.2649 -0.1376
   84CHL1    H8 8637   0.051   3.206   7.572 -0.1453 -0.8658  0.1235
   84CHL1   C14 8638  -0.063   3.368   7.650  0.2219 -0.4524  0.3399
   84CHL1   H14 8639  -0.108   3.459   7.606 -0.8108 -0.9622  0.3240
   84CHL1   C15 8640   0.029   3.420   7.757 -0.2126 -0.2828 -0.3196
   84CHL1  H15A 8641   0.091   3.334   7.792 -1.4169 -0.3271  1.8118
   84CHL1  H15B 8642   0.102   3.498   7.726  0.1819  0.1496  1.6003
   84CHL1   C16 8643  -0.078   3.460   7.868 -0.7316 -0.5108  0.0124
   84CHL1  H16A 8644  -0.032   3.444   7.968 -0.5059 -1.3500 -0.2168
   84CHL1  H16B 8645  -0.097   3.569   7.863  0.6149 -0.2121  1.1489
   84CHL1   C17 8646  -0.216   3.399   7.833  0.5637 -0.3549  0.2007
   84CHL1   H17 8647  -0.271   3.479   7.780 -1.1808 -2.7221 -1.6871
   84CHL1   C13 8648  -0.177   3.297   7.725 -0.2736  0.4128  0.1244
   84CHL1   C18 8649  -0.127   3.169   7.788 -0.2104 -0.6708 -0.0078
   84CHL1  H18A 8650  -0.056   3.183   7.872  1.8929 -0.9278 -1.7070
   84CHL1  H18B 8651  -0.209   3.107   7.829 -0.6273 -0.3441 -0.3425
   84CHL1  H18C 8652  -0.069   3.117   7.708  2.0129  0.3737  0.9113
   84CHL1   C12 8653  -0.288   3.244   7.633 -0.4814  0.0147  0.1187
   84CHL1  H12A 8654  -0.366   3.182   7.682 -0.8196  1.7062  1.7923
   84CHL1  H12B 8655  -0.340   3.330   7.587  1.9019  2.4178  1.7307
   84CHL1   C11 8656  -0.233   3.164   7.505  1.4463 -0.2858  0.0761
   84CHL1  H11A 8657  -0.197   3.070   7.554 -0.2377 -0.4626  1.0309
   84CHL1  H11B 8658  -0.318   3.140   7.438  0.7232 -2.1482  1.6050
   84CHL1    C9 8659  -0.112   3.229   7.437  0.2573  0.6602  0.0436
   84CHL1    H9 8660  -0.142   3.326   7.391  2.3408  1.2045 -0.2181
   84CHL1   C10 8661  -0.052   3.148   7.310  0.2813 -0.5539  0.3370
   84CHL1   C19 8662  -0.026   3.001   7.348  0.6050  0.4687 -0.3966
   84CHL1  H19A 8663   0.037   2.989   7.438 -1.6817  0.8183  1.3224
   84CHL1  H19B 8664  -0.129   2.961   7.365  1.7016 -1.0658  2.9946
   84CHL1  H19C 8665   0.026   2.949   7.265  1.5029  1.1899 -0.2943
   84CHL1    C1 8666  -0.157   3.157   7.196  0.1281 -0.1575 -0.1105
   84CHL1   H1A 8667  -0.244   3.095   7.223 -0.1616  0.5440  0.5774
   84CHL1   H1B 8668  -0.193   3.260   7.176  2.8172  0.8839  0.1839
   84CHL1    C2 8669  -0.112   3.099   7.058 -1.3222  0.3755 -0.2710
   84CHL1   H2A 8670  -0.195   3.099   6.984  0.5139 -0.7179 -2.3996
   84CHL1   H2B 8671  -0.081   2.993   7.072  2.1208  1.1126 -1.8794
   84CHL1   C20 8672  -0.302   3.356   7.957  0.2636 -0.3822 -0.5344
   84CHL1   H20 8673  -0.272   3.252   7.984 -3.1695 -0.8223  2.0564
   84CHL1   C21 8674  -0.456   3.353   7.914  0.3542  0.3510 -1.3125
   84CHL1  H21A 8675  -0.519   3.362   8.005  3.8290 -0.3339  1.2804
   84CHL1  H21B 8676  -0.476   3.258   7.858  0.8442  0.0645 -1.0069
   84CHL1  H21C 8677  -0.482   3.431   7.839 -0.8987  0.6780 -0.5510
   84CHL1   C22 8678  -0.289   3.440   8.088 -0.2557 -0.1857 -0.5634
   84CHL1  H22A 8679  -0.181   3.453   8.111 -0.6196 -1.3328  2.0633
   84CHL1  H22B 8680  -0.341   3.537   8.073 -1.1267 -0.2788  1.6550
   84CHL1   C23 8681  -0.364   3.381   8.212 -0.0529 -0.5611  0.0085
   84CHL1  H23A 8682  -0.472   3.391   8.187  0.4304  3.0565 -0.8850
   84CHL1  H23B 8683  -0.348   3.273   8.234  0.5654 -0.9443 -2.2644
   84CHL1   C24 8684  -0.340   3.466   8.343  0.0511 -0.2523  0.0271
   84CHL1  H24A 8685  -0.244   3.438   8.393  1.5010  0.8271 -2.0742
   84CHL1  H24B 8686  -0.341   3.575   8.325  0.4944  0.2333  2.8244
   84CHL1   C25 8687  -0.458   3.449   8.439  0.1652  0.2410 -0.4198
   84CHL1   H25 8688  -0.495   3.344   8.447 -0.6165  0.5660  0.2175
   84CHL1   C26 8689  -0.414   3.466   8.585  0.1589 -0.1495 -0.0088
   84CHL1  H26A 8690  -0.385   3.573   8.592 -1.1685  0.1096  2.3694
   84CHL1  H26B 8691  -0.505   3.450   8.648 -0.0369  2.1638  0.3356
   84CHL1  H26C 8692  -0.330   3.396   8.604  0.9026  0.2756 -1.7014
   84CHL1   C27 8693  -0.583   3.540   8.408  0.8593 -0.3293  0.5756
   84CHL1  H27A 8694  -0.667   3.507   8.473  0.4618 -0.8924 -0.2145
   84CHL1  H27B 8695  -0.572   3.650   8.415  0.4357 -0.3178  1.0603
   84CHL1  H27C 8696  -0.625   3.521   8.307 -0.7303  0.2924  1.1061
   85CHL1    C3 8697   0.066   0.007   6.798  0.5123  0.2584  0.6353
   85CHL1    H3 8698   0.148  -0.067   6.810 -0.8435 -1.4453 -0.3142
   85CHL1    O3 8699   0.008   0.015   6.673  0.4392  0.3286  0.1219
   85CHL1   H3' 8700  -0.025   0.104   6.658  2.0909  0.5854 -2.3514
   85CHL1    C4 8701  -0.051  -0.040   6.896  0.0226 -0.4314  0.2585
   85CHL1   H4A 8702  -0.134   0.035   6.887  2.4519  2.4478  0.9043
   85CHL1   H4B 8703  -0.105  -0.132   6.866 -0.5647 -0.0447  0.0999
   85CHL1    C5 8704  -0.007  -0.029   7.040 -0.2358  0.0626 -0.5775
   85CHL1    C6 8705  -0.022  -0.142   7.111  0.9292  0.0970  0.3505
   85CHL1    H6 8706  -0.067  -0.227   7.056  3.4210 -1.3482  0.4413
   85CHL1    C7 8707   0.026  -0.166   7.247  0.1786 -0.5447  0.8240
   85CHL1   H7A 8708  -0.052  -0.226   7.300  1.0248 -2.6264 -0.2344
   85CHL1   H7B 8709   0.125  -0.215   7.252  0.7833  0.4272 -1.3142
   85CHL1    C8 8710   0.042  -0.030   7.312 -0.1185 -0.7582  0.6650
   85CHL1    H8 8711  -0.053   0.024   7.329 -0.2178 -0.5673 -0.5237
   85CHL1   C14 8712   0.100  -0.040   7.456 -0.6580 -0.0505  0.5409
   85CHL1   H14 8713   0.196  -0.096   7.449  0.1394  1.2636  0.8856
   85CHL1   C15 8714   0.008  -0.111   7.553 -0.9516  0.1314  0.5070
   85CHL1  H15A 8715  -0.100  -0.088   7.536 -1.1628  0.5437  2.3158
   85CHL1  H15B 8716   0.018  -0.222   7.549 -0.1982  0.2396 -1.4047
   85CHL1   C16 8717   0.050  -0.052   7.687 -0.2898 -0.0993  0.1904
   85CHL1  H16A 8718  -0.035   0.002   7.734 -1.3477 -0.6386 -1.0588
   85CHL1  H16B 8719   0.087  -0.126   7.761 -0.6523 -0.5015 -0.0238
   85CHL1   C17 8720   0.169   0.051   7.665 -0.0857  0.2207  0.0002
   85CHL1   H17 8721   0.256  -0.016   7.646 -0.9368 -0.9261  0.1069
   85CHL1   C13 8722   0.134   0.100   7.520  0.5078  0.3501 -1.1154
   85CHL1   C18 8723   0.010   0.192   7.530 -0.4094 -0.1412  0.3536
   85CHL1  H18A 8724   0.035   0.284   7.587 -1.0735 -0.1289  0.6252
   85CHL1  H18B 8725  -0.008   0.231   7.428  2.5474 -3.7242 -1.7060
   85CHL1  H18C 8726  -0.085   0.155   7.572  0.5262 -1.7975  1.0631
   85CHL1   C12 8727   0.250   0.161   7.439 -0.5354  0.5260  0.5956
   85CHL1  H12A 8728   0.267   0.266   7.471  0.0697  0.6190 -0.0291
   85CHL1  H12B 8729   0.341   0.098   7.447 -1.0607  0.0872  3.6926
   85CHL1   C11 8730   0.212   0.173   7.293  0.2029  0.6906  0.2574
   85CHL1  H11A 8731   0.153   0.266   7.284 -0.0499  0.3309 -2.0079
   85CHL1  H11B 8732   0.304   0.194   7.235  0.3102  1.9584  0.8730
   85CHL1    C9 8733   0.136   0.055   7.221 -0.0956  0.1164 -0.1729
   85CHL1    H9 8734   0.223  -0.008   7.192  0.3442  0.2772  0.7646
   85CHL1   C10 8735   0.069   0.098   7.091  0.4670  0.0357 -0.4111
   85CHL1   C19 8736  -0.037   0.212   7.106  0.0772  0.2847 -0.0208
   85CHL1  H19A 8737  -0.001   0.301   7.163  2.3115 -1.0307  0.6768
   85CHL1  H19B 8738  -0.061   0.245   7.003  0.0798  0.0594 -0.0937
   85CHL1  H19C 8739  -0.129   0.181   7.160  0.0633  0.1387 -0.1272
   85CHL1    C1 8740   0.171   0.147   6.987  0.2377  0.3545 -0.1544
   85CHL1   H1A 8741   0.189   0.254   7.009  1.9692  0.2450 -0.9553
   85CHL1   H1B 8742   0.263   0.085   7.000 -0.3627 -1.1166 -2.6018
   85CHL1    C2 8743   0.127   0.139   6.837  0.3170 -0.7874 -0.2963
   85CHL1   H2A 8744   0.212   0.162   6.769 -0.6118  0.3734 -1.1098
   85CHL1   H2B 8745   0.049   0.217   6.825  0.5172 -0.7909 -1.6970
   85CHL1   C20 8746   0.214   0.150   7.779  0.0903 -0.5723 -0.1955
   85CHL1   H20 8747   0.129   0.217   7.802 -1.0625 -1.5191 -1.6253
   85CHL1   C21 8748   0.335   0.242   7.740  0.2140 -0.0889  0.2063
   85CHL1  H21A 8749   0.299   0.319   7.669  1.1534 -2.8415 -3.4317
   85CHL1  H21B 8750   0.415   0.182   7.691 -0.2186 -1.6555  1.3847
   85CHL1  H21C 8751   0.375   0.307   7.820 -1.2631 -0.3428  1.1603
   85CHL1   C22 8752   0.242   0.077   7.908  0.4995  0.1298  0.3293
   85CHL1  H22A 8753   0.145   0.032   7.936  0.8091 -1.2371 -0.7396
   85CHL1  H22B 8754   0.301  -0.017   7.903  1.1726  0.5400  0.4147
   85CHL1   C23 8755   0.300   0.162   8.026  0.0800  0.3215 -0.6316
   85CHL1  H23A 8756   0.306   0.085   8.106  0.1866 -1.2880 -2.1733
   85CHL1  H23B 8757   0.402   0.199   8.002  0.3690  0.3069  0.5331
   85CHL1   C24 8758   0.194   0.265   8.070  0.0506  0.0911  0.1990
   85CHL1  H24A 8759   0.179   0.338   7.987  0.8925  2.7961  2.3698
   85CHL1  H24B 8760   0.094   0.219   8.085  0.0823 -0.3345 -0.8134
   85CHL1   C25 8761   0.228   0.344   8.198 -1.0735  0.1300 -0.2815
   85CHL1   H25 8762   0.294   0.427   8.163 -0.4545  0.1308  0.8529
   85CHL1   C26 8763   0.114   0.423   8.262 -0.0923  0.7514 -0.6874
   85CHL1  H26A 8764   0.069   0.481   8.178  0.2298  1.2286 -0.5308
   85CHL1  H26B 8765   0.043   0.360   8.320 -0.1589  0.2879 -1.2629
   85CHL1  H26C 8766   0.152   0.491   8.340 -0.4840 -0.9117  0.9748
   85CHL1   C27 8767   0.307   0.260   8.302 -0.1588  0.3510 -0.1560
   85CHL1  H27A 8768   0.248   0.183   8.356 -0.1970  0.1958 -0.4179
   85CHL1  H27B 8769   0.391   0.219   8.242 -0.4498 -0.9134  0.2789
   85CHL1  H27C 8770   0.359   0.326   8.374 -0.7661  0.3431  0.2939
   86CHL1    C3 8771   1.980   4.398   7.042 -0.7299  0.6792 -0.2871
   86CHL1    H3 8772   1.909   4.322   7.082  0.8939 -0.5075  0.3570
   86CHL1    O3 8773   2.005   4.384   6.901 -0.3302  0.4691  0.5237
   86CHL1   H3' 8774   1.995   4.473   6.866 -0.2877  0.0461 -0.5844
   86CHL1    C4 8775   1.913   4.537   7.066  0.1671  0.9696  0.0979
   86CHL1   H4A 8776   1.982   4.615   7.026  0.8999 -0.1509 -0.8444
   86CHL1   H4B 8777   1.816   4.547   7.013  1.0001 -2.0640 -2.1160
   86CHL1    C5 8778   1.880   4.553   7.217 -0.5230 -0.1722  0.3724
   86CHL1    C6 8779   1.757   4.570   7.253  0.3573  0.2415 -1.2660
   86CHL1    H6 8780   1.676   4.582   7.180  0.2645  1.4589 -0.9772
   86CHL1    C7 8781   1.712   4.588   7.399  0.6726 -0.0742 -0.0321
   86CHL1   H7A 8782   1.667   4.688   7.419  0.3068  0.3296 -2.6165
   86CHL1   H7B 8783   1.651   4.501   7.432  1.0222 -1.0754 -1.9552
   86CHL1    C8 8784   1.828   4.588   7.506 -0.4742  0.2886 -0.2965
   86CHL1    H8 8785   1.881   4.685   7.500  2.3093 -1.2498 -1.5168
   86CHL1   C14 8786   1.773   4.566   7.642 -0.4239 -0.5350  0.2172
   86CHL1   H14 8787   1.721   4.470   7.621  3.3574 -2.6342 -0.0264
   86CHL1   C15 8788   1.668   4.656   7.715 -0.2438  0.1707 -0.5419
   86CHL1  H15A 8789   1.695   4.764   7.713 -0.3705  0.2073 -0.2683
   86CHL1  H15B 8790   1.568   4.643   7.667 -0.3230  1.8907 -0.8659
   86CHL1   C16 8791   1.672   4.610   7.861  0.0320 -0.8522 -1.2504
   86CHL1  H16A 8792   1.678   4.697   7.930  0.0216 -3.0514  1.6321
   86CHL1  H16B 8793   1.578   4.560   7.896 -1.8231  2.1100 -1.8906
   86CHL1   C17 8794   1.794   4.519   7.873 -0.1647  0.5128  0.0153
   86CHL1   H17 8795   1.760   4.414   7.861  0.6896  0.3784 -1.3883
   86CHL1   C13 8796   1.883   4.540   7.748  0.1690  0.0047 -0.5725
   86CHL1   C18 8797   1.959   4.674   7.769 -0.0401 -0.7679  0.0190
   86CHL1  H18A 8798   1.985   4.716   7.669 -0.2038  1.6213  0.9358
   86CHL1  H18B 8799   1.902   4.754   7.820  1.6183  1.2132 -1.1434
   86CHL1  H18C 8800   2.060   4.671   7.815  0.0907  4.5799  0.4057
   86CHL1   C12 8801   1.975   4.425   7.698  0.6688  0.1246  0.8665
   86CHL1  H12A 8802   2.058   4.412   7.771  1.2037  0.4519  0.3152
   86CHL1  H12B 8803   1.931   4.323   7.687  0.7145  0.3143 -1.2666
   86CHL1   C11 8804   2.037   4.456   7.569 -0.5190  0.5064  0.7975
   86CHL1  H11A 8805   2.117   4.533   7.573  0.8599 -0.8987  0.5002
   86CHL1  H11B 8806   2.091   4.362   7.545 -2.3467 -0.2285 -0.5753
   86CHL1    C9 8807   1.932   4.484   7.463 -0.5350 -0.4582 -1.1737
   86CHL1    H9 8808   1.870   4.392   7.452 -1.4062  0.2109 -1.8672
   86CHL1   C10 8809   1.984   4.517   7.322 -0.3445  0.6258  0.1544
   86CHL1   C19 8810   2.085   4.638   7.315 -1.2434  0.1878  0.3850
   86CHL1  H19A 8811   2.164   4.619   7.391 -1.3785 -1.2282  0.1918
   86CHL1  H19B 8812   2.136   4.645   7.217 -1.8869 -0.7496 -0.0295
   86CHL1  H19C 8813   2.031   4.728   7.350  0.0042  0.0985  2.6577
   86CHL1    C1 8814   2.078   4.396   7.273  0.3027 -0.1167 -0.2723
   86CHL1   H1A 8815   2.174   4.391   7.329 -0.8030  0.8073  1.7571
   86CHL1   H1B 8816   2.018   4.307   7.301  0.8591 -0.6451 -0.7487
   86CHL1    C2 8817   2.111   4.392   7.121  0.3386  0.0447  0.4531
   86CHL1   H2A 8818   2.164   4.296   7.107  1.1105  0.1172  2.7112
   86CHL1   H2B 8819   2.170   4.482   7.092  0.6027  0.1816  1.4107
   86CHL1   C20 8820   1.877   4.522   8.011  0.6490 -0.4895 -0.1051
   86CHL1   H20 8821   1.984   4.506   7.988  0.7646 -0.1347  0.1922
   86CHL1   C21 8822   1.838   4.394   8.092 -0.2391  1.0148  0.2656
   86CHL1  H21A 8823   1.828   4.304   8.027  2.5934  0.6778  0.2645
   86CHL1  H21B 8824   1.742   4.423   8.140 -0.6511 -3.0481  2.0549
   86CHL1  H21C 8825   1.905   4.376   8.178  0.9294  0.6501 -0.7008
   86CHL1   C22 8826   1.855   4.652   8.096 -0.4233 -0.4805 -0.5184
   86CHL1  H22A 8827   1.872   4.743   8.036  3.3793 -0.2775  0.6895
   86CHL1  H22B 8828   1.753   4.646   8.138  0.5334 -2.7152  1.6332
   86CHL1   C23 8829   1.954   4.668   8.212  0.5543  0.0717  0.3814
   86CHL1  H23A 8830   1.936   4.590   8.288 -5.0307  1.1405  0.3705
   86CHL1  H23B 8831   2.055   4.660   8.166  0.4379  2.3436 -0.3675
   86CHL1   C24 8832   1.946   4.799   8.290 -0.3970 -0.2055  0.4943
   86CHL1  H24A 8833   1.964   4.879   8.216  0.7945  0.6544  1.6952
   86CHL1  H24B 8834   1.843   4.814   8.329 -1.1677  0.6856 -1.8020
   86CHL1   C25 8835   2.042   4.820   8.399  0.4249 -0.3631  0.0453
   86CHL1   H25 8836   2.134   4.770   8.363  0.3884  0.9465 -1.9397
   86CHL1   C26 8837   2.072   4.970   8.427 -0.1245  0.1605  0.0771
   86CHL1  H26A 8838   2.164   4.981   8.489  1.0363 -3.5936 -0.8782
   86CHL1  H26B 8839   2.083   5.019   8.327  3.2098  0.7631  0.6798
   86CHL1  H26C 8840   1.987   5.017   8.480 -0.9659  0.1402 -1.2426
   86CHL1   C27 8841   2.004   4.753   8.529  0.1503  0.2717  0.0223
   86CHL1  H27A 8842   2.018   4.644   8.518 -0.3172  0.1369  0.7436
   86CHL1  H27B 8843   2.067   4.796   8.610  1.5574 -0.6505 -0.5509
   86CHL1  H27C 8844   1.902   4.779   8.565 -0.2191 -1.4533  0.2389
   87CHL1    C3 8845   1.705   2.766   7.162  0.9403 -0.4017  0.0559
   87CHL1    H3 8846   1.689   2.658   7.182 -1.4095 -0.0856  0.0305
   87CHL1    O3 8847   1.707   2.791   7.019  0.5969  0.3157  0.2593
   87CHL1   H3' 8848   1.653   2.715   6.996  1.8254  0.0363 -1.7989
   87CHL1    C4 8849   1.593   2.849   7.227  0.1145  0.0724  0.2622
   87CHL1   H4A 8850   1.621   2.956   7.212  0.1110 -0.0907 -0.9254
   87CHL1   H4B 8851   1.497   2.843   7.171  1.6085 -0.1973 -2.3755
   87CHL1    C5 8852   1.582   2.817   7.378  0.2758  0.4208 -0.0553
   87CHL1    C6 8853   1.477   2.750   7.429  0.1942 -0.1469  0.3319
   87CHL1    H6 8854   1.385   2.741   7.370 -0.2218  0.3093  0.9022
   87CHL1    C7 8855   1.453   2.720   7.576 -0.4995  0.6044  0.0736
   87CHL1   H7A 8856   1.358   2.743   7.628  0.0437  3.0950  0.0218
   87CHL1   H7B 8857   1.468   2.612   7.594  0.4978  0.4140 -1.8047
   87CHL1    C8 8858   1.558   2.792   7.665  0.2226  0.0399 -0.0723
   87CHL1    H8 8859   1.527   2.899   7.669  0.2367  0.0950 -1.2530
   87CHL1   C14 8860   1.555   2.736   7.805  0.1711 -0.2393  0.3908
   87CHL1   H14 8861   1.575   2.628   7.796 -0.1346 -0.1849 -0.9804
   87CHL1   C15 8862   1.427   2.737   7.892  0.0265  0.7425 -0.3850
   87CHL1  H15A 8863   1.382   2.838   7.903 -0.6066  0.4339 -0.0665
   87CHL1  H15B 8864   1.352   2.661   7.859  0.2160  1.2405 -1.9810
   87CHL1   C16 8865   1.475   2.704   8.036  0.6204 -0.2504  0.0060
   87CHL1  H16A 8866   1.418   2.779   8.096 -0.7928  0.8589 -2.6167
   87CHL1  H16B 8867   1.437   2.606   8.070 -2.6155  0.8921 -0.0683
   87CHL1   C17 8868   1.624   2.700   8.029 -0.0175  0.4148 -0.3658
   87CHL1   H17 8869   1.650   2.597   7.995  2.4953  0.2716  1.8166
   87CHL1   C13 8870   1.660   2.791   7.905 -0.5723  0.1412  0.4425
   87CHL1   C18 8871   1.625   2.946   7.936 -0.0259  0.0076  0.4914
   87CHL1  H18A 8872   1.693   3.019   7.886 -2.1033  2.7617  1.6235
   87CHL1  H18B 8873   1.530   2.975   7.887  0.4014 -0.2109 -0.4833
   87CHL1  H18C 8874   1.614   2.971   8.043  1.0286  1.7484  0.2228
   87CHL1   C12 8875   1.796   2.772   7.846 -0.1826 -0.0020  0.2712
   87CHL1  H12A 8876   1.871   2.799   7.923  0.0054  1.4444 -0.3954
   87CHL1  H12B 8877   1.804   2.662   7.831  0.8889  0.1052 -0.0250
   87CHL1   C11 8878   1.799   2.838   7.708 -0.5420 -0.0471  0.6774
   87CHL1  H11A 8879   1.765   2.942   7.725 -0.9742 -0.2028  0.7794
   87CHL1  H11B 8880   1.902   2.850   7.668 -0.4957  0.5502  0.9720
   87CHL1    C9 8881   1.702   2.780   7.605 -0.5023 -0.7114  0.3687
   87CHL1    H9 8882   1.712   2.669   7.602 -2.6384 -1.0085  2.5083
   87CHL1   C10 8883   1.718   2.834   7.461 -0.3359  0.2191  0.2709
   87CHL1   C19 8884   1.743   2.986   7.468 -0.5407 -0.1336 -0.2076
   87CHL1  H19A 8885   1.725   3.034   7.369 -1.1747 -0.4091 -0.2259
   87CHL1  H19B 8886   1.668   3.029   7.539  0.2151  0.5340  0.1930
   87CHL1  H19C 8887   1.842   3.011   7.511 -0.2384 -1.8764  0.1303
   87CHL1    C1 8888   1.828   2.757   7.385 -0.4342 -0.4625  0.1724
   87CHL1   H1A 8889   1.925   2.775   7.437 -0.2020 -1.8127  0.2235
   87CHL1   H1B 8890   1.815   2.649   7.407 -0.4759 -0.6053 -0.5543
   87CHL1    C2 8891   1.839   2.792   7.236 -0.4838 -0.5138  0.6870
   87CHL1   H2A 8892   1.924   2.736   7.191  0.6775 -0.2888  2.5590
   87CHL1   H2B 8893   1.864   2.899   7.225 -3.1264 -0.0485 -1.3583
   87CHL1   C20 8894   1.702   2.721   8.166 -0.7449  0.0207  0.2187
   87CHL1   H20 8895   1.751   2.821   8.167  1.7735 -1.0624 -3.1340
   87CHL1   C21 8896   1.820   2.618   8.167 -0.0443  0.0310  0.1055
   87CHL1  H21A 8897   1.778   2.516   8.175  1.5405 -0.7855 -1.8069
   87CHL1  H21B 8898   1.876   2.637   8.261 -0.6195 -1.3199  0.7359
   87CHL1  H21C 8899   1.900   2.621   8.090 -0.3720  0.8789 -0.2093
   87CHL1   C22 8900   1.608   2.716   8.289  0.7277 -0.8220 -0.0656
   87CHL1  H22A 8901   1.524   2.788   8.274  1.1094 -0.6010 -1.2204
   87CHL1  H22B 8902   1.560   2.616   8.291  0.0359 -0.4859  0.3269
   87CHL1   C23 8903   1.682   2.747   8.420  0.3147  0.0526 -0.0599
   87CHL1  H23A 8904   1.748   2.662   8.447  0.0236 -0.0035  0.4712
   87CHL1  H23B 8905   1.751   2.834   8.408  1.3752 -0.5870  1.2568
   87CHL1   C24 8906   1.604   2.775   8.553  0.6262  0.6234  0.4512
   87CHL1  H24A 8907   1.512   2.837   8.541  1.5726  1.8127 -0.8827
   87CHL1  H24B 8908   1.553   2.681   8.581  2.3451  0.3408  2.7991
   87CHL1   C25 8909   1.685   2.815   8.680 -0.0015 -0.4958 -0.6015
   87CHL1   H25 8910   1.609   2.801   8.760 -1.2985 -0.2900 -1.7574
   87CHL1   C26 8911   1.810   2.721   8.712 -0.1693 -0.2977  0.7958
   87CHL1  H26A 8912   1.852   2.720   8.815 -0.2831  1.5335  0.8757
   87CHL1  H26B 8913   1.769   2.618   8.704  0.9807 -0.6158 -1.2903
   87CHL1  H26C 8914   1.889   2.737   8.636  0.8032 -3.0107  1.2142
   87CHL1   C27 8915   1.716   2.966   8.685  0.4234  0.0783  0.3720
   87CHL1  H27A 8916   1.785   2.995   8.766 -0.3613 -0.4612  1.2485
   87CHL1  H27B 8917   1.764   3.004   8.593  0.9800  2.1138  1.4775
   87CHL1  H27C 8918   1.622   3.025   8.690  0.3873  0.1542 -1.0791
   88CHL1    C3 8919   6.805   1.342   6.971 -0.7747 -0.2030  0.5332
   88CHL1    H3 8920   6.912   1.369   6.963 -1.5485  2.6439 -0.4236
   88CHL1    O3 8921   6.760   1.314   6.836 -0.0895  0.6600  0.0773
   88CHL1   H3' 8922   6.747   1.404   6.806  1.4571  0.7480 -0.3955
   88CHL1    C4 8923   6.769   1.224   7.060 -0.3477  0.3219 -0.4473
   88CHL1   H4A 8924   6.660   1.204   7.051 -0.2176 -0.1145 -1.0801
   88CHL1   H4B 8925   6.816   1.129   7.028  0.6107  0.3888  0.7536
   88CHL1    C5 8926   6.804   1.250   7.203  0.1841  0.2587  0.8980
   88CHL1    C6 8927   6.898   1.174   7.271 -0.1314 -0.0700  0.0704
   88CHL1    H6 8928   6.951   1.096   7.214 -1.0106  0.4030 -1.4178
   88CHL1    C7 8929   6.948   1.203   7.407 -0.0432  0.1865 -0.7068
   88CHL1   H7A 8930   6.955   1.109   7.466  1.0687  1.1087  0.6471
   88CHL1   H7B 8931   7.053   1.238   7.400 -0.4898  2.1904  2.0631
   88CHL1    C8 8932   6.844   1.292   7.480 -0.4556  0.8296  0.4932
   88CHL1    H8 8933   6.747   1.238   7.488 -2.0018  3.3623 -0.4306
   88CHL1   C14 8934   6.906   1.334   7.621 -0.1771 -0.1785 -0.7586
   88CHL1   H14 8935   7.002   1.388   7.606 -0.2041 -0.1149 -0.7040
   88CHL1   C15 8936   6.941   1.221   7.724  0.0811  0.5661  0.2171
   88CHL1  H15A 8937   6.867   1.144   7.696  2.1996 -1.5016  0.1649
   88CHL1  H15B 8938   7.041   1.173   7.719 -0.4281 -0.8373  2.5166
   88CHL1   C16 8939   6.935   1.288   7.859 -0.4262  0.3792 -0.2486
   88CHL1  H16A 8940   6.866   1.233   7.927  0.5504  0.8152  1.1192
   88CHL1  H16B 8941   7.033   1.289   7.911 -0.5348  2.3796 -0.0437
   88CHL1   C17 8942   6.890   1.437   7.832 -0.0657 -0.2302 -0.1240
   88CHL1   H17 8943   6.981   1.499   7.814 -1.7647  2.3383 -0.2188
   88CHL1   C13 8944   6.821   1.434   7.699 -0.5608  0.9093  0.1907
   88CHL1   C18 8945   6.680   1.380   7.718 -0.0700 -0.3385  0.0289
   88CHL1  H18A 8946   6.642   1.331   7.626  1.0138  1.2986 -1.3223
   88CHL1  H18B 8947   6.673   1.311   7.805 -0.7812  0.8893  0.9650
   88CHL1  H18C 8948   6.612   1.463   7.747 -1.0908 -1.7898  1.8858
   88CHL1   C12 8949   6.815   1.563   7.610 -0.4317  0.2604 -0.4392
   88CHL1  H12A 8950   6.748   1.642   7.650  0.6210  1.2946 -0.6949
   88CHL1  H12B 8951   6.916   1.608   7.609  0.3966 -1.4544  2.1046
   88CHL1   C11 8952   6.752   1.536   7.469  0.0456 -0.4491 -0.1209
   88CHL1  H11A 8953   6.646   1.513   7.492 -0.2766  0.2102 -0.9307
   88CHL1  H11B 8954   6.752   1.618   7.394 -1.7446 -0.0399  0.3130
   88CHL1    C9 8955   6.818   1.418   7.396 -0.6906  0.3090 -0.4334
   88CHL1    H9 8956   6.919   1.457   7.373  0.0546  0.3066  2.6331
   88CHL1   C10 8957   6.752   1.379   7.258  0.0941  0.1506  0.0374
   88CHL1   C19 8958   6.599   1.368   7.296 -0.0118 -0.3480  0.4602
   88CHL1  H19A 8959   6.559   1.464   7.335  1.0879 -0.5907  2.2229
   88CHL1  H19B 8960   6.546   1.343   7.201 -4.2554  1.7370  2.1702
   88CHL1  H19C 8961   6.589   1.288   7.372  0.8439 -0.2926  0.6309
   88CHL1    C1 8962   6.767   1.501   7.166 -0.2322  0.0006  0.8461
   88CHL1   H1A 8963   6.701   1.588   7.186  1.1759  1.8961 -2.3131
   88CHL1   H1B 8964   6.869   1.544   7.175  0.3569 -1.2034  0.1403
   88CHL1    C2 8965   6.731   1.467   7.018  0.0328 -0.5410 -0.9632
   88CHL1   H2A 8966   6.753   1.559   6.959 -1.8038  0.8634  0.5069
   88CHL1   H2B 8967   6.624   1.452   6.992 -0.6856  0.5020  1.2912
   88CHL1   C20 8968   6.825   1.503   7.952  0.5030 -1.3131 -0.2839
   88CHL1   H20 8969   6.725   1.459   7.974  1.4169 -2.4095  1.7980
   88CHL1   C21 8970   6.800   1.654   7.924 -0.0935 -0.4290  0.2000
   88CHL1  H21A 8971   6.714   1.662   7.855  0.0072 -1.9894 -0.1237
   88CHL1  H21B 8972   6.890   1.700   7.878 -0.0028  0.1516  0.9588
   88CHL1  H21C 8973   6.785   1.708   8.020  0.4355 -1.6695  1.0006
   88CHL1   C22 8974   6.906   1.484   8.089  0.5693  0.0588 -0.3739
   88CHL1  H22A 8975   6.913   1.374   8.095 -3.2987 -0.1763  2.4537
   88CHL1  H22B 8976   7.001   1.538   8.070  1.6859 -2.1224 -1.0488
   88CHL1   C23 8977   6.830   1.530   8.213 -0.1015 -0.4257 -0.1216
   88CHL1  H23A 8978   6.821   1.641   8.208 -0.1940 -0.4295 -0.0328
   88CHL1  H23B 8979   6.729   1.485   8.225 -1.6601  2.9134 -0.1912
   88CHL1   C24 8980   6.905   1.495   8.347  0.3624 -0.1593  0.0257
   88CHL1  H24A 8981   6.892   1.386   8.366 -1.7593  0.4979  2.6834
   88CHL1  H24B 8982   7.011   1.520   8.329 -0.2925  2.3675 -0.4690
   88CHL1   C25 8983   6.862   1.574   8.468 -0.1710  0.0024 -0.4757
   88CHL1   H25 8984   6.865   1.680   8.435  0.6760 -0.2770 -1.3527
   88CHL1   C26 8985   6.716   1.543   8.499  0.7012 -0.2175 -0.2384
   88CHL1  H26A 8986   6.673   1.611   8.576  0.4432 -0.5449 -0.0907
   88CHL1  H26B 8987   6.647   1.559   8.413  0.3979 -0.5602 -0.0628
   88CHL1  H26C 8988   6.703   1.445   8.548 -1.4678 -1.4091 -3.0571
   88CHL1   C27 8989   6.964   1.549   8.573  0.2105 -0.1613 -0.9896
   88CHL1  H27A 8990   6.954   1.446   8.615 -0.1323  0.0666 -0.5046
   88CHL1  H27B 8991   7.070   1.568   8.545  0.3600  0.0836 -0.2851
   88CHL1  H27C 8992   6.936   1.617   8.656  0.0732 -1.1643 -0.1968
   89CHL1    C3 8993   2.887   3.734   6.967  0.9378 -0.1353  1.1007
   89CHL1    H3 8994   2.849   3.631   6.949  1.3393 -0.1641  0.3924
   89CHL1    O3 8995   2.937   3.789   6.843  0.3046 -0.2865  0.7394
   89CHL1   H3' 8996   3.009   3.731   6.817 -2.5973 -2.8941 -2.0250
   89CHL1    C4 8997   2.775   3.839   7.002  0.2150  0.1647 -0.4285
   89CHL1   H4A 8998   2.829   3.935   7.015 -1.7575  1.1380  0.8601
   89CHL1   H4B 8999   2.700   3.852   6.921  0.1834 -1.8582 -0.7483
   89CHL1    C5 9000   2.716   3.819   7.137 -0.1031 -0.3140  0.5707
   89CHL1    C6 9001   2.583   3.809   7.154  0.3729 -0.4445  0.0300
   89CHL1    H6 9002   2.524   3.814   7.062 -0.6749 -0.7826  0.6817
   89CHL1    C7 9003   2.519   3.791   7.285  0.2013 -0.1763  0.0267
   89CHL1   H7A 9004   2.422   3.844   7.291  0.1885 -0.2953  1.0117
   89CHL1   H7B 9005   2.491   3.685   7.303  0.7050 -0.3671 -0.3099
   89CHL1    C8 9006   2.623   3.804   7.406 -0.3794  0.8071 -0.2795
   89CHL1    H8 9007   2.633   3.909   7.441 -1.3588 -0.1405  3.1230
   89CHL1   C14 9008   2.565   3.731   7.530  0.4790 -0.1342 -0.3990
   89CHL1   H14 9009   2.566   3.623   7.505 -0.0539 -0.2259  0.0035
   89CHL1   C15 9010   2.415   3.760   7.564  0.0983  0.3877 -0.0740
   89CHL1  H15A 9011   2.396   3.865   7.534 -2.3221 -0.6678 -2.3499
   89CHL1  H15B 9012   2.352   3.704   7.492 -0.7113 -0.7326  1.4726
   89CHL1   C16 9013   2.404   3.735   7.714  0.2617 -0.1045  0.1448
   89CHL1  H16A 9014   2.382   3.828   7.771  0.7492  0.0256  0.1250
   89CHL1  H16B 9015   2.338   3.649   7.740 -0.2231 -0.4258 -2.0812
   89CHL1   C17 9016   2.546   3.694   7.762 -0.8958 -0.4340 -0.2518
   89CHL1   H17 9017   2.556   3.584   7.751 -1.2414 -0.6907  1.8406
   89CHL1   C13 9018   2.644   3.760   7.654 -0.1109 -0.3791  0.4759
   89CHL1   C18 9019   2.653   3.910   7.696 -0.7725  1.0785  0.8792
   89CHL1  H18A 9020   2.700   3.902   7.797  2.6483 -2.3197 -0.8642
   89CHL1  H18B 9021   2.714   3.969   7.625  0.9332 -2.1284 -0.3948
   89CHL1  H18C 9022   2.551   3.953   7.693 -1.1606  0.0474 -2.6499
   89CHL1   C12 9023   2.780   3.691   7.630  0.7221 -0.5711 -0.2882
   89CHL1  H12A 9024   2.849   3.707   7.716 -1.4140 -0.2569  1.4292
   89CHL1  H12B 9025   2.756   3.583   7.623  2.0600 -0.8853 -0.0676
   89CHL1   C11 9026   2.847   3.730   7.502  0.3506  0.5961  0.1439
   89CHL1  H11A 9027   2.896   3.829   7.512  0.3183  0.6585 -0.2841
   89CHL1  H11B 9028   2.930   3.661   7.476 -0.5040 -0.0259 -0.9808
   89CHL1    C9 9029   2.752   3.739   7.373  0.4429  0.1730  0.0520
   89CHL1    H9 9030   2.734   3.635   7.339 -0.8935  0.2376  0.5229
   89CHL1   C10 9031   2.817   3.809   7.253 -0.6811  0.7782 -0.1691
   89CHL1   C19 9032   2.860   3.956   7.281 -0.1896 -0.2368  0.2494
   89CHL1  H19A 9033   2.892   4.011   7.190  0.3443 -1.1439 -0.1205
   89CHL1  H19B 9034   2.786   4.013   7.341 -0.1851  0.3477 -0.2906
   89CHL1  H19C 9035   2.950   3.948   7.345 -0.6220  0.6532  0.9745
   89CHL1    C1 9036   2.941   3.717   7.214  0.0685  0.8600  0.2311
   89CHL1   H1A 9037   3.027   3.722   7.283  0.5298  1.0831 -0.3559
   89CHL1   H1B 9038   2.913   3.609   7.211 -0.6188  1.0596 -1.9158
   89CHL1    C2 9039   2.993   3.743   7.073 -0.2413 -0.1044  0.3266
   89CHL1   H2A 9040   3.079   3.677   7.048  2.0346  1.8626  2.6640
   89CHL1   H2B 9041   3.024   3.850   7.066  0.3168 -0.3573 -1.2201
   89CHL1   C20 9042   2.570   3.716   7.909  0.3712  1.2784  0.9476
   89CHL1   H20 9043   2.591   3.823   7.927 -0.9348  1.4300  1.6071
   89CHL1   C21 9044   2.703   3.646   7.950  0.4710 -0.4349  1.4397
   89CHL1  H21A 9045   2.715   3.543   7.909  2.3701  0.2419  0.2223
   89CHL1  H21B 9046   2.732   3.648   8.057 -1.7298 -1.8212  2.0948
   89CHL1  H21C 9047   2.782   3.711   7.907 -0.3533 -0.0883  0.4291
   89CHL1   C22 9048   2.456   3.662   8.010  0.0631  0.7192  1.4394
   89CHL1  H22A 9049   2.355   3.694   7.977 -0.2490 -1.4659  0.1796
   89CHL1  H22B 9050   2.467   3.553   7.995  1.2663  0.8010  1.6919
   89CHL1   C23 9051   2.471   3.699   8.153  0.0501 -0.0143 -0.3821
   89CHL1  H23A 9052   2.568   3.662   8.193 -1.0820 -0.2528  2.3118
   89CHL1  H23B 9053   2.473   3.810   8.157 -0.0629 -0.0203 -0.1538
   89CHL1   C24 9054   2.355   3.641   8.253  0.6331 -0.3540 -0.4580
   89CHL1  H24A 9055   2.336   3.534   8.233 -0.2793 -0.6971  2.1224
   89CHL1  H24B 9056   2.395   3.655   8.356 -3.1783  1.7780  0.8187
   89CHL1   C25 9057   2.231   3.717   8.243  0.0909 -0.5056  0.4559
   89CHL1   H25 9058   2.211   3.728   8.134 -1.5387 -2.0668  0.5705
   89CHL1   C26 9059   2.114   3.637   8.304 -0.2425  0.1813  0.1514
   89CHL1  H26A 9060   2.152   3.608   8.404  0.2986  1.0602  0.2075
   89CHL1  H26B 9061   2.022   3.696   8.320 -1.8659 -1.7765 -1.7116
   89CHL1  H26C 9062   2.087   3.547   8.245  0.0024 -0.5019  1.0771
   89CHL1   C27 9063   2.245   3.858   8.315  0.2445  0.1961  0.5777
   89CHL1  H27A 9064   2.141   3.896   8.312 -0.7958 -2.3853  2.3231
   89CHL1  H27B 9065   2.280   3.840   8.419 -1.1264  1.9449  1.3640
   89CHL1  H27C 9066   2.318   3.931   8.273 -0.0959  0.3008  0.1691
   90CHL1    C3 9067   2.978   5.676   6.896 -0.3424 -0.8550  0.2212
   90CHL1    H3 9068   3.037   5.582   6.899  1.6785  0.3216 -0.7194
   90CHL1    O3 9069   2.941   5.694   6.759  0.0222  0.1948  0.2611
   90CHL1   H3' 9070   2.913   5.786   6.752 -0.0689  0.1149 -0.3802
   90CHL1    C4 9071   2.851   5.688   6.982 -0.2536 -0.0336  0.0383
   90CHL1   H4A 9072   2.812   5.791   6.970  0.1868  0.3081  1.4912
   90CHL1   H4B 9073   2.778   5.617   6.937 -0.1504 -0.7637  1.0134
   90CHL1    C5 9074   2.887   5.668   7.124  0.8147  0.3839  0.0278
   90CHL1    C6 9075   2.835   5.563   7.194  0.7312  0.1018  0.2688
   90CHL1    H6 9076   2.755   5.508   7.144 -1.5117  2.1645  1.4699
   90CHL1    C7 9077   2.859   5.535   7.343 -0.2300  0.3413  0.5546
   90CHL1   H7A 9078   2.764   5.504   7.391  0.5415 -1.4191  1.0080
   90CHL1   H7B 9079   2.928   5.448   7.357 -0.6790 -0.1572 -0.2639
   90CHL1    C8 9080   2.910   5.662   7.409 -0.5760 -0.1378 -0.1765
   90CHL1    H8 9081   2.824   5.733   7.407 -2.5997 -2.5719 -2.3326
   90CHL1   C14 9082   2.960   5.630   7.546 -0.1443  0.3412  0.2940
   90CHL1   H14 9083   3.044   5.557   7.541 -0.3864 -0.0158  1.3867
   90CHL1   C15 9084   2.840   5.580   7.643 -0.4778  0.2298  0.0355
   90CHL1  H15A 9085   2.746   5.629   7.609  0.7561  1.1474 -2.2036
   90CHL1  H15B 9086   2.831   5.470   7.629  0.4285  0.2487 -0.7672
   90CHL1   C16 9087   2.891   5.616   7.783  0.1734  0.8602  0.6923
   90CHL1  H16A 9088   2.820   5.674   7.845  0.5455 -0.3315  2.2514
   90CHL1  H16B 9089   2.909   5.519   7.834  0.8361  1.4388  1.5686
   90CHL1   C17 9090   3.024   5.695   7.759 -0.3618 -0.4620  0.1699
   90CHL1   H17 9091   3.112   5.627   7.757  0.7269  0.9066  0.3808
   90CHL1   C13 9092   3.019   5.753   7.621  0.6307  0.9022 -0.2433
   90CHL1   C18 9093   2.918   5.870   7.624 -0.5784  0.7821 -0.0387
   90CHL1  H18A 9094   2.896   5.912   7.524 -1.6316  0.9912  0.2713
   90CHL1  H18B 9095   2.825   5.849   7.682  0.0066  0.4583  0.8031
   90CHL1  H18C 9096   2.965   5.959   7.672  1.7942  0.3615 -1.5212
   90CHL1   C12 9097   3.150   5.788   7.551 -0.3346 -0.0525  0.5485
   90CHL1  H12A 9098   3.195   5.879   7.597 -0.6849 -1.1684  3.1792
   90CHL1  H12B 9099   3.217   5.700   7.564 -1.4095 -0.9927 -0.2498
   90CHL1   C11 9100   3.126   5.813   7.398 -0.0821 -0.7299  0.0036
   90CHL1  H11A 9101   3.078   5.913   7.402 -0.8908 -1.1463  0.8165
   90CHL1  H11B 9102   3.226   5.822   7.349 -0.2105 -0.6990 -0.2533
   90CHL1    C9 9103   3.029   5.713   7.327  0.2739  0.5513  0.3122
   90CHL1    H9 9104   3.099   5.630   7.300 -0.7797  0.0100 -0.8162
   90CHL1   C10 9105   2.985   5.759   7.181 -0.0427 -0.2982  0.3752
   90CHL1   C19 9106   2.931   5.902   7.193  0.7205  0.4890 -0.6242
   90CHL1  H19A 9107   2.891   5.936   7.095  0.7531  1.0805 -0.4302
   90CHL1  H19B 9108   2.850   5.912   7.268  0.5361  2.2526 -1.0524
   90CHL1  H19C 9109   3.015   5.971   7.215 -0.6213  1.4329  1.6508
   90CHL1    C1 9110   3.112   5.765   7.085  0.6400  0.3107 -0.1060
   90CHL1   H1A 9111   3.172   5.851   7.119  0.6687 -0.3412  1.5456
   90CHL1   H1B 9112   3.155   5.663   7.094 -1.3304 -0.5700 -0.3553
   90CHL1    C2 9113   3.071   5.784   6.938 -0.7267 -0.4718  0.2780
   90CHL1   H2A 9114   3.161   5.787   6.873 -0.6766 -4.0453  0.1215
   90CHL1   H2B 9115   3.021   5.883   6.924  1.1420  0.1913 -2.2416
   90CHL1   C20 9116   3.051   5.786   7.880  0.7992  0.2593  0.2517
   90CHL1   H20 9117   2.964   5.851   7.903  1.0522  0.3935  0.8424
   90CHL1   C21 9118   3.183   5.866   7.871  0.7423 -0.1757  0.5431
   90CHL1  H21A 9119   3.257   5.790   7.838  0.7430 -0.2494  0.7136
   90CHL1  H21B 9120   3.207   5.934   7.956 -2.1457  1.8699 -0.2031
   90CHL1  H21C 9121   3.178   5.945   7.792 -0.3811 -0.8856 -0.1009
   90CHL1   C22 9122   3.060   5.704   8.011  0.2437  0.1939 -0.4782
   90CHL1  H22A 9123   2.975   5.636   8.033  1.1534 -0.2051  1.9530
   90CHL1  H22B 9124   3.155   5.648   7.997  0.1159  0.4165 -2.4709
   90CHL1   C23 9125   3.051   5.794   8.129  0.1480  0.4712 -0.1410
   90CHL1  H23A 9126   3.145   5.853   8.134  1.9191 -2.2087 -0.7209
   90CHL1  H23B 9127   2.972   5.870   8.113  0.4004  0.5809 -0.9268
   90CHL1   C24 9128   3.026   5.711   8.256 -0.3878  0.2920  0.5184
   90CHL1  H24A 9129   2.933   5.655   8.234 -0.0096 -0.3104  0.4184
   90CHL1  H24B 9130   3.111   5.640   8.266 -1.3938 -0.6359  2.8560
   90CHL1   C25 9131   3.031   5.784   8.387  0.0728 -0.0547  0.3681
   90CHL1   H25 9132   3.102   5.868   8.377 -0.1685  0.0638 -0.3925
   90CHL1   C26 9133   2.890   5.853   8.411 -0.2565  0.4328 -0.0205
   90CHL1  H26A 9134   2.901   5.910   8.506 -1.6885  1.2366 -0.3346
   90CHL1  H26B 9135   2.857   5.921   8.330 -3.0056  0.1082  0.7843
   90CHL1  H26C 9136   2.814   5.773   8.420  0.3318 -0.1438 -0.0633
   90CHL1   C27 9137   3.096   5.710   8.503  0.2731 -0.2870 -0.0818
   90CHL1  H27A 9138   3.040   5.617   8.528 -2.8335  1.5294  0.0693
   90CHL1  H27B 9139   3.206   5.695   8.497  0.2352 -0.5473 -0.1046
   90CHL1  H27C 9140   3.075   5.776   8.590 -0.4553 -1.9429  1.0244
   91CHL1    C3 9141   4.160   0.440   7.258 -0.7875  0.2179 -0.1437
   91CHL1    H3 9142   4.197   0.528   7.314  0.3586  0.5479 -1.3819
   91CHL1    O3 9143   4.162   0.463   7.118  0.7680 -0.0709 -0.0347
   91CHL1   H3' 9144   4.141   0.382   7.071 -1.5665  1.1309 -1.1568
   91CHL1    C4 9145   4.249   0.319   7.296  0.0714 -0.0646 -0.7460
   91CHL1   H4A 9146   4.232   0.227   7.235  1.1355 -0.5568 -0.3163
   91CHL1   H4B 9147   4.350   0.349   7.262 -1.4562  3.7855 -2.1212
   91CHL1    C5 9148   4.236   0.285   7.446 -0.1523 -0.2322 -0.1236
   91CHL1    C6 9149   4.339   0.301   7.528 -0.9695  0.1580 -0.9817
   91CHL1    H6 9150   4.438   0.323   7.487 -1.6817 -1.0380 -3.4627
   91CHL1    C7 9151   4.329   0.271   7.678  0.0011 -0.0636  0.5247
   91CHL1   H7A 9152   4.418   0.206   7.694 -1.1619 -1.7008  0.4181
   91CHL1   H7B 9153   4.349   0.366   7.733 -1.6302  0.0345  0.9649
   91CHL1    C8 9154   4.191   0.203   7.725 -0.4393  0.2281  0.6237
   91CHL1    H8 9155   4.192   0.098   7.688 -2.1778  0.7977 -1.1027
   91CHL1   C14 9156   4.178   0.210   7.877  0.1999  0.5453 -0.3496
   91CHL1   H14 9157   4.190   0.316   7.908  1.0181 -0.0288  1.3576
   91CHL1   C15 9158   4.281   0.144   7.965  0.4233 -0.2154 -1.0650
   91CHL1  H15A 9159   4.298   0.039   7.930 -1.7470 -0.9877  0.1116
   91CHL1  H15B 9160   4.380   0.195   7.969  1.7961 -2.9506  1.8675
   91CHL1   C16 9161   4.216   0.141   8.108  0.0726 -0.0089  0.1768
   91CHL1  H16A 9162   4.234   0.037   8.143 -0.0890 -0.2372 -0.4175
   91CHL1  H16B 9163   4.267   0.209   8.180 -2.5267 -0.1488  2.2119
   91CHL1   C17 9164   4.067   0.181   8.081 -0.4999 -0.0337 -0.6637
   91CHL1   H17 9165   4.066   0.292   8.094  1.7021 -0.1652  0.8833
   91CHL1   C13 9166   4.047   0.163   7.928 -0.5851 -0.4120  0.2647
   91CHL1   C18 9167   4.017   0.015   7.901  0.1649 -0.3492  0.2025
   91CHL1  H18A 9168   4.024  -0.016   7.795 -2.2034  0.4634 -0.2110
   91CHL1  H18B 9169   4.084  -0.057   7.953  0.6216 -0.6487 -0.7967
   91CHL1  H18C 9170   3.917  -0.012   7.941  1.1110 -1.2514  2.0220
   91CHL1   C12 9171   3.941   0.251   7.864  0.3077  0.5706  0.3386
   91CHL1  H12A 9172   3.839   0.220   7.894  0.1455  2.1609  1.5076
   91CHL1  H12B 9173   3.937   0.359   7.890  2.4306  0.9842 -0.8618
   91CHL1   C11 9174   3.943   0.240   7.709  0.3696  0.1236  0.7083
   91CHL1  H11A 9175   3.900   0.142   7.679  1.1272  0.0452 -0.1603
   91CHL1  H11B 9176   3.868   0.311   7.667  0.0836 -0.8649 -0.5118
   91CHL1    C9 9177   4.081   0.277   7.657 -0.5037 -0.4535  0.0432
   91CHL1    H9 9178   4.086   0.385   7.684  0.7524 -0.4563 -0.1176
   91CHL1   C10 9179   4.096   0.269   7.504  0.3295  0.5149  0.0917
   91CHL1   C19 9180   4.033   0.136   7.455  0.7429  0.4463 -0.7876
   91CHL1  H19A 9181   4.031   0.118   7.346  1.8623 -0.3416 -0.6812
   91CHL1  H19B 9182   4.084   0.048   7.500 -0.4620 -0.1189 -0.5008
   91CHL1  H19C 9183   3.926   0.148   7.483  1.2498 -0.6541  1.8076
   91CHL1    C1 9184   4.012   0.388   7.449 -0.4521 -0.2838 -1.1297
   91CHL1   H1A 9185   3.909   0.365   7.485  0.1632  1.4841  1.8999
   91CHL1   H1B 9186   4.051   0.475   7.505  1.5711 -1.5251 -0.5803
   91CHL1    C2 9187   4.018   0.400   7.300 -0.1575 -0.5157 -0.5278
   91CHL1   H2A 9188   3.945   0.473   7.259 -0.9302 -1.3043 -0.5662
   91CHL1   H2B 9189   3.996   0.299   7.258  0.6148 -1.4275  1.2161
   91CHL1   C20 9190   3.965   0.111   8.185  0.3407  0.2462 -0.0744
   91CHL1   H20 9191   3.985   0.002   8.181 -0.6262  0.0332  0.6684
   91CHL1   C21 9192   3.818   0.148   8.147  0.6459 -0.7201 -0.0563
   91CHL1  H21A 9193   3.757   0.128   8.237 -0.6316  0.6324 -0.5938
   91CHL1  H21B 9194   3.778   0.078   8.071 -0.3173 -0.2757  0.0377
   91CHL1  H21C 9195   3.812   0.256   8.120 -3.0821 -0.6559  0.7820
   91CHL1   C22 9196   3.990   0.150   8.332  0.2751 -0.1062 -1.2810
   91CHL1  H22A 9197   4.100   0.154   8.350  0.3969  0.6229 -2.1628
   91CHL1  H22B 9198   3.946   0.245   8.367 -1.8200 -1.0261 -1.3543
   91CHL1   C23 9199   3.935   0.050   8.443 -0.4330 -0.1072 -0.4868
   91CHL1  H23A 9200   3.824   0.047   8.437 -0.3421 -0.8782 -1.8634
   91CHL1  H23B 9201   3.965  -0.057   8.441  1.6212  0.3543  1.9081
   91CHL1   C24 9202   3.980   0.086   8.587 -0.3552  0.5132 -0.4845
   91CHL1  H24A 9203   4.091   0.097   8.587 -0.1172 -1.7391  1.2056
   91CHL1  H24B 9204   3.938   0.183   8.623  2.1366  1.2205  0.6361
   91CHL1   C25 9205   3.951  -0.022   8.693  0.4026  0.4433  0.5415
   91CHL1   H25 9206   4.000  -0.113   8.653 -1.8533  0.3023 -2.0636
   91CHL1   C26 9207   4.009   0.013   8.828  0.0323  0.0789  0.4116
   91CHL1  H26A 9208   4.116   0.036   8.809 -0.4128 -0.0319 -2.5053
   91CHL1  H26B 9209   3.958   0.093   8.885 -1.4315 -0.4212 -0.1630
   91CHL1  H26C 9210   3.996  -0.074   8.896  3.6707  0.6373  1.9638
   91CHL1   C27 9211   3.801  -0.047   8.726  0.4462  0.2400 -0.7750
   91CHL1  H27A 9212   3.768   0.051   8.767  0.1284 -0.7435  1.3923
   91CHL1  H27B 9213   3.754  -0.078   8.630  1.5484 -1.9878 -0.6254
   91CHL1  H27C 9214   3.790  -0.134   8.794 -3.3349  1.1010 -0.1707
   92CHL1    C3 9215   0.064   2.156   6.909  0.0147 -0.4243  0.3305
   92CHL1    H3 9216   0.144   2.228   6.939  0.6287 -0.5617 -0.9143
   92CHL1    O3 9217   0.066   2.146   6.768 -0.2149  0.0416 -0.1277
   92CHL1   H3' 9218   0.079   2.236   6.737 -2.9767 -0.0535 -1.7213
   92CHL1    C4 9219   0.089   2.023   6.983  0.5548  0.6646  0.6379
   92CHL1   H4A 9220   0.013   1.950   6.950 -0.2837  1.7945  0.0103
   92CHL1   H4B 9221   0.190   1.983   6.958  0.1074 -0.0625 -0.0181
   92CHL1    C5 9222   0.073   2.034   7.138 -0.8368  0.2626  0.9219
   92CHL1    C6 9223   0.170   1.992   7.224  0.1755  0.2315 -0.3077
   92CHL1    H6 9224   0.252   1.934   7.180 -1.1213 -1.2150 -0.8446
   92CHL1    C7 9225   0.169   1.995   7.373 -1.3314 -0.5749 -1.3533
   92CHL1   H7A 9226   0.194   1.897   7.419 -0.5475  0.3922  0.3203
   92CHL1   H7B 9227   0.246   2.068   7.405 -0.0025 -1.7893 -1.7263
   92CHL1    C8 9228   0.030   2.036   7.431 -0.2779  0.2379  0.0971
   92CHL1    H8 9229  -0.034   1.944   7.431 -0.9575  0.6913 -1.7673
   92CHL1   C14 9230   0.048   2.079   7.574  0.2962 -0.4137  0.1603
   92CHL1   H14 9231   0.108   2.173   7.569 -0.6242  0.1854  0.2837
   92CHL1   C15 9232   0.127   1.989   7.674 -0.4456 -1.0956 -0.1877
   92CHL1  H15A 9233   0.095   1.884   7.655 -0.8129 -0.4453 -3.4263
   92CHL1  H15B 9234   0.237   1.996   7.659 -0.7283  1.9696 -1.0805
   92CHL1   C16 9235   0.092   2.053   7.808 -0.1260  0.1893 -0.8274
   92CHL1  H16A 9236   0.062   1.976   7.883  1.7712  0.3733  0.1569
   92CHL1  H16B 9237   0.185   2.099   7.849 -1.7505  1.2041  1.7937
   92CHL1   C17 9238  -0.027   2.159   7.771 -0.6226 -0.0798 -0.4933
   92CHL1   H17 9239   0.031   2.254   7.767 -0.8547  0.0572 -0.5901
   92CHL1   C13 9240  -0.084   2.130   7.635 -0.3231  1.1694  0.7740
   92CHL1   C18 9241  -0.180   2.011   7.649  0.0015  0.2090  0.0910
   92CHL1  H18A 9242  -0.132   1.940   7.719  1.8649  1.3776  0.0399
   92CHL1  H18B 9243  -0.274   2.046   7.697 -1.0312 -0.7642 -1.1562
   92CHL1  H18C 9244  -0.212   1.959   7.556 -0.6236 -0.0346  0.4371
   92CHL1   C12 9245  -0.145   2.247   7.542  0.0124 -0.3889  0.2183
   92CHL1  H12A 9246  -0.242   2.283   7.584  0.2847  0.3984  0.1814
   92CHL1  H12B 9247  -0.073   2.331   7.540  0.6745 -0.9846 -1.1124
   92CHL1   C11 9248  -0.171   2.203   7.399 -0.4959  0.4392 -0.6782
   92CHL1  H11A 9249  -0.255   2.131   7.395 -0.5929  0.5908 -1.4875
   92CHL1  H11B 9250  -0.199   2.293   7.340  2.1224  1.5939 -0.2407
   92CHL1    C9 9251  -0.039   2.149   7.334  0.1559 -0.8822  0.1907
   92CHL1    H9 9252   0.037   2.230   7.333  1.2049 -1.8514  0.9442
   92CHL1   C10 9253  -0.053   2.112   7.186 -0.0726  0.3819 -0.4682
   92CHL1   C19 9254  -0.169   2.012   7.180 -0.0101  0.5946 -0.8843
   92CHL1  H19A 9255  -0.186   1.970   7.079 -0.3454  1.0267 -1.0048
   92CHL1  H19B 9256  -0.153   1.921   7.242  0.7548  2.6388  2.0264
   92CHL1  H19C 9257  -0.270   2.050   7.205  0.3973  1.7060 -0.9190
   92CHL1    C1 9258  -0.077   2.235   7.094 -0.3272  0.2555 -0.2971
   92CHL1   H1A 9259  -0.184   2.254   7.117 -0.2127  3.6508 -2.3186
   92CHL1   H1B 9260  -0.013   2.321   7.122 -0.0994 -0.7522  2.3934
   92CHL1    C2 9261  -0.069   2.217   6.949  0.1292  0.0563  0.2630
   92CHL1   H2A 9262  -0.092   2.310   6.893  1.6851 -0.5142 -1.4135
   92CHL1   H2B 9263  -0.149   2.151   6.909  0.6994 -0.8584  0.6115
   92CHL1   C20 9264  -0.121   2.197   7.886 -0.7129 -0.0877  0.0596
   92CHL1   H20 9265  -0.194   2.117   7.912  0.1851 -1.6239 -2.0255
   92CHL1   C21 9266  -0.183   2.337   7.862  0.5601  0.5166 -0.3998
   92CHL1  H21A 9267  -0.248   2.348   7.773  1.6440  0.4554 -1.2057
   92CHL1  H21B 9268  -0.099   2.410   7.857  1.3193 -0.0929  2.5444
   92CHL1  H21C 9269  -0.242   2.369   7.950  0.9762  0.5133 -0.1193
   92CHL1   C22 9270  -0.039   2.206   8.026 -0.1274 -0.2434 -0.5005
   92CHL1  H22A 9271   0.020   2.112   8.034  2.3121  1.2145 -1.1654
   92CHL1  H22B 9272   0.028   2.293   8.016  2.9557 -2.5516 -0.6885
   92CHL1   C23 9273  -0.132   2.219   8.145  0.6313 -0.3171 -0.1398
   92CHL1  H23A 9274  -0.196   2.309   8.137 -2.0579 -2.2385 -1.0171
   92CHL1  H23B 9275  -0.207   2.139   8.129 -1.4862  1.5343  0.2515
   92CHL1   C24 9276  -0.067   2.201   8.281 -0.2638  0.1883 -0.0480
   92CHL1  H24A 9277   0.033   2.248   8.276 -0.1777  0.1021  0.7341
   92CHL1  H24B 9278  -0.138   2.256   8.346  0.5837  1.2284  0.0215
   92CHL1   C25 9279  -0.041   2.057   8.325  0.4087  0.6325 -0.3054
   92CHL1   H25 9280  -0.027   1.992   8.236 -1.6261 -1.2156  0.6830
   92CHL1   C26 9281   0.092   2.051   8.410  0.2283  0.5782  0.4608
   92CHL1  H26A 9282   0.168   2.109   8.354 -0.7045  1.4887  0.1246
   92CHL1  H26B 9283   0.072   2.091   8.512  0.7841 -1.1014  1.2404
   92CHL1  H26C 9284   0.117   1.944   8.424  0.5106  0.9879  3.4106
   92CHL1   C27 9285  -0.159   2.001   8.398 -0.1339  0.0060  0.2493
   92CHL1  H27A 9286  -0.173   2.053   8.495  1.1177 -0.7809  0.8568
   92CHL1  H27B 9287  -0.257   2.011   8.345 -0.8922 -1.3646  1.3620
   92CHL1  H27C 9288  -0.128   1.897   8.417 -0.2573  0.3041  2.1409
   93CHL1    C3 9289   5.733   6.709   6.839  0.2725  0.2866  0.0223
   93CHL1    H3 9290   5.641   6.771   6.840 -1.3937 -2.1023  0.8315
   93CHL1    O3 9291   5.771   6.680   6.709 -0.1301 -0.0717 -0.1794
   93CHL1   H3' 9292   5.834   6.608   6.718  0.1247  0.3375  1.4133
   93CHL1    C4 9293   5.850   6.789   6.902  0.6835  0.2201  0.0521
   93CHL1   H4A 9294   5.945   6.741   6.871  1.1951  2.6412 -2.3614
   93CHL1   H4B 9295   5.842   6.883   6.843  0.4552  0.3711  0.3213
   93CHL1    C5 9296   5.845   6.812   7.049 -0.0143 -0.1798 -0.0450
   93CHL1    C6 9297   5.868   6.931   7.103  0.3270 -0.2129  0.5013
   93CHL1    H6 9298   5.897   7.020   7.045  0.3870 -1.4659 -1.4353
   93CHL1    C7 9299   5.883   6.956   7.252 -0.2831  0.8273 -0.4807
   93CHL1   H7A 9300   5.981   7.004   7.273  1.4834 -2.0556 -1.7564
   93CHL1   H7B 9301   5.801   7.014   7.299 -0.4165 -0.4365  0.9003
   93CHL1    C8 9302   5.890   6.827   7.341  0.0442  0.7162  0.1444
   93CHL1    H8 9303   5.997   6.799   7.344  0.0297  0.8173  2.3500
   93CHL1   C14 9304   5.860   6.841   7.491  0.5463  0.2015 -0.1712
   93CHL1   H14 9305   5.754   6.872   7.506  0.3093 -1.3385  1.4581
   93CHL1   C15 9306   5.938   6.950   7.569 -0.3998 -0.2722 -0.3450
   93CHL1  H15A 9307   6.048   6.943   7.559 -0.1299  1.6810  0.9895
   93CHL1  H15B 9308   5.903   7.052   7.542  1.4494 -0.4749 -3.7535
   93CHL1   C16 9309   5.909   6.909   7.717  0.0420  0.8066  0.5265
   93CHL1  H16A 9310   6.006   6.905   7.770  2.0561  0.1045 -3.0232
   93CHL1  H16B 9311   5.857   6.993   7.768 -0.5299  0.0717  1.1594
   93CHL1   C17 9312   5.832   6.776   7.720 -0.2734  0.3192 -0.8745
   93CHL1   H17 9313   5.724   6.800   7.722 -0.2350  0.3674  2.0222
   93CHL1   C13 9314   5.864   6.719   7.582 -0.3061  0.5025  0.0706
   93CHL1   C18 9315   6.010   6.665   7.592  0.2443 -0.2411 -0.1135
   93CHL1  H18A 9316   6.045   6.626   7.494 -2.2413  0.0707 -1.1618
   93CHL1  H18B 9317   6.078   6.747   7.625 -2.2092  1.9430 -0.3106
   93CHL1  H18C 9318   6.003   6.586   7.669 -0.7645  0.3181  0.3799
   93CHL1   C12 9319   5.764   6.605   7.527  0.0768  0.0034 -0.4337
   93CHL1  H12A 9320   5.778   6.506   7.576  2.5071 -0.0084 -1.0823
   93CHL1  H12B 9321   5.662   6.638   7.554  0.4017  0.9475 -0.3315
   93CHL1   C11 9322   5.790   6.589   7.379 -0.6666  0.2201  0.3284
   93CHL1  H11A 9323   5.892   6.547   7.376  0.4988  2.7450  2.5158
   93CHL1  H11B 9324   5.722   6.506   7.348 -0.5439 -0.9251  3.0332
   93CHL1    C9 9325   5.791   6.721   7.284 -0.4508  0.0378  1.5099
   93CHL1    H9 9326   5.689   6.764   7.283 -0.0965  0.9294 -1.3915
   93CHL1   C10 9327   5.819   6.690   7.132  0.3212  0.3578 -0.4477
   93CHL1   C19 9328   5.948   6.600   7.126  0.0467  0.0513 -0.2146
   93CHL1  H19A 9329   6.025   6.658   7.181 -0.1289  0.1204 -0.0429
   93CHL1  H19B 9330   5.934   6.496   7.164 -1.1305 -0.3262 -1.6267
   93CHL1  H19C 9331   5.997   6.585   7.027  0.1405 -1.6652  0.0660
   93CHL1    C1 9332   5.701   6.609   7.069  0.1781 -0.5309  0.8682
   93CHL1   H1A 9333   5.710   6.510   7.118  3.5545 -0.6372  0.1520
   93CHL1   H1B 9334   5.604   6.655   7.098  0.6835  2.0568 -1.3503
   93CHL1    C2 9335   5.703   6.576   6.920  0.3087  0.0743  0.4364
   93CHL1   H2A 9336   5.602   6.536   6.895  0.1863 -0.1212  1.2128
   93CHL1   H2B 9337   5.778   6.496   6.904 -1.7280 -1.8122  0.0761
   93CHL1   C20 9338   5.861   6.697   7.845  0.1624 -0.3293 -0.3419
   93CHL1   H20 9339   5.970   6.674   7.852  0.3927  1.0800  0.8640
   93CHL1   C21 9340   5.775   6.571   7.838  0.7589  0.3584  1.1686
   93CHL1  H21A 9341   5.681   6.601   7.787  2.0601 -0.0149 -1.5476
   93CHL1  H21B 9342   5.755   6.528   7.938 -2.4452 -0.2842  0.3260
   93CHL1  H21C 9343   5.839   6.505   7.775  0.8578 -1.5991  3.2504
   93CHL1   C22 9344   5.830   6.786   7.967  0.3711 -0.1044  0.4336
   93CHL1  H22A 9345   5.878   6.886   7.962 -0.3238  0.2726  1.1650
   93CHL1  H22B 9346   5.719   6.793   7.974  0.2668  0.6347 -1.7394
   93CHL1   C23 9347   5.871   6.720   8.101  0.2466  0.2427  0.1288
   93CHL1  H23A 9348   5.838   6.614   8.097  0.7027  0.0491  1.2605
   93CHL1  H23B 9349   5.982   6.709   8.106  0.0664 -1.1861  1.2717
   93CHL1   C24 9350   5.833   6.776   8.234  0.1888 -0.0078  0.5104
   93CHL1  H24A 9351   5.897   6.866   8.247  0.9743 -0.6936  1.3701
   93CHL1  H24B 9352   5.725   6.806   8.228  0.5400  1.0087 -1.3685
   93CHL1   C25 9353   5.849   6.679   8.348  0.2547 -0.3206  0.1739
   93CHL1   H25 9354   5.818   6.576   8.320  0.9591 -0.9016  1.4615
   93CHL1   C26 9355   5.999   6.663   8.379  0.2316  0.2180  0.1507
   93CHL1  H26A 9356   6.032   6.758   8.427  1.4124  0.0606 -0.3346
   93CHL1  H26B 9357   6.019   6.577   8.447 -1.7864  0.8196  1.5442
   93CHL1  H26C 9358   6.062   6.653   8.288 -0.5587  1.4038 -0.5388
   93CHL1   C27 9359   5.787   6.720   8.478 -0.5740 -0.6977 -0.3460
   93CHL1  H27A 9360   5.812   6.826   8.497 -0.2805 -0.9013  0.4338
   93CHL1  H27B 9361   5.676   6.711   8.472 -0.7775  0.5374  1.0494
   93CHL1  H27C 9362   5.822   6.655   8.562  0.2231 -1.4403 -1.2477
   94CHL1    C3 9363   0.580   2.776   6.845 -0.5633  0.2889 -0.1673
   94CHL1    H3 9364   0.478   2.735   6.861 -0.1270 -0.1575  1.5966
   94CHL1    O3 9365   0.608   2.800   6.708 -0.0379  0.5575 -0.4978
   94CHL1   H3' 9366   0.657   2.882   6.706  0.4185  0.3257 -5.0980
   94CHL1    C4 9367   0.592   2.909   6.920  0.4988  1.1357 -0.1793
   94CHL1   H4A 9368   0.693   2.947   6.892  2.1407 -1.1132  2.5104
   94CHL1   H4B 9369   0.520   2.974   6.866  2.0875  0.2387 -3.5751
   94CHL1    C5 9370   0.579   2.897   7.061 -0.2781  0.3292 -0.6315
   94CHL1    C6 9371   0.481   2.966   7.124  0.7293  0.7202 -0.0491
   94CHL1    H6 9372   0.427   3.039   7.061  0.9377  0.1465 -0.8929
   94CHL1    C7 9373   0.459   2.966   7.271 -0.7168 -0.1466  0.3728
   94CHL1   H7A 9374   0.444   3.065   7.319  0.3350 -0.6376  1.7674
   94CHL1   H7B 9375   0.363   2.912   7.287 -1.0693  0.4991  0.4493
   94CHL1    C8 9376   0.571   2.895   7.348 -0.2679  0.8061  0.8382
   94CHL1    H8 9377   0.656   2.966   7.354  0.0041  0.5321  0.1604
   94CHL1   C14 9378   0.518   2.867   7.482 -0.0341 -0.3730  0.0010
   94CHL1   H14 9379   0.431   2.799   7.472 -1.1643  0.5451  2.9693
   94CHL1   C15 9380   0.447   2.979   7.563  0.5131 -0.1559  0.5273
   94CHL1  H15A 9381   0.494   3.079   7.553  0.1066 -0.0935 -0.7903
   94CHL1  H15B 9382   0.342   2.987   7.527  0.7303 -0.6068 -0.2236
   94CHL1   C16 9383   0.454   2.929   7.712 -0.0826 -0.0238 -0.4106
   94CHL1  H16A 9384   0.523   2.993   7.771 -1.4636  0.1936  0.9869
   94CHL1  H16B 9385   0.355   2.928   7.762  0.2263 -2.0966  0.2107
   94CHL1   C17 9386   0.513   2.781   7.701 -0.3368  0.1134 -0.7054
   94CHL1   H17 9387   0.422   2.718   7.690 -2.7996  3.2264  0.9486
   94CHL1   C13 9388   0.599   2.777   7.574 -0.4214  0.1900 -0.1171
   94CHL1   C18 9389   0.728   2.849   7.614  0.1352 -0.0841  0.2605
   94CHL1  H18A 9390   0.787   2.791   7.688 -1.3426  1.0571  2.3660
   94CHL1  H18B 9391   0.784   2.875   7.521 -0.3599  1.5569  0.3966
   94CHL1  H18C 9392   0.697   2.948   7.652 -1.3303 -0.6915  0.6747
   94CHL1   C12 9393   0.632   2.640   7.507  0.6723  1.0202  0.1905
   94CHL1  H12A 9394   0.695   2.581   7.577 -0.7435  2.5105  2.7780
   94CHL1  H12B 9395   0.543   2.574   7.506  1.8064 -0.5419 -0.8341
   94CHL1   C11 9396   0.692   2.672   7.369 -0.3470  0.4837  0.5938
   94CHL1  H11A 9397   0.792   2.719   7.376  0.1010  0.1362 -2.6908
   94CHL1  H11B 9398   0.704   2.573   7.321 -0.5478  0.8111 -0.1366
   94CHL1    C9 9399   0.607   2.763   7.278 -0.3858  0.8287 -0.2055
   94CHL1    H9 9400   0.516   2.702   7.260 -0.7051  0.7195  1.6951
   94CHL1   C10 9401   0.661   2.791   7.133  0.0216  0.0077 -0.0852
   94CHL1   C19 9402   0.813   2.819   7.149  1.1299 -0.2063  0.0672
   94CHL1  H19A 9403   0.874   2.729   7.170  2.0858  0.2555 -0.7372
   94CHL1  H19B 9404   0.856   2.868   7.059  0.3964  0.5318  0.1107
   94CHL1  H19C 9405   0.838   2.885   7.235 -1.2522  2.4780 -1.2215
   94CHL1    C1 9406   0.657   2.663   7.052  0.7075  0.0000 -0.1356
   94CHL1   H1A 9407   0.734   2.599   7.099 -0.3912 -0.1020  1.5712
   94CHL1   H1B 9408   0.553   2.625   7.060  0.9495 -1.1423 -2.1084
   94CHL1    C2 9409   0.683   2.681   6.906  0.3640  0.3512  0.4084
   94CHL1   H2A 9410   0.672   2.579   6.862  1.8796 -0.5896  2.1716
   94CHL1   H2B 9411   0.783   2.724   6.882  1.1704 -1.0289  1.2348
   94CHL1   C20 9412   0.579   2.719   7.831  0.7306 -0.4272  0.2898
   94CHL1   H20 9413   0.654   2.648   7.789  1.5409  2.3490 -3.1922
   94CHL1   C21 9414   0.475   2.638   7.911  0.3226 -0.3161 -0.0224
   94CHL1  H21A 9415   0.519   2.593   8.002 -0.2409 -0.7811  0.0278
   94CHL1  H21B 9416   0.432   2.551   7.857  1.5713  1.2534 -3.7174
   94CHL1  H21C 9417   0.387   2.698   7.945  0.4192 -0.0904 -0.1717
   94CHL1   C22 9418   0.644   2.823   7.930  0.4260 -0.5286  0.0542
   94CHL1  H22A 9419   0.717   2.890   7.878  0.5712  0.0317  0.9675
   94CHL1  H22B 9420   0.569   2.891   7.975  0.3776 -0.9945  0.6688
   94CHL1   C23 9421   0.731   2.771   8.049  0.3164 -0.2415  0.2967
   94CHL1  H23A 9422   0.762   2.856   8.113  1.1569 -1.2843  1.2782
   94CHL1  H23B 9423   0.663   2.717   8.118 -1.6719  1.1925 -0.4793
   94CHL1   C24 9424   0.866   2.702   8.019 -0.2509  0.0125 -0.5195
   94CHL1  H24A 9425   0.842   2.603   7.975  2.2270  0.4983 -3.0855
   94CHL1  H24B 9426   0.926   2.762   7.947  2.2888 -1.2161  0.5174
   94CHL1   C25 9427   0.945   2.673   8.148 -0.0490  0.4447  0.2518
   94CHL1   H25 9428   0.874   2.619   8.215  0.0152 -0.2010 -0.1983
   94CHL1   C26 9429   1.067   2.579   8.123 -0.5486  0.1536  0.1115
   94CHL1  H26A 9430   1.116   2.557   8.221 -1.4805  0.4071  0.6464
   94CHL1  H26B 9431   1.027   2.480   8.093 -0.5642  0.2054 -0.0378
   94CHL1  H26C 9432   1.134   2.623   8.046 -0.2377 -0.9547 -0.2559
   94CHL1   C27 9433   1.008   2.794   8.217  0.1851  0.2055  0.0671
   94CHL1  H27A 9434   0.934   2.877   8.216  0.5996  0.5785 -0.2904
   94CHL1  H27B 9435   1.034   2.773   8.323  2.2283  2.1308 -0.0053
   94CHL1  H27C 9436   1.100   2.825   8.163  0.7245  0.7323  1.2718
   95CHL1    C3 9437   0.587   2.277   6.694  0.6383 -0.5146  0.0457
   95CHL1    H3 9438   0.620   2.379   6.726 -0.5018 -0.8008  2.1966
   95CHL1    O3 9439   0.581   2.272   6.552 -0.3369 -1.0195 -0.3698
   95CHL1   H3' 9440   0.631   2.194   6.527 -0.1071 -0.6782 -0.9823
   95CHL1    C4 9441   0.676   2.168   6.743  0.2012 -0.4031 -0.1782
   95CHL1   H4A 9442   0.634   2.069   6.717  1.5303 -1.6323  2.2011
   95CHL1   H4B 9443   0.773   2.184   6.692  0.2222 -0.3304 -0.1163
   95CHL1    C5 9444   0.701   2.176   6.890  0.1692 -0.0970 -0.5166
   95CHL1    C6 9445   0.822   2.175   6.947  0.5017  0.3358  1.2372
   95CHL1    H6 9446   0.904   2.163   6.874 -0.4983  0.8831 -0.0075
   95CHL1    C7 9447   0.846   2.175   7.091  0.4368 -0.0059  0.0466
   95CHL1   H7A 9448   0.915   2.092   7.119 -0.8341 -1.2334 -0.3744
   95CHL1   H7B 9449   0.891   2.273   7.116  1.9251  0.1360 -2.9668
   95CHL1    C8 9450   0.721   2.155   7.179 -0.4835 -0.0724  0.4458
   95CHL1    H8 9451   0.709   2.044   7.176  0.9046 -0.2796  1.8268
   95CHL1   C14 9452   0.750   2.202   7.317 -0.4746 -0.5785  0.4060
   95CHL1   H14 9453   0.758   2.313   7.315 -2.9074 -0.3813 -1.1640
   95CHL1   C15 9454   0.879   2.151   7.388  0.0941  0.6457  0.4432
   95CHL1  H15A 9455   0.901   2.044   7.369 -3.2048  0.3901 -2.5762
   95CHL1  H15B 9456   0.962   2.220   7.362  0.8770 -0.9569 -1.4536
   95CHL1   C16 9457   0.855   2.173   7.537 -0.7046  0.0501  0.1940
   95CHL1  H16A 9458   0.883   2.078   7.587  4.2486  1.1380 -0.2109
   95CHL1  H16B 9459   0.926   2.250   7.574  0.9049 -1.9694  1.4344
   95CHL1   C17 9460   0.714   2.219   7.545  0.3235 -0.6931 -0.2481
   95CHL1   H17 9461   0.726   2.329   7.545  1.0708 -0.7319  2.9468
   95CHL1   C13 9462   0.641   2.178   7.413 -0.1513  0.4400  0.4912
   95CHL1   C18 9463   0.605   2.025   7.426  0.3760  0.0139 -0.5449
   95CHL1  H18A 9464   0.522   2.022   7.500  0.9948 -1.0439  0.1247
   95CHL1  H18B 9465   0.569   1.983   7.330 -2.4136  0.1582  0.3902
   95CHL1  H18C 9466   0.689   1.965   7.468 -0.3833 -1.0440 -0.5105
   95CHL1   C12 9467   0.512   2.262   7.371 -0.5658  0.6856  0.2768
   95CHL1  H12A 9468   0.421   2.245   7.432 -2.5608 -1.2862 -3.1220
   95CHL1  H12B 9469   0.550   2.366   7.383  2.2128 -0.5214  2.6205
   95CHL1   C11 9470   0.477   2.227   7.224  0.3213 -0.0121  0.3477
   95CHL1  H11A 9471   0.447   2.120   7.228  2.7960 -0.7486 -0.0192
   95CHL1  H11B 9472   0.387   2.273   7.180 -0.7687 -0.0347  2.4826
   95CHL1    C9 9473   0.599   2.223   7.119 -0.3209 -0.1772  0.0817
   95CHL1    H9 9474   0.630   2.330   7.117 -1.8835  0.2985  0.7684
   95CHL1   C10 9475   0.570   2.172   6.974  0.5567 -0.2708 -0.0512
   95CHL1   C19 9476   0.515   2.030   6.971 -0.8069  0.4356  0.0069
   95CHL1  H19A 9477   0.410   2.018   7.005  0.0939  0.0077  2.7205
   95CHL1  H19B 9478   0.520   1.987   6.868  1.6225 -0.2588  0.3988
   95CHL1  H19C 9479   0.570   1.955   7.032 -0.0799 -0.7831 -2.0900
   95CHL1    C1 9480   0.465   2.270   6.914  0.0944 -0.3926 -0.4106
   95CHL1   H1A 9481   0.361   2.257   6.950 -0.6331 -2.5253 -3.0993
   95CHL1   H1B 9482   0.494   2.374   6.941  0.4017  0.0099 -2.2421
   95CHL1    C2 9483   0.449   2.262   6.761  0.3061 -0.5253 -0.1181
   95CHL1   H2A 9484   0.393   2.348   6.719  0.7923 -0.0496  0.1931
   95CHL1   H2B 9485   0.401   2.169   6.724 -1.1093 -0.4612  1.5023
   95CHL1   C20 9486   0.645   2.190   7.678 -0.5046  0.2334 -0.2419
   95CHL1   H20 9487   0.609   2.087   7.696 -1.1009  1.1301  4.2117
   95CHL1   C21 9488   0.519   2.281   7.693  0.4532 -0.1259  0.2132
   95CHL1  H21A 9489   0.536   2.384   7.655 -0.7279  0.1241  0.3470
   95CHL1  H21B 9490   0.487   2.291   7.799 -1.6260  0.3693 -0.4291
   95CHL1  H21C 9491   0.433   2.239   7.638  0.3977 -0.5750  0.6376
   95CHL1   C22 9492   0.748   2.218   7.790 -0.0486 -0.2028 -0.4699
   95CHL1  H22A 9493   0.823   2.136   7.786  0.8024  0.5505 -0.0404
   95CHL1  H22B 9494   0.822   2.300   7.776 -1.9413  1.8701  1.3023
   95CHL1   C23 9495   0.692   2.205   7.938 -0.5203 -0.7144 -0.4411
   95CHL1  H23A 9496   0.615   2.283   7.954 -1.0782 -1.0771 -1.3649
   95CHL1  H23B 9497   0.640   2.107   7.939  1.1546 -1.6717 -2.7227
   95CHL1   C24 9498   0.792   2.231   8.051 -0.1892 -0.7685 -0.0211
   95CHL1  H24A 9499   0.874   2.158   8.033  0.0936 -1.0900  2.3377
   95CHL1  H24B 9500   0.832   2.334   8.054 -0.3812 -0.6662 -1.0338
   95CHL1   C25 9501   0.733   2.197   8.193 -0.7021  0.5371  0.1462
   95CHL1   H25 9502   0.684   2.099   8.176  0.6534  0.2367 -2.3603
   95CHL1   C26 9503   0.848   2.173   8.289 -0.8476  0.5214 -0.2434
   95CHL1  H26A 9504   0.803   2.135   8.384 -1.9225 -0.3656 -1.1024
   95CHL1  H26B 9505   0.917   2.099   8.244  0.4210  3.3737 -3.1564
   95CHL1  H26C 9506   0.907   2.266   8.302  1.1286 -0.5578 -1.1892
   95CHL1   C27 9507   0.630   2.301   8.247 -0.0334 -0.3789 -0.1729
   95CHL1  H27A 9508   0.682   2.396   8.272 -1.8827  0.4836  0.4816
   95CHL1  H27B 9509   0.562   2.323   8.162  0.1422 -0.7327 -0.4086
   95CHL1  H27C 9510   0.570   2.274   8.336 -0.0637  0.7717  0.1595
   96CHL1    C3 9511   0.932   1.257   6.604  0.1664  0.3490 -0.2250
   96CHL1    H3 9512   0.883   1.357   6.611  1.3813  0.9822 -0.6115
   96CHL1    O3 9513   0.907   1.208   6.467  0.9516  0.2201  0.4414
   96CHL1   H3' 9514   0.974   1.140   6.456 -1.2100 -1.8515 -0.3311
   96CHL1    C4 9515   1.081   1.271   6.632 -0.2395 -0.3970 -0.1368
   96CHL1   H4A 9516   1.130   1.173   6.615  0.8906  0.1502 -0.0555
   96CHL1   H4B 9517   1.122   1.344   6.560 -0.8747  0.3290  0.2319
   96CHL1    C5 9518   1.120   1.307   6.775 -0.7375  0.3224  0.2949
   96CHL1    C6 9519   1.201   1.409   6.803  0.6685 -0.5787 -0.6565
   96CHL1    H6 9520   1.236   1.477   6.725 -2.8398  1.8669 -0.1934
   96CHL1    C7 9521   1.240   1.435   6.951 -0.3666  0.5548  0.4991
   96CHL1   H7A 9522   1.351   1.433   6.963  0.2677  0.3147 -4.2378
   96CHL1   H7B 9523   1.202   1.533   6.986  0.4654  0.3063  2.1591
   96CHL1    C8 9524   1.192   1.324   7.059  0.0176  0.1411  0.1826
   96CHL1    H8 9525   1.265   1.242   7.044  0.7205  0.9322 -0.8070
   96CHL1   C14 9526   1.197   1.376   7.201 -0.7610  0.8844  0.9712
   96CHL1   H14 9527   1.107   1.441   7.194 -0.4695  1.1873 -0.1253
   96CHL1   C15 9528   1.313   1.467   7.253 -0.9537 -0.7419 -0.5258
   96CHL1  H15A 9529   1.402   1.419   7.209  0.0433  0.4892  0.1288
   96CHL1  H15B 9530   1.302   1.567   7.205  1.0960  0.6318  1.7639
   96CHL1   C16 9531   1.306   1.451   7.406  0.3826  0.0304  0.3810
   96CHL1  H16A 9532   1.402   1.414   7.448  0.7420 -1.5999 -1.7390
   96CHL1  H16B 9533   1.280   1.552   7.442  1.5673 -0.0429  1.4887
   96CHL1   C17 9534   1.196   1.346   7.435 -0.5031 -0.7254  0.1900
   96CHL1   H17 9535   1.103   1.405   7.449 -0.0901  0.6895 -2.6573
   96CHL1   C13 9536   1.169   1.273   7.301  0.1430  0.2412  0.0927
   96CHL1   C18 9537   1.275   1.159   7.278  0.2103 -0.1857 -0.2287
   96CHL1  H18A 9538   1.379   1.199   7.276  0.4171 -0.7108 -0.2637
   96CHL1  H18B 9539   1.264   1.090   7.365  1.9664 -0.0858  0.1096
   96CHL1  H18C 9540   1.255   1.103   7.185  0.9686 -2.6440  1.0433
   96CHL1   C12 9541   1.025   1.219   7.277  0.3479  0.0995  0.0175
   96CHL1  H12A 9542   0.993   1.140   7.348  1.7225 -0.7819 -0.3247
   96CHL1  H12B 9543   0.963   1.307   7.303  0.2859 -0.4038  1.6160
   96CHL1   C11 9544   1.000   1.166   7.136 -0.0395 -0.1683 -1.5928
   96CHL1  H11A 9545   1.035   1.062   7.117  3.0983  0.6331 -0.4030
   96CHL1  H11B 9546   0.890   1.159   7.123 -0.2103  0.7618 -0.6836
   96CHL1    C9 9547   1.053   1.264   7.028 -0.0072 -0.1278  0.2169
   96CHL1    H9 9548   0.987   1.353   7.028  2.8173  2.0413  0.2895
   96CHL1   C10 9549   1.047   1.212   6.875 -0.1971 -0.2323  0.1916
   96CHL1   C19 9550   1.123   1.077   6.875 -0.3246 -0.2633  0.2284
   96CHL1  H19A 9551   1.231   1.103   6.884 -0.6892  1.1301  0.6599
   96CHL1  H19B 9552   1.098   1.000   6.951  5.6916 -1.7415  0.9448
   96CHL1  H19C 9553   1.114   1.026   6.777  0.0018 -1.8399  1.0094
   96CHL1    C1 9554   0.898   1.201   6.843 -0.5719 -0.5523 -0.2958
   96CHL1   H1A 9555   0.855   1.118   6.903  1.7672  0.6706  3.2074
   96CHL1   H1B 9556   0.841   1.292   6.869 -1.8407 -1.8183  1.5050
   96CHL1    C2 9557   0.866   1.169   6.698 -0.0979  0.1583 -0.8100
   96CHL1   H2A 9558   0.759   1.191   6.678 -0.7109 -3.2036 -1.4454
   96CHL1   H2B 9559   0.859   1.061   6.673 -0.6543 -0.2784  1.1069
   96CHL1   C20 9560   1.224   1.264   7.575  0.7980  0.0022  0.7300
   96CHL1   H20 9561   1.307   1.194   7.553 -1.7860 -2.6770 -0.7447
   96CHL1   C21 9562   1.096   1.180   7.613 -0.5948  0.4351 -0.4131
   96CHL1  H21A 9563   1.062   1.111   7.533 -0.4445 -0.8823  0.6547
   96CHL1  H21B 9564   1.006   1.240   7.637 -0.9440  0.5964 -2.0816
   96CHL1  H21C 9565   1.107   1.113   7.700  1.4219  1.1447 -0.0924
   96CHL1   C22 9566   1.264   1.348   7.698  0.6889  0.2261 -0.0054
   96CHL1  H22A 9567   1.354   1.409   7.673  0.8290  0.2014  0.4313
   96CHL1  H22B 9568   1.183   1.419   7.727  0.3633 -0.2764  0.3149
   96CHL1   C23 9569   1.306   1.262   7.823 -0.5863  0.1491  0.1770
   96CHL1  H23A 9570   1.219   1.195   7.836 -0.7274  0.0269 -1.3095
   96CHL1  H23B 9571   1.396   1.199   7.806 -1.6470 -1.7892  1.6390
   96CHL1   C24 9572   1.323   1.359   7.943 -0.5440 -0.0770  0.0894
   96CHL1  H24A 9573   1.412   1.422   7.920 -2.5317  2.8947  0.2941
   96CHL1  H24B 9574   1.235   1.424   7.958  1.1916  2.6953 -1.1972
   96CHL1   C25 9575   1.360   1.297   8.076  0.3020  0.1024 -0.0203
   96CHL1   H25 9576   1.293   1.209   8.085  0.3297  0.1091  0.2488
   96CHL1   C26 9577   1.505   1.265   8.071 -0.5767  0.4365  0.9914
   96CHL1  H26A 9578   1.554   1.226   8.163  2.7899  2.6046  0.2082
   96CHL1  H26B 9579   1.526   1.188   7.994  0.7006  1.0882  0.6765
   96CHL1  H26C 9580   1.563   1.349   8.027 -0.4563 -0.0612  0.1849
   96CHL1   C27 9581   1.321   1.391   8.194  0.6994  0.3046  0.1065
   96CHL1  H27A 9582   1.360   1.494   8.181  1.6647 -0.1882 -0.9910
   96CHL1  H27B 9583   1.211   1.409   8.187  0.7607  0.0856 -1.6249
   96CHL1  H27C 9584   1.334   1.343   8.293 -2.2651 -1.8857 -0.4944
   97OSM      N 9585   5.649   1.733  11.501 -0.3391 -0.5781  0.2014
   97OSM    C15 9586   5.547   1.672  11.588 -0.2515 -0.1314 -0.0502
   97OSM   H15A 9587   5.513   1.573  11.561 -1.2286 -0.3694  1.9704
   97OSM   H15B 9588   5.456   1.730  11.595 -0.7966 -1.1582  1.6786
   97OSM   H15C 9589   5.590   1.662  11.686  0.5517  1.9680 -0.1719
   97OSM    C14 9590   5.678   1.874  11.542  0.1962 -0.6181 -0.2665
   97OSM   H14A 9591   5.744   1.922  11.471 -1.9695  2.8959 -0.0085
   97OSM   H14B 9592   5.720   1.872  11.641 -1.8587  2.0062  0.7346
   97OSM   H14C 9593   5.586   1.931  11.547  1.0330  0.7294 -0.0200
   97OSM    C13 9594   5.774   1.657  11.535  0.3614 -0.9466  0.0519
   97OSM   H13A 9595   5.828   1.677  11.626  0.1751  1.2698 -0.2916
   97OSM   H13B 9596   5.855   1.659  11.464  1.0836 -1.1388  0.8637
   97OSM   H13C 9597   5.745   1.554  11.545  0.2544 -0.9334 -0.1193
   97OSM    C12 9598   5.603   1.721  11.353  0.7865 -0.4842  0.1441
   97OSM   H12A 9599   5.592   1.615  11.340 -0.1315 -0.4193  0.3452
   97OSM   H12B 9600   5.685   1.753  11.290  0.1890 -0.6272 -0.7067
   97OSM    C11 9601   5.472   1.803  11.305  0.2185  0.2681 -0.0429
   97OSM   H11A 9602   5.400   1.777  11.386 -1.2858  0.4499 -1.2949
   97OSM   H11B 9603   5.439   1.770  11.204 -0.4996 -1.4550  0.7309
   97OSM      P 9604   5.588   2.005  11.185 -0.1128 -0.2053 -0.0734
   97OSM    O13 9605   5.581   2.150  11.197 -0.4012 -0.0216  0.2408
   97OSM    O14 9606   5.721   1.943  11.200 -0.1860 -0.1694 -0.2279
   97OSM    O11 9607   5.516   1.965  11.049 -0.1300 -0.3677  0.3389
   97OSM    O12 9608   5.498   1.943  11.297  0.0475  0.1990  0.3971
   97OSM    C1S 9609   5.396   2.034  11.001 -0.6922 -0.2820  0.0940
   97OSM    H1S 9610   5.416   2.143  11.001  2.7348 -0.8350 -1.8216
   97OSM    H1T 9611   5.307   2.005  11.060  1.3351 -1.8013  2.4524
   97OSM     NF 9612   5.237   2.065  10.818 -0.4850 -0.6806 -0.2111
   97OSM    HNF 9613   5.157   2.006  10.826 -1.6302  0.9275  0.6776
   97OSM    C2S 9614   5.359   2.000  10.855  0.0227  0.0759  0.4387
   97OSM    H2S 9615   5.450   2.039  10.803  0.4288  0.5608  1.5119
   97OSM    C3S 9616   5.366   1.841  10.828 -0.1694 -0.9088  0.3902
   97OSM    H3S 9617   5.280   1.803  10.887 -1.2635  2.4903  1.0923
   97OSM     O3 9618   5.478   1.770  10.886 -0.1124  0.5912 -0.1868
   97OSM    HO3 9619   5.518   1.838  10.940 -0.5362  1.1408 -0.5571
   97OSM    C4S 9620   5.374   1.817  10.676  0.3785  0.3060  0.0032
   97OSM    H4S 9621   5.473   1.816  10.628  0.5353 -2.0065  0.3271
   97OSM    C5S 9622   5.261   1.791  10.602  0.1811  0.6791 -0.0320
   97OSM    H5S 9623   5.164   1.778  10.653  0.1642 -0.8455 -0.4140
   97OSM    C6S 9624   5.270   1.758  10.453 -0.0142  0.6598 -0.6009
   97OSM    H6S 9625   5.177   1.797  10.406 -0.9735 -0.2535  0.5100
   97OSM    H6T 9626   5.287   1.651  10.429 -0.3223  0.7792 -1.3895
   97OSM    C7S 9627   5.392   1.814  10.378 -0.2854  0.3201  0.5108
   97OSM    H7S 9628   5.482   1.764  10.418 -0.5890 -0.4010  0.3060
   97OSM    H7T 9629   5.404   1.924  10.392  0.0038  0.0418  2.5911
   97OSM    C8S 9630   5.397   1.790  10.224 -0.6290  0.3234  0.0914
   97OSM    H8S 9631   5.308   1.826  10.168 -2.2672 -1.8249  1.2564
   97OSM    H8T 9632   5.415   1.684  10.199 -2.2167 -0.0349  0.4232
   97OSM    C9S 9633   5.511   1.872  10.162 -0.2680  0.3911  0.1289
   97OSM    H9S 9634   5.603   1.866  10.224  1.0013  1.6897 -1.5802
   97OSM    H9T 9635   5.478   1.977  10.154  2.6975  1.4702  1.2606
   97OSM   C10S 9636   5.530   1.842  10.014 -0.5984  0.0180  0.1908
   97OSM   H10S 9637   5.599   1.916   9.969 -1.2680  0.2444 -0.4735
   97OSM   H10T 9638   5.435   1.844   9.957 -1.0701 -1.4968  0.8870
   97OSM   C11S 9639   5.592   1.707   9.982  0.1284 -0.1566  0.0889
   97OSM   H11S 9640   5.550   1.623  10.041 -0.2633  0.6142  0.9339
   97OSM   H11T 9641   5.699   1.696  10.010  0.3265  0.4658 -0.4186
   97OSM   C12S 9642   5.581   1.677   9.832 -0.2107 -0.0916  0.1453
   97OSM   H12S 9643   5.513   1.745   9.777  0.2712 -2.0521 -3.0211
   97OSM   H12T 9644   5.543   1.573   9.816 -0.7697  0.1526 -0.1164
   97OSM   C13S 9645   5.727   1.685   9.771  0.5622  0.2770 -0.7000
   97OSM   H13S 9646   5.785   1.614   9.832 -1.6621  0.7498  2.0602
   97OSM   H13T 9647   5.758   1.789   9.793  0.4067  0.3416 -0.7773
   97OSM   C14S 9648   5.727   1.655   9.620 -0.1122  0.1714  0.2151
   97OSM   H14S 9649   5.647   1.717   9.574  2.4818  3.4125 -0.0529
   97OSM   H14T 9650   5.715   1.546   9.604  3.5025 -0.5457  1.9562
   97OSM   C15S 9651   5.864   1.694   9.550 -0.1192  0.4090  0.1410
   97OSM   H15S 9652   5.943   1.618   9.570 -0.3196  0.2870  0.4792
   97OSM   H15T 9653   5.900   1.793   9.586  1.9785  0.0394 -0.9134
   97OSM   C16S 9654   5.843   1.699   9.402  0.3172 -0.1008 -0.4934
   97OSM   H16S 9655   5.756   1.763   9.375  0.6885 -0.3505 -2.3360
   97OSM   H16T 9656   5.827   1.597   9.360  0.5894  0.2036 -1.3249
   97OSM   C17S 9657   5.961   1.763   9.322  0.8249  0.0471  0.2277
   97OSM   H17S 9658   6.058   1.717   9.351  1.1863  1.3067  1.0448
   97OSM   H17T 9659   5.966   1.871   9.346  1.5974  0.5735 -2.0869
   97OSM   C18S 9660   5.951   1.751   9.167  0.3332  0.3749 -0.9817
   97OSM   H18S 9661   5.861   1.812   9.147 -0.2920  0.5115  2.0757
   97OSM   H18T 9662   5.937   1.643   9.143 -1.7096  0.6018 -0.8412
   97OSM   H18U 9663   6.038   1.793   9.112  2.0873 -0.4710  1.0549
   97OSM    C1F 9664   5.234   2.201  10.792 -0.5250  0.2465  0.0195
   97OSM     OF 9665   5.322   2.282  10.829 -0.5375 -0.6784  0.4534
   97OSM    C2F 9666   5.114   2.250  10.720  0.0899 -0.0343 -0.5906
   97OSM    H2F 9667   5.051   2.324  10.773 -0.0645 -0.1756 -0.5763
   97OSM    H2G 9668   5.047   2.163  10.700  0.3372 -0.2459 -0.5008
   97OSM    C3F 9669   5.147   2.310  10.576 -0.0352  0.1575  0.2221
   97OSM    H3F 9670   5.236   2.376  10.580  1.0429 -1.1968 -0.9292
   97OSM    H3G 9671   5.058   2.365  10.540 -0.5107 -0.7838 -0.0418
   97OSM    C4F 9672   5.174   2.205  10.473  0.0529  0.4725 -0.3945
   97OSM    H4F 9673   5.089   2.134  10.473  0.5526 -0.1339 -0.8387
   97OSM    H4G 9674   5.259   2.140  10.504 -0.3892  0.0854 -0.0028
   97OSM    C5F 9675   5.207   2.266  10.342  0.0737  0.3274  0.2413
   97OSM    H5F 9676   5.309   2.311  10.340 -0.2060  0.9430  0.1199
   97OSM    H5G 9677   5.126   2.336  10.315  1.2013  0.8677 -1.8328
   97OSM    C6F 9678   5.197   2.159  10.226 -0.3133 -1.1651 -0.0316
   97OSM    H6F 9679   5.096   2.114  10.239 -0.1621 -1.4560  0.1554
   97OSM    H6G 9680   5.272   2.079  10.244 -0.9740 -1.7219  0.2662
   97OSM    C7F 9681   5.220   2.225  10.095 -0.4784  0.3670 -0.0899
   97OSM    H7F 9682   5.313   2.287  10.095 -0.0147 -0.3208  0.6545
   97OSM    H7G 9683   5.135   2.295  10.082 -1.6300 -1.0005  0.0578
   97OSM    C8F 9684   5.217   2.130   9.973 -0.2140  0.5267 -0.2285
   97OSM    H8F 9685   5.115   2.103   9.940 -0.4873 -1.1935  1.9385
   97OSM    H8G 9686   5.271   2.038  10.002  2.6883  1.7577 -1.4544
   97OSM    C9F 9687   5.286   2.197   9.857  0.0387 -0.1782  0.3946
   97OSM    H9F 9688   5.305   2.305   9.867 -0.6834  0.0836 -1.0185
   97OSM   C10F 9689   5.335   2.139   9.748  0.1846  0.3522  0.8105
   97OSM   H10F 9690   5.396   2.198   9.678 -3.2936  3.1816  0.0791
   97OSM   C11F 9691   5.329   1.994   9.720 -0.0729 -0.4315 -0.4362
   97OSM   H11F 9692   5.308   1.936   9.812 -4.0609  0.5504 -0.6297
   97OSM   H11G 9693   5.429   1.959   9.685  0.2819 -1.3809  1.4882
   97OSM   C12F 9694   5.216   1.966   9.623  0.3813 -0.4782  0.4094
   97OSM   H12F 9695   5.122   2.010   9.662  0.2032  0.6065 -1.2052
   97OSM   H12G 9696   5.210   1.855   9.612 -1.4365 -0.3697  0.2095
   97OSM   C13F 9697   5.245   2.009   9.478  0.1473 -0.5424  0.3675
   97OSM   H13F 9698   5.328   1.950   9.434 -1.1240 -1.1211 -1.3189
   97OSM   H13G 9699   5.268   2.116   9.460  0.2068 -0.7554 -0.9165
   97OSM   C14F 9700   5.120   1.980   9.391  0.1828 -0.2721  0.4369
   97OSM   H14F 9701   5.045   2.052   9.430 -2.2008 -1.7545 -1.2397
   97OSM   H14G 9702   5.081   1.878   9.412  0.2165 -1.1533 -3.3103
   97OSM   C15F 9703   5.149   2.013   9.245  0.5117  0.1066 -0.9129
   97OSM   H15F 9704   5.083   1.957   9.175 -1.8538  1.1063  0.4724
   97OSM   H15G 9705   5.253   2.009   9.207  1.8785  0.9996  2.6190
   97OSM   C16F 9706   5.134   2.160   9.217  0.4277 -0.1764  0.3973
   97OSM   H16F 9707   5.194   2.231   9.278 -0.6565  1.1118 -0.0023
   97OSM   H16G 9708   5.028   2.183   9.242 -0.3161 -2.1704 -0.7993
   97OSM   C17F 9709   5.151   2.198   9.069  0.1523  0.5712  0.0677
   97OSM   H17F 9710   5.079   2.140   9.008 -1.2479  2.2438  0.0584
   97OSM   H17G 9711   5.253   2.169   9.037 -0.4374 -1.6374  0.1328
   97OSM   C18F 9712   5.125   2.346   9.028 -0.0141  0.0235  0.6730
   97OSM   H18F 9713   5.196   2.409   9.086  1.2388  0.1686 -0.9724
   97OSM   H18G 9714   5.021   2.381   9.042  0.7658  2.1561  1.3517
   97OSM   H18H 9715   5.159   2.364   8.924 -1.1824  2.3351  0.6714
   98OSM      N 9716   5.205   1.449  11.111 -0.1324  0.2133 -0.1376
   98OSM    C15 9717   5.322   1.515  11.053 -0.9776 -0.2695 -0.1343
   98OSM   H15A 9718   5.405   1.446  11.050  1.8529  2.8835  1.6664
   98OSM   H15B 9719   5.338   1.608  11.105 -2.2254 -0.5398  0.7675
   98OSM   H15C 9720   5.300   1.545  10.952  1.9029  0.2575 -0.6634
   98OSM    C14 9721   5.194   1.315  11.044 -0.6043  0.3285  0.1971
   98OSM   H14A 9722   5.123   1.252  11.095  0.5880 -0.0424  1.4079
   98OSM   H14B 9723   5.290   1.268  11.053 -1.1821 -0.8286  0.3745
   98OSM   H14C 9724   5.164   1.327  10.941 -1.0830 -0.7699  0.2048
   98OSM    C13 9725   5.233   1.416  11.256  0.6904  0.0164  0.6461
   98OSM   H13A 9726   5.235   1.500  11.324  1.1170  1.9837 -1.7139
   98OSM   H13B 9727   5.328   1.366  11.259  0.1890 -1.2628 -2.6034
   98OSM   H13C 9728   5.166   1.340  11.293 -0.1463  0.8640  0.9154
   98OSM    C12 9729   5.079   1.532  11.089  0.3703 -0.1938 -0.0992
   98OSM   H12A 9730   5.092   1.629  11.136  2.0094  0.7171 -2.3018
   98OSM   H12B 9731   4.997   1.480  11.135  1.0182 -0.6919  0.4932
   98OSM    C11 9732   5.032   1.555  10.947 -1.0280 -0.5044 -1.1705
   98OSM   H11A 9733   4.996   1.461  10.899  0.0734 -0.8775 -1.2663
   98OSM   H11B 9734   5.115   1.599  10.888  0.0937  1.1613  1.5676
   98OSM      P 9735   4.779   1.601  10.995 -0.5110 -0.0786 -0.1929
   98OSM    O13 9736   4.783   1.514  11.116 -0.3209  0.3841  0.2031
   98OSM    O14 9737   4.693   1.722  11.010  0.6677 -0.4390 -0.5189
   98OSM    O11 9738   4.754   1.519  10.859  0.0059 -0.0633 -0.0940
   98OSM    O12 9739   4.925   1.649  10.963  0.0471 -0.4311  0.0001
   98OSM    C1S 9740   4.757   1.583  10.731 -0.5605  0.3127 -0.3441
   98OSM    H1S 9741   4.852   1.641  10.722 -0.8443  0.5051 -2.3632
   98OSM    H1T 9742   4.682   1.665  10.724  0.2914  1.1895  0.4976
   98OSM     NF 9743   4.734   1.554  10.477 -0.4387 -0.2496  0.2675
   98OSM    HNF 9744   4.652   1.534  10.423 -0.8650 -1.3639  1.3210
   98OSM    C2S 9745   4.742   1.486  10.605 -0.2074  0.7326  0.2310
   98OSM    H2S 9746   4.838   1.430  10.610 -0.3092  0.7398  2.8544
   98OSM    C3S 9747   4.630   1.379  10.609  0.4356  0.6032 -0.1906
   98OSM    H3S 9748   4.533   1.433  10.603  0.1261  0.0835  0.1177
   98OSM     O3 9749   4.623   1.308  10.739 -0.5140 -0.0786  0.4870
   98OSM    HO3 9750   4.670   1.365  10.800 -2.0036  1.5001  0.1883
   98OSM    C4S 9751   4.640   1.287  10.496  0.5330 -0.4261  0.2123
   98OSM    H4S 9752   4.563   1.310  10.421 -0.8412  1.3112  2.1117
   98OSM    C5S 9753   4.720   1.179  10.479 -0.2057 -0.1782  0.2505
   98OSM    H5S 9754   4.801   1.162  10.552 -1.2290  0.4633  1.5671
   98OSM    C6S 9755   4.721   1.091  10.355  0.5249 -0.3828 -0.4529
   98OSM    H6S 9756   4.615   1.061  10.337  0.3826 -0.9450  1.2896
   98OSM    H6T 9757   4.780   0.999  10.373  1.6598  0.6264  1.0651
   98OSM    C7S 9758   4.756   1.164  10.228  0.5815 -0.2994 -0.4757
   98OSM    H7S 9759   4.850   1.221  10.242  0.1531 -0.0909  1.6863
   98OSM    H7T 9760   4.677   1.240  10.210 -1.1789 -2.4687 -2.2259
   98OSM    C8S 9761   4.765   1.066  10.111 -0.0615  0.3667 -0.6702
   98OSM    H8S 9762   4.669   1.016  10.083 -1.3550  1.3374  1.8378
   98OSM    H8T 9763   4.846   0.992  10.128  1.7774  2.2771 -1.0638
   98OSM    C9S 9764   4.816   1.130   9.985  1.0368 -0.3679 -0.2685
   98OSM    H9S 9765   4.924   1.152  10.002  0.3769  2.8303  0.1388
   98OSM    H9T 9766   4.760   1.224   9.967  1.2872 -0.3375 -0.9279
   98OSM   C10S 9767   4.794   1.035   9.866 -0.4624  0.2692 -0.3553
   98OSM   H10S 9768   4.687   1.041   9.834 -0.5311 -0.3782 -0.2435
   98OSM   H10T 9769   4.821   0.931   9.891 -0.9515  0.7084  2.1168
   98OSM   C11S 9770   4.858   1.079   9.736 -0.1225 -0.4038  0.3911
   98OSM   H11S 9771   4.847   1.189   9.720  0.6779 -0.4177 -0.2791
   98OSM   H11T 9772   4.800   1.047   9.647  0.4380  0.8805 -0.4563
   98OSM   C12S 9773   5.008   1.052   9.715 -0.1433  0.9418 -0.1559
   98OSM   H12S 9774   5.022   0.943   9.698  1.2443  1.1467 -0.4254
   98OSM   H12T 9775   5.060   1.065   9.812  0.0337  3.0710 -0.5113
   98OSM   C13S 9776   5.091   1.133   9.612 -0.3645  0.1347  0.6983
   98OSM   H13S 9777   5.184   1.073   9.606 -0.4980 -0.2043  1.9277
   98OSM   H13T 9778   5.121   1.234   9.647 -4.0437  0.8415  2.0362
   98OSM   C14S 9779   5.030   1.150   9.476 -0.0496  0.3157  0.0092
   98OSM   H14S 9780   4.956   1.231   9.490  0.7208  1.1486 -0.6629
   98OSM   H14T 9781   4.988   1.049   9.462  0.0758  0.4496 -1.3916
   98OSM   C15S 9782   5.135   1.185   9.371 -0.6300 -0.7400  0.3627
   98OSM   H15S 9783   5.234   1.136   9.381 -0.0942  0.2993  0.1976
   98OSM   H15T 9784   5.156   1.294   9.378  0.4967 -0.9467  0.3680
   98OSM   C16S 9785   5.091   1.153   9.233 -0.5802  0.5478 -1.8215
   98OSM   H16S 9786   4.981   1.166   9.216 -0.7884  0.6707 -0.4048
   98OSM   H16T 9787   5.106   1.044   9.222  0.7358  0.6722 -1.2430
   98OSM   C17S 9788   5.180   1.220   9.127 -0.3303  0.3823  0.3687
   98OSM   H17S 9789   5.285   1.189   9.146 -0.4070  0.1035  0.3431
   98OSM   H17T 9790   5.173   1.331   9.130 -0.1143  0.3568  2.1445
   98OSM   C18S 9791   5.140   1.171   8.985  0.1224 -0.5169 -0.1473
   98OSM   H18S 9792   5.034   1.201   8.974 -0.4477 -2.5629 -0.4534
   98OSM   H18T 9793   5.127   1.061   8.975  0.5219 -0.4861 -1.0761
   98OSM   H18U 9794   5.199   1.224   8.907  0.2176 -0.0762  0.2225
   98OSM    C1F 9795   4.830   1.645  10.435  0.0524  0.4457 -0.1347
   98OSM     OF 9796   4.928   1.665  10.506  0.6162  0.2048 -0.3988
   98OSM    C2F 9797   4.813   1.693  10.298 -0.0533  0.0568  0.4222
   98OSM    H2F 9798   4.726   1.762  10.291  0.5632  0.6874 -1.4622
   98OSM    H2G 9799   4.803   1.613  10.221 -0.0659  1.1312 -0.7043
   98OSM    C3F 9800   4.932   1.786  10.261 -0.1518  0.6649  0.6688
   98OSM    H3F 9801   5.021   1.721  10.276 -0.4857  0.2175  0.7363
   98OSM    H3G 9802   4.935   1.870  10.332  0.2067 -0.0726  1.5369
   98OSM    C4F 9803   4.941   1.813  10.105  0.2813 -0.0451 -0.5124
   98OSM    H4F 9804   4.939   1.713  10.056 -4.6339 -1.1938  1.7332
   98OSM    H4G 9805   5.034   1.871  10.095  0.3270 -0.3034 -1.6437
   98OSM    C5F 9806   4.826   1.896  10.044 -0.0927 -0.5039  0.7535
   98OSM    H5F 9807   4.823   1.990  10.104  1.9166  0.7881 -1.1201
   98OSM    H5G 9808   4.728   1.849  10.063 -1.2041  2.5586  3.1466
   98OSM    C6F 9809   4.851   1.920   9.891 -0.2058 -0.2465  0.1205
   98OSM    H6F 9810   4.835   1.821   9.843  2.6019 -1.1932  1.0408
   98OSM    H6G 9811   4.958   1.944   9.871 -0.7311  0.9777 -1.4113
   98OSM    C7F 9812   4.771   2.037   9.831 -0.0662  0.3554  0.2394
   98OSM    H7F 9813   4.798   2.126   9.892 -1.3818  0.7330  0.2929
   98OSM    H7G 9814   4.663   2.013   9.841  0.2208 -1.1650 -0.2101
   98OSM    C8F 9815   4.810   2.055   9.684  0.1599 -0.5319 -0.5545
   98OSM    H8F 9816   4.805   1.955   9.635 -0.9317 -2.1262  2.6500
   98OSM    H8G 9817   4.914   2.093   9.686  0.3435 -0.8701 -2.3893
   98OSM    C9F 9818   4.726   2.165   9.620  0.3125  0.2680  0.4145
   98OSM    H9F 9819   4.717   2.260   9.675 -1.4669  1.6446 -2.1345
   98OSM   C10F 9820   4.660   2.156   9.497  0.2273 -0.1290 -0.2951
   98OSM   H10F 9821   4.600   2.238   9.455  0.5253  0.0892 -0.2965
   98OSM   C11F 9822   4.647   2.037   9.407  0.0354  0.2125  0.0005
   98OSM   H11F 9823   4.540   2.010   9.418 -0.3921  1.2428 -1.5894
   98OSM   H11G 9824   4.703   1.954   9.456  0.7141  0.4510 -0.3619
   98OSM   C12F 9825   4.698   2.068   9.270  0.4023  0.8051 -0.2033
   98OSM   H12F 9826   4.799   2.116   9.273  1.5771 -1.6003  0.2432
   98OSM   H12G 9827   4.625   2.134   9.218  0.3648 -0.2031 -1.4516
   98OSM   C13F 9828   4.720   1.947   9.183 -0.3915  0.1381  0.3576
   98OSM   H13F 9829   4.627   1.888   9.172  0.9505 -1.7988 -0.9406
   98OSM   H13G 9830   4.789   1.868   9.221  0.1415 -0.2866 -1.4084
   98OSM   C14F 9831   4.763   1.988   9.047 -0.0818 -0.1291  0.2558
   98OSM   H14F 9832   4.844   2.064   9.055 -1.6189  1.6246 -0.7417
   98OSM   H14G 9833   4.688   2.040   8.985  0.6740 -1.1818 -1.5860
   98OSM   C15F 9834   4.823   1.871   8.968  0.0402 -0.4612  0.0520
   98OSM   H15F 9835   4.746   1.794   8.947 -1.1009  0.5885  0.3365
   98OSM   H15G 9836   4.904   1.824   9.028  0.6957  1.0849  0.4224
   98OSM   C16F 9837   4.892   1.900   8.831 -0.1070 -0.1908 -0.6626
   98OSM   H16F 9838   4.957   1.818   8.794  1.5878  0.8001  0.0420
   98OSM   H16G 9839   4.955   1.991   8.842 -1.2805  0.2895  2.9272
   98OSM   C17F 9840   4.793   1.936   8.719  0.3703 -0.0076 -0.4332
   98OSM   H17F 9841   4.726   2.010   8.769  0.3599 -1.4225  1.7424
   98OSM   H17G 9842   4.731   1.847   8.697 -0.8150  0.2431  1.6824
   98OSM   C18F 9843   4.853   1.991   8.590 -0.3389  0.1895  0.8823
   98OSM   H18F 9844   4.892   2.091   8.620  0.1280  0.9293 -2.0677
   98OSM   H18G 9845   4.772   1.994   8.514  0.3846 -0.3383  0.1000
   98OSM   H18H 9846   4.930   1.913   8.574 -0.6705  0.1884 -0.8125
   99OSM      N 9847   0.437   1.549  11.326  0.1725  0.6908 -0.2079
   99OSM    C15 9848   0.531   1.482  11.416 -0.4987 -1.2624 -0.3344
   99OSM   H15A 9849   0.633   1.513  11.396 -0.1575 -2.6028 -0.7681
   99OSM   H15B 9850   0.527   1.374  11.415  0.8526 -1.3450  0.8644
   99OSM   H15C 9851   0.514   1.507  11.520  0.3468  1.0274 -0.7184
   99OSM    C14 9852   0.294   1.518  11.354  0.0957  0.3840 -0.3187
   99OSM   H14A 9853   0.255   1.553  11.449 -0.1224 -1.7995  0.4122
   99OSM   H14B 9854   0.273   1.412  11.349 -0.2549  0.3783  1.0567
   99OSM   H14C 9855   0.223   1.561  11.285  1.6936  0.0350 -2.2268
   99OSM    C13 9856   0.468   1.697  11.351  0.6784 -0.6390  0.4380
   99OSM   H13A 9857   0.470   1.724  11.455 -0.8867 -2.5507  1.0108
   99OSM   H13B 9858   0.390   1.760  11.311  0.8840 -0.5379  0.1958
   99OSM   H13C 9859   0.567   1.715  11.312 -0.1064 -0.9079 -1.7478
   99OSM    C12 9860   0.478   1.502  11.189  1.4063 -0.3020 -0.2178
   99OSM   H12A 9861   0.480   1.394  11.186  0.6331 -0.3141 -0.2766
   99OSM   H12B 9862   0.579   1.533  11.165  1.4862 -1.5844 -1.6194
   99OSM    C11 9863   0.385   1.554  11.070  0.6243  0.2963 -0.7213
   99OSM   H11A 9864   0.283   1.516  11.092  1.8667 -1.8964  1.5422
   99OSM   H11B 9865   0.420   1.505  10.976 -1.0585 -1.4550 -0.4607
   99OSM      P 9866   0.470   1.779  10.974 -0.5646  0.4074  0.3157
   99OSM    O13 9867   0.424   1.921  10.982 -0.3101  0.0870  0.3500
   99OSM    O14 9868   0.616   1.750  10.987  0.5197 -0.5575 -0.0677
   99OSM    O11 9869   0.422   1.727  10.834 -0.3092 -0.6410 -0.4418
   99OSM    O12 9870   0.378   1.691  11.064  0.0750  0.3632 -0.4188
   99OSM    C1S 9871   0.291   1.761  10.789 -0.2105  0.0068 -0.7625
   99OSM    H1S 9872   0.282   1.871  10.793  0.5543  0.0640 -0.6059
   99OSM    H1T 9873   0.215   1.727  10.863 -0.0673  1.0509 -0.1345
   99OSM     NF 9874   0.165   1.778  10.568  0.0672  0.2557 -0.1228
   99OSM    HNF 9875   0.081   1.724  10.571 -1.8164  3.0934  0.2792
   99OSM    C2S 9876   0.277   1.709  10.643 -0.7933 -0.1649 -0.3102
   99OSM    H2S 9877   0.374   1.732  10.595 -0.4736  0.4700  0.6067
   99OSM    C3S 9878   0.259   1.552  10.641 -0.4350 -0.5041  0.2542
   99OSM    H3S 9879   0.160   1.531  10.688 -0.2091  0.0185  0.9777
   99OSM     O3 9880   0.359   1.489  10.717  0.1748  0.2695 -0.7575
   99OSM    HO3 9881   0.407   1.569  10.740  2.4488 -1.1119 -0.5533
   99OSM    C4S 9882   0.253   1.495  10.506  0.8262 -0.2198  0.5478
   99OSM    H4S 9883   0.352   1.482  10.459 -0.2245  0.4475 -1.9149
   99OSM    C5S 9884   0.140   1.458  10.441 -0.0052  0.1354 -0.3541
   99OSM    H5S 9885   0.040   1.469  10.485  0.3330  2.2036 -0.0435
   99OSM    C6S 9886   0.143   1.409  10.298 -0.1948 -0.4506  0.1219
   99OSM    H6S 9887   0.074   1.322  10.288  0.5217 -1.0650  0.4974
   99OSM    H6T 9888   0.243   1.365  10.280 -0.0296 -1.2150  2.6862
   99OSM    C7S 9889   0.111   1.515  10.185  0.5928 -0.0485  0.6907
   99OSM    H7S 9890   0.166   1.609  10.207  1.3124 -0.0423 -1.0619
   99OSM    H7T 9891   0.001   1.533  10.187  0.7214  0.7256  0.9843
   99OSM    C8S 9892   0.152   1.478  10.044  0.0052 -0.2565 -0.6552
   99OSM    H8S 9893   0.116   1.374  10.029  0.6189 -0.4901 -0.5200
   99OSM    H8T 9894   0.262   1.479  10.028 -0.3458 -0.3323 -3.2099
   99OSM    C9S 9895   0.093   1.569   9.937 -0.0796 -0.9096 -0.0675
   99OSM    H9S 9896   0.112   1.678   9.951  0.0449 -0.8697 -0.5205
   99OSM    H9T 9897  -0.012   1.537   9.922 -1.3311  2.2564  1.4519
   99OSM   C10S 9898   0.168   1.545   9.805 -0.2563  0.6314  0.0819
   99OSM   H10S 9899   0.169   1.437   9.780  0.0570  0.5230  0.5498
   99OSM   H10T 9900   0.273   1.576   9.825 -0.6846  0.3818  3.0304
   99OSM   C11S 9901   0.121   1.640   9.696  0.2978 -0.3458 -1.0622
   99OSM   H11S 9902   0.142   1.741   9.739  2.1103 -1.0537 -0.2404
   99OSM   H11T 9903   0.014   1.630   9.668 -0.4558  1.1797  1.1179
   99OSM   C12S 9904   0.205   1.619   9.561 -0.2032  0.3088 -0.8667
   99OSM   H12S 9905   0.310   1.634   9.592 -0.0399 -0.3059 -1.1182
   99OSM   H12T 9906   0.191   1.514   9.528  0.5948 -0.3170  0.6933
   99OSM   C13S 9907   0.159   1.714   9.459  0.4683  0.3228 -0.1895
   99OSM   H13S 9908   0.150   1.813   9.508 -2.5511 -0.7349  1.5103
   99OSM   H13T 9909   0.064   1.691   9.406 -0.0538 -0.2778  0.9898
   99OSM   C14S 9910   0.271   1.725   9.343 -0.7169 -0.5571 -0.5589
   99OSM   H14S 9911   0.279   1.619   9.310  1.3197 -0.4447 -0.4882
   99OSM   H14T 9912   0.370   1.761   9.378 -2.4041  1.4370  2.3866
   99OSM   C15S 9913   0.230   1.811   9.229  0.7754 -0.2674 -0.7074
   99OSM   H15S 9914   0.203   1.916   9.254 -1.1236 -0.2403 -2.6533
   99OSM   H15T 9915   0.135   1.770   9.187  0.1805  2.2904 -1.9724
   99OSM   C16S 9916   0.337   1.804   9.120 -0.2218 -0.0584 -0.5340
   99OSM   H16S 9917   0.434   1.843   9.158 -1.1705  1.5571  0.3144
   99OSM   H16T 9918   0.301   1.878   9.045 -0.0022 -0.0562 -0.6366
   99OSM   C17S 9919   0.374   1.671   9.056  0.6939  0.3823  0.2867
   99OSM   H17S 9920   0.280   1.628   9.017  0.7845  0.4683 -0.0218
   99OSM   H17T 9921   0.421   1.589   9.116  1.0878  0.6334  0.3242
   99OSM   C18S 9922   0.465   1.690   8.936  0.0347  0.0643 -0.1771
   99OSM   H18S 9923   0.429   1.766   8.863 -1.6424 -1.2671 -0.7891
   99OSM   H18T 9924   0.485   1.593   8.884  0.4113  0.8541 -1.5404
   99OSM   H18U 9925   0.554   1.742   8.976  1.6955  1.1758 -4.9552
   99OSM    C1F 9926   0.173   1.903  10.522  0.3686 -0.1319 -0.7021
   99OSM     OF 9927   0.276   1.967  10.546 -0.1205 -0.8930  0.4898
   99OSM    C2F 9928   0.047   1.960  10.468  0.2548  0.2791  0.6664
   99OSM    H2F 9929  -0.022   1.971  10.554 -1.8023  0.2984 -0.9614
   99OSM    H2G 9930  -0.001   1.886  10.401 -0.9304 -0.4898  2.3144
   99OSM    C3F 9931   0.062   2.095  10.396 -0.0710 -0.7817  0.7434
   99OSM    H3F 9932  -0.043   2.122  10.371  0.6572 -0.7070 -2.4519
   99OSM    H3G 9933   0.114   2.172  10.457  0.2166  0.2417 -0.7723
   99OSM    C4F 9934   0.131   2.083  10.260  0.1704  0.3601  0.4168
   99OSM    H4F 9935   0.233   2.041  10.270 -0.0957 -0.9745 -2.0888
   99OSM    H4G 9936   0.131   2.182  10.209 -0.5874  1.3750  2.3071
   99OSM    C5F 9937   0.062   1.978  10.168  0.1213  0.6557 -0.0716
   99OSM    H5F 9938  -0.041   2.017  10.170 -0.2501 -0.3121  0.1293
   99OSM    H5G 9939   0.062   1.871  10.199  0.7712  0.0375 -2.1595
   99OSM    C6F 9940   0.112   1.981  10.024 -0.1064 -0.2570 -0.7737
   99OSM    H6F 9941   0.083   2.080   9.984  0.0235  0.5946  1.1890
   99OSM    H6G 9942   0.051   1.913   9.959  0.7723 -0.6839 -1.1675
   99OSM    C7F 9943   0.256   1.944   9.992  0.5870 -0.1194 -0.0790
   99OSM    H7F 9944   0.265   1.833   9.990  2.5395 -0.0251  1.5875
   99OSM    H7G 9945   0.336   1.972  10.064  2.2135  1.2711 -2.3483
   99OSM    C8F 9946   0.293   1.976   9.836 -0.1329  0.4821 -0.8881
   99OSM    H8F 9947   0.218   1.929   9.769  0.7938  2.7760 -3.6203
   99OSM    H8G 9948   0.390   1.925   9.818  0.6484  1.1236  1.2647
   99OSM    C9F 9949   0.309   2.124   9.807 -0.1358 -0.4722  1.1641
   99OSM    H9F 9950   0.294   2.196   9.889  0.6930  3.1435 -1.7751
   99OSM   C10F 9951   0.348   2.166   9.685  0.0471 -0.4688 -0.3198
   99OSM   H10F 9952   0.346   2.275   9.668  0.1605 -0.6206 -1.3524
   99OSM   C11F 9953   0.375   2.087   9.559 -0.3303 -0.1766  0.0163
   99OSM   H11F 9954   0.332   1.986   9.575 -1.9886  0.2742 -1.4587
   99OSM   H11G 9955   0.484   2.079   9.536  0.1017 -0.9263  2.2164
   99OSM   C12F 9956   0.311   2.153   9.440 -0.7152 -0.2071 -0.3385
   99OSM   H12F 9957   0.319   2.087   9.350  0.6073  0.3829 -0.6644
   99OSM   H12G 9958   0.374   2.241   9.414 -0.0332 -0.4189  0.5995
   99OSM   C13F 9959   0.163   2.192   9.459  0.1522  1.1396  0.2798
   99OSM   H13F 9960   0.155   2.290   9.512  0.7054  2.3504 -1.8259
   99OSM   H13G 9961   0.116   2.115   9.524  0.0281  1.0739  0.1123
   99OSM   C14F 9962   0.081   2.222   9.338 -0.8671  0.8233 -0.0894
   99OSM   H14F 9963  -0.014   2.264   9.375 -0.9613 -0.1179  0.7618
   99OSM   H14G 9964   0.072   2.126   9.283 -4.0694  0.1388  1.5156
   99OSM   C15F 9965   0.156   2.321   9.240 -0.2277  0.1442 -0.2512
   99OSM   H15F 9966   0.233   2.270   9.179 -1.7614 -1.2417 -1.0878
   99OSM   H15G 9967   0.219   2.385   9.305 -0.7912 -0.1345  0.5941
   99OSM   C16F 9968   0.065   2.411   9.160  0.6209 -0.4750 -0.4970
   99OSM   H16F 9969   0.121   2.456   9.076 -1.3245  1.4611 -0.8110
   99OSM   H16G 9970   0.018   2.494   9.217  0.3861 -0.0978 -1.2373
   99OSM   C17F 9971  -0.050   2.334   9.092 -0.0970 -1.1378 -0.2313
   99OSM   H17F 9972  -0.129   2.309   9.165 -2.4228  1.3212 -1.8185
   99OSM   H17G 9973  -0.006   2.237   9.061  1.9726  0.3335 -2.1098
   99OSM   C18F 9974  -0.117   2.399   8.967 -0.6226  0.6035 -0.3808
   99OSM   H18F 9975  -0.056   2.388   8.875 -2.2669 -0.3818 -1.3798
   99OSM   H18G 9976  -0.141   2.505   8.988 -2.4746  0.3129 -0.9193
   99OSM   H18H 9977  -0.214   2.347   8.949 -0.5212 -0.4421  1.8895
  100OSM      N 9978   2.262   2.900  10.981 -0.0760 -0.2498  0.0983
  100OSM    C15 9979   2.282   3.050  10.957  0.0553  0.3532  0.1053
  100OSM   H15A 9980   2.209   3.086  10.887  1.4019  0.1279 -1.4370
  100OSM   H15B 9981   2.377   3.065  10.908  0.0464 -0.8218 -0.2700
  100OSM   H15C 9982   2.288   3.105  11.050  2.7892  0.2512  0.0232
  100OSM    C14 9983   2.333   2.844  11.096 -0.3895 -0.2159  0.7194
  100OSM   H14A 9984   2.306   2.741  11.113  1.3532 -0.6837  0.7434
  100OSM   H14B 9985   2.308   2.906  11.181 -2.1433 -0.1913  0.2151
  100OSM   H14C 9986   2.438   2.845  11.075 -0.1102  0.2600  2.0751
  100OSM    C13 9987   2.103   2.892  11.011  0.0245  0.3046  0.1204
  100OSM   H13A 9988   2.088   2.944  11.105 -0.0901  1.3030 -0.4469
  100OSM   H13B 9989   2.073   2.789  11.016  1.7779 -0.2198  0.1910
  100OSM   H13C 9990   2.046   2.957  10.947 -0.3417 -0.7280 -0.6093
  100OSM    C12 9991   2.286   2.832  10.849  0.1075  0.7807  0.3173
  100OSM   H12A 9992   2.274   2.727  10.869 -0.3616  1.0157  1.2971
  100OSM   H12B 9993   2.390   2.841  10.822  0.5393  0.0600  1.6931
  100OSM    C11 9994   2.195   2.862  10.721 -0.3759  0.0340 -0.3078
  100OSM   H11A 9995   2.243   2.814  10.633 -2.8675  1.6711 -2.6462
  100OSM   H11B 9996   2.200   2.972  10.704 -1.0713  0.5360  2.5308
  100OSM      P 9997   1.953   2.865  10.636 -0.3145  0.0251 -0.1133
  100OSM    O13 9998   1.839   2.779  10.659 -0.2634 -0.0191  0.1909
  100OSM    O14 9999   1.942   3.008  10.649 -0.2855 -0.2665 -0.2689
  100OSM    O1110000   2.004   2.834  10.488 -0.2384 -0.0362  0.1993
  100OSM    O1210001   2.062   2.815  10.739 -0.6903 -0.5340  0.2276
  100OSM    C1S10002   2.039   2.703  10.455  0.1507  0.3004  0.7765
  100OSM    H1S10003   1.961   2.634  10.496 -0.9502 -0.3977 -2.3580
  100OSM    H1T10004   2.134   2.674  10.503  0.2553  0.0580  0.4221
  100OSM     NF10005   2.056   2.534  10.279 -0.0854 -0.9090  0.3486
  100OSM    HNF10006   2.153   2.512  10.265 -0.0439 -1.1762  1.0097
  100OSM    C2S10007   2.040   2.678  10.300 -0.1813 -0.3232  0.4751
  100OSM    H2S10008   1.952   2.725  10.251  0.4299 -0.1211 -0.4367
  100OSM    C3S10009   2.160   2.760  10.247 -0.0298 -0.1781 -0.3257
  100OSM    H3S10010   2.251   2.709  10.285  0.7525  1.3424 -0.1171
  100OSM     O310011   2.159   2.894  10.289  0.7675 -0.5500  0.2259
  100OSM    HO310012   2.093   2.885  10.359  0.3307  3.5982  0.4586
  100OSM    C4S10013   2.168   2.755  10.096  0.5955 -0.0262 -0.4358
  100OSM    H4S10014   2.161   2.652  10.057 -1.0978 -0.3417  0.6490
  100OSM    C5S10015   2.181   2.853  10.009 -0.1535 -0.4573 -0.5655
  100OSM    H5S10016   2.203   2.952  10.051 -2.4506  0.1291 -0.6583
  100OSM    C6S10017   2.191   2.842   9.859 -0.7287 -0.1354 -0.6411
  100OSM    H6S10018   2.259   2.917   9.814 -1.4941  0.2135 -1.2206
  100OSM    H6T10019   2.088   2.865   9.824  0.2610 -0.6288 -4.0417
  100OSM    C7S10020   2.237   2.705   9.800  0.4989 -0.6053  0.1386
  100OSM    H7S10021   2.149   2.640   9.823  1.4262 -1.1660  2.2518
  100OSM    H7T10022   2.326   2.674   9.858 -0.2141  1.6997  2.6070
  100OSM    C8S10023   2.250   2.705   9.645 -0.4290  0.7398  0.3988
  100OSM    H8S10024   2.337   2.768   9.616 -0.3690  0.7000  0.4962
  100OSM    H8T10025   2.157   2.753   9.606 -0.0748  2.8475  2.0794
  100OSM    C9S10026   2.277   2.558   9.603  0.2807  0.2665 -0.7945
  100OSM    H9S10027   2.202   2.492   9.653  0.1402  1.0340  0.0065
  100OSM    H9T10028   2.383   2.541   9.631 -0.5395  0.4941  2.6177
  100OSM   C10S10029   2.257   2.538   9.456 -0.2173  0.3881  0.3288
  100OSM   H10S10030   2.149   2.555   9.436  0.0084  0.6904 -0.6430
  100OSM   H10T10031   2.265   2.430   9.430 -2.3739  0.3519 -0.2795
  100OSM   C11S10032   2.346   2.630   9.369 -0.1237  0.2439 -0.5793
  100OSM   H11S10033   2.452   2.607   9.392  0.6870  1.0259 -3.3911
  100OSM   H11T10034   2.335   2.735   9.404 -0.2638  0.0430 -0.0068
  100OSM   C12S10035   2.325   2.626   9.215 -0.1967 -0.0123  0.3762
  100OSM   H12S10036   2.366   2.718   9.169 -2.1827  0.1993 -1.0374
  100OSM   H12T10037   2.216   2.631   9.191  0.0756 -1.0905 -1.1137
  100OSM   C13S10038   2.380   2.499   9.141  0.4179 -1.1129 -0.3080
  100OSM   H13S10039   2.338   2.505   9.038 -0.7560  2.3863  0.3230
  100OSM   H13T10040   2.343   2.402   9.180  1.5138 -1.3016  0.2701
  100OSM   C14S10041   2.528   2.481   9.126  0.0042 -0.3869 -0.7410
  100OSM   H14S10042   2.573   2.469   9.227 -0.1488 -1.5128 -0.8112
  100OSM   H14T10043   2.578   2.574   9.090  1.8220 -1.1755 -0.3222
  100OSM   C15S10044   2.580   2.383   9.027 -0.4261 -0.5579  0.3618
  100OSM   H15S10045   2.538   2.395   8.925  2.3082 -0.8393 -0.8427
  100OSM   H15T10046   2.558   2.280   9.063 -1.6428 -0.6546 -0.6444
  100OSM   C16S10047   2.730   2.402   9.010  0.6162 -0.0891 -0.1105
  100OSM   H16S10048   2.785   2.399   9.106  1.0057 -1.5210 -0.3701
  100OSM   H16T10049   2.751   2.506   8.977 -0.8715 -0.0108 -0.8492
  100OSM   C17S10050   2.789   2.315   8.902 -0.3231  0.3237  0.2114
  100OSM   H17S10051   2.752   2.211   8.917 -2.0325  0.8137 -0.4189
  100OSM   H17T10052   2.900   2.316   8.902 -0.2838  2.2483 -2.7187
  100OSM   C18S10053   2.761   2.354   8.758 -0.2317 -0.3114 -0.0838
  100OSM   H18S10054   2.794   2.460   8.756 -0.2091 -0.3009  0.7111
  100OSM   H18T10055   2.651   2.345   8.748 -0.6105  2.0980  1.5253
  100OSM   H18U10056   2.824   2.287   8.695  0.0704 -0.4925  0.4067
  100OSM    C1F10057   1.960   2.447  10.296  0.5721 -0.2718 -0.0086
  100OSM     OF10058   1.846   2.499  10.306 -0.2928  0.0112  0.0072
  100OSM    C2F10059   1.995   2.308  10.316  0.0126 -0.1722 -0.0905
  100OSM    H2F10060   1.919   2.274  10.389  1.4935 -0.5250  1.3228
  100OSM    H2G10061   2.086   2.299  10.380  0.3310 -0.3711 -0.5718
  100OSM    C3F10062   1.982   2.232  10.186 -0.1554  0.2054  0.0372
  100OSM    H3F10063   1.879   2.216  10.150 -1.2374  1.0578  2.6551
  100OSM    H3G10064   2.029   2.133  10.209 -1.2238  0.0231  1.5130
  100OSM    C4F10065   2.064   2.288  10.071 -0.4453 -0.2984  0.3045
  100OSM    H4F10066   2.154   2.338  10.111 -0.3188 -0.1738 -0.1412
  100OSM    H4G10067   1.998   2.358  10.016  1.2517 -0.1180 -1.5545
  100OSM    C5F10068   2.101   2.180   9.971  0.2482  0.5898 -0.7238
  100OSM    H5F10069   2.011   2.116   9.959  0.3739 -0.1463  1.9124
  100OSM    H5G10070   2.181   2.124  10.023  1.0256  1.7062 -0.6998
  100OSM    C6F10071   2.141   2.234   9.835 -0.1969 -0.6099 -0.0443
  100OSM    H6F10072   2.226   2.305   9.835 -0.3719 -0.3936  1.3122
  100OSM    H6G10073   2.052   2.288   9.797  0.8422  0.1015 -1.5015
  100OSM    C7F10074   2.150   2.116   9.731  0.4241  0.4525  0.1337
  100OSM    H7F10075   2.055   2.058   9.734 -0.6874  1.9662 -3.3145
  100OSM    H7G10076   2.230   2.045   9.761  0.2350  0.2312  0.1171
  100OSM    C8F10077   2.170   2.168   9.585 -0.1105  0.1926  0.3505
  100OSM    H8F10078   2.248   2.247   9.596  0.5269 -0.3136 -0.3956
  100OSM    H8G10079   2.078   2.225   9.564  0.0404 -0.5018 -2.3411
  100OSM    C9F10080   2.212   2.044   9.501 -0.5293 -0.1855 -0.2541
  100OSM    H9F10081   2.279   1.977   9.556 -0.6417  0.8818  1.2012
  100OSM   C10F10082   2.178   2.008   9.367 -0.3611 -0.0171 -0.2846
  100OSM   H10F10083   2.224   1.921   9.317  0.2578 -0.8224  1.6397
  100OSM   C11F10084   2.082   2.081   9.279 -0.4859 -0.3044  0.0309
  100OSM   H11F10085   2.003   2.127   9.342  0.1292 -2.3338  2.3827
  100OSM   H11G10086   2.042   2.012   9.201 -0.6646  1.7237 -1.7294
  100OSM   C12F10087   2.149   2.202   9.206 -0.3098 -0.1023 -0.0110
  100OSM   H12F10088   2.217   2.168   9.125  0.6817  0.8646  0.4156
  100OSM   H12G10089   2.199   2.264   9.283  0.2133 -0.2202 -0.2520
  100OSM   C13F10090   2.054   2.300   9.138  0.3138  0.3266  0.5291
  100OSM   H13F10091   2.113   2.394   9.136  2.5928 -1.0771 -3.9200
  100OSM   H13G10092   1.953   2.311   9.184 -1.6438 -0.5075 -3.3864
  100OSM   C14F10093   2.040   2.275   8.986 -0.0970 -0.3219 -0.6803
  100OSM   H14F10094   2.026   2.167   8.964 -0.4027 -0.9043  2.1719
  100OSM   H14G10095   2.139   2.296   8.940  0.5134  0.1402  0.8129
  100OSM   C15F10096   1.935   2.350   8.926  0.2768 -0.2329 -0.0588
  100OSM   H15F10097   1.940   2.358   8.816  2.5329 -1.0217 -0.0453
  100OSM   H15G10098   1.942   2.455   8.960 -0.2635 -0.2546  0.1257
  100OSM   C16F10099   1.798   2.301   8.970  0.0370  0.1199 -0.2339
  100OSM   H16F10100   1.780   2.305   9.079 -0.3904  0.3330 -0.3115
  100OSM   H16G10101   1.805   2.196   8.936 -2.9112  0.3127 -1.6267
  100OSM   C17F10102   1.688   2.380   8.900  0.6165  0.6250  0.6938
  100OSM   H17F10103   1.724   2.395   8.796  0.8039 -0.9574  0.5087
  100OSM   H17G10104   1.682   2.481   8.946 -3.2442  0.7884 -0.0632
  100OSM   C18F10105   1.556   2.304   8.903 -0.7957  0.5688  0.1378
  100OSM   H18F10106   1.499   2.303   8.998  0.9949 -1.8148  1.2421
  100OSM   H18G10107   1.573   2.199   8.871  0.1561  0.4660  0.9810
  100OSM   H18H10108   1.496   2.349   8.821 -1.5403  0.0075  0.3775
  101OSM      N10109   5.577   3.094  11.164 -0.4549  0.0790  0.3443
  101OSM    C1510110   5.603   3.238  11.176 -0.4924  1.1102  1.0142
  101OSM   H15A10111   5.619   3.255  11.281 -3.2059 -1.1821  1.8357
  101OSM   H15B10112   5.528   3.310  11.145  0.4255  1.5836 -0.1571
  101OSM   H15C10113   5.696   3.263  11.127 -1.0061  0.2338 -0.4735
  101OSM    C1410114   5.675   3.016  11.244  0.1681 -0.0592 -0.4521
  101OSM   H14A10115   5.664   2.916  11.206  1.5105 -0.5090  0.3242
  101OSM   H14B10116   5.654   3.029  11.349 -2.6195  0.3892 -1.0430
  101OSM   H14C10117   5.777   3.041  11.218  0.8555 -1.1231  1.1489
  101OSM    C1310118   5.437   3.063  11.211  0.5582  0.4844  0.0742
  101OSM   H13A10119   5.360   3.130  11.176  1.2798  1.2958  0.0060
  101OSM   H13B10120   5.427   3.091  11.315 -0.0695  1.3263 -0.2069
  101OSM   H13C10121   5.415   2.959  11.197  1.2632 -0.0751  2.7997
  101OSM    C1210122   5.580   3.050  11.017 -0.4457 -0.0600 -0.4457
  101OSM   H12A10123   5.671   3.081  10.968 -0.0283  0.4851  0.6472
  101OSM   H12B10124   5.503   3.092  10.955 -1.9091 -1.7523  0.1843
  101OSM    C1110125   5.581   2.899  10.986  0.5163  0.3126 -0.1177
  101OSM   H11A10126   5.559   2.901  10.877  2.1102 -2.6598 -0.5343
  101OSM   H11B10127   5.501   2.838  11.033 -0.0218  1.3848  0.3763
  101OSM      P10128   5.733   2.686  10.975  0.0563 -0.0533 -0.0668
  101OSM    O1310129   5.877   2.652  10.978 -0.2648  0.1728 -0.1956
  101OSM    O1410130   5.655   2.609  11.079  0.8023  0.1034  0.3280
  101OSM    O1110131   5.677   2.658  10.827  0.4707  0.8896 -0.1482
  101OSM    O1210132   5.720   2.845  10.992  0.9045 -0.0042 -0.5423
  101OSM    C1S10133   5.742   2.726  10.719  0.0399 -0.4849 -0.0720
  101OSM    H1S10134   5.840   2.678  10.698 -0.2013 -1.8827  1.8629
  101OSM    H1T10135   5.750   2.835  10.739  0.9506 -0.4295 -0.7102
  101OSM     NF10136   5.733   2.791  10.485  0.3652  0.4505  0.4015
  101OSM    HNF10137   5.690   2.879  10.464 -2.7319 -1.1293 -0.3422
  101OSM    C2S10138   5.664   2.720  10.582 -0.3256 -0.2056 -0.4962
  101OSM    H2S10139   5.649   2.616  10.546 -0.1562 -0.3225 -0.2329
  101OSM    C3S10140   5.513   2.773  10.607  0.3774 -0.8376 -0.3480
  101OSM    H3S10141   5.524   2.881  10.628 -1.9323 -0.7282  0.3899
  101OSM     O310142   5.439   2.714  10.715  0.1494  0.1548  0.4501
  101OSM    HO310143   5.507   2.682  10.775  2.0344  2.0980 -0.5837
  101OSM    C4S10144   5.429   2.762  10.480  0.2805  0.6142 -0.7753
  101OSM    H4S10145   5.428   2.854  10.418 -0.3038  1.3435  0.3016
  101OSM    C5S10146   5.363   2.652  10.440 -0.7165 -0.0132  0.2198
  101OSM    H5S10147   5.353   2.564  10.506 -3.0551  1.4201  1.8397
  101OSM    C6S10148   5.281   2.649  10.314 -0.1136 -0.2248  0.1666
  101OSM    H6S10149   5.216   2.736  10.292  0.8914  1.2450  2.7520
  101OSM    H6T10150   5.221   2.556  10.318 -0.2764 -0.0360  2.8347
  101OSM    C7S10151   5.374   2.631  10.187  0.6216 -0.6382 -0.1050
  101OSM    H7S10152   5.440   2.544  10.207  0.4159 -0.7311  0.1735
  101OSM    H7T10153   5.442   2.717  10.172 -0.2087  0.0167 -0.1905
  101OSM    C8S10154   5.296   2.636  10.055 -0.6907  0.0256  0.8683
  101OSM    H8S10155   5.251   2.737  10.053 -2.4728 -0.7509  0.6690
  101OSM    H8T10156   5.221   2.554  10.064 -1.4612  0.4989 -1.0548
  101OSM    C9S10157   5.398   2.610   9.941  0.5465 -0.3336 -0.4611
  101OSM    H9S10158   5.450   2.516   9.971 -1.4788 -0.6808  2.2250
  101OSM    H9T10159   5.467   2.696   9.930  0.1570  0.1092  0.4025
  101OSM   C10S10160   5.328   2.586   9.808  0.2179  0.0965  0.3868
  101OSM   H10S10161   5.271   2.676   9.777 -1.1160 -0.5252  0.9864
  101OSM   H10T10162   5.248   2.509   9.819  1.2928 -0.8602  1.6846
  101OSM   C11S10163   5.425   2.533   9.697  0.4061 -0.6445  0.2739
  101OSM   H11S10164   5.481   2.444   9.734  0.3736 -1.1907 -0.9461
  101OSM   H11T10165   5.503   2.610   9.678 -0.2274  0.2298  1.2035
  101OSM   C12S10166   5.360   2.513   9.561 -0.1448  0.2602 -0.7452
  101OSM   H12S10167   5.302   2.606   9.546  0.6093  1.0795  1.1474
  101OSM   H12T10168   5.284   2.432   9.569 -0.9821  1.1974  0.9683
  101OSM   C13S10169   5.449   2.497   9.446  0.1059 -0.0722  0.3502
  101OSM   H13S10170   5.482   2.391   9.438 -0.7940 -0.5691  2.6518
  101OSM   H13T10171   5.539   2.561   9.458 -1.5719  2.3078  0.5852
  101OSM   C14S10172   5.380   2.516   9.308 -0.2786  0.2319 -0.0477
  101OSM   H14S10173   5.360   2.625   9.298 -0.8027  0.2473  1.1038
  101OSM   H14T10174   5.279   2.470   9.307 -0.5145  0.7368  0.1680
  101OSM   C15S10175   5.467   2.471   9.189  0.1403 -0.6780  0.3408
  101OSM   H15S10176   5.441   2.368   9.158 -0.6531  0.1884 -1.9696
  101OSM   H15T10177   5.574   2.474   9.220  0.3765 -1.3633 -0.4035
  101OSM   C16S10178   5.446   2.566   9.069  0.0032 -1.1333  0.1788
  101OSM   H16S10179   5.436   2.673   9.097 -2.6703 -1.1433 -0.5427
  101OSM   H16T10180   5.352   2.528   9.023 -0.3348 -0.1289  0.0206
  101OSM   C17S10181   5.564   2.560   8.976  0.6046 -0.0251 -0.0276
  101OSM   H17S10182   5.625   2.647   9.007 -1.2461  1.3214 -0.1339
  101OSM   H17T10183   5.533   2.571   8.870  0.4387  4.0284  0.3820
  101OSM   C18S10184   5.651   2.429   8.974 -0.2221 -0.1883 -0.6966
  101OSM   H18S10185   5.719   2.430   9.061  0.4987  1.4182 -1.2506
  101OSM   H18T10186   5.724   2.442   8.891 -1.9269  5.4217 -1.4983
  101OSM   H18U10187   5.592   2.335   8.974 -1.1750  0.3999 -0.3355
  101OSM    C1F10188   5.851   2.762  10.428  0.8578  0.1201 -0.5576
  101OSM     OF10189   5.898   2.652  10.459  0.7408  0.5425 -0.2295
  101OSM    C2F10190   5.914   2.873  10.341 -0.2358  0.0289 -0.0319
  101OSM    H2F10191   6.011   2.899  10.390 -1.3533  1.4857  1.4428
  101OSM    H2G10192   5.854   2.966  10.335 -0.0379  0.0524 -2.0877
  101OSM    C3F10193   5.961   2.828  10.200 -0.1444 -0.1546 -0.0968
  101OSM    H3F10194   6.013   2.729  10.203  0.2880  0.1045  1.0895
  101OSM    H3G10195   6.050   2.887  10.170 -3.1905  3.3456 -2.5790
  101OSM    C4F10196   5.852   2.821  10.097 -0.3216  0.3598  0.3642
  101OSM    H4F10197   5.810   2.921  10.076 -1.8137 -0.6247 -1.4570
  101OSM    H4G10198   5.777   2.752  10.141 -1.0047  1.0452  0.2646
  101OSM    C5F10199   5.900   2.743   9.970  0.8705  0.4683  0.0879
  101OSM    H5F10200   5.952   2.652  10.006 -0.9759 -0.8001 -0.4058
  101OSM    H5G10201   5.968   2.818   9.924  2.2563 -0.1639  1.0823
  101OSM    C6F10202   5.789   2.693   9.885  0.7822  0.5265  0.1672
  101OSM    H6F10203   5.737   2.614   9.943 -0.4061 -1.3129 -3.2248
  101OSM    H6G10204   5.707   2.767   9.869  0.7311  0.0250 -2.1261
  101OSM    C7F10205   5.826   2.627   9.756  0.6818 -0.0174 -0.0133
  101OSM    H7F10206   5.741   2.570   9.711  0.1441  1.0141 -0.3172
  101OSM    H7G10207   5.889   2.549   9.803 -2.9471 -2.1667  1.5613
  101OSM    C8F10208   5.900   2.717   9.661 -0.2043 -0.0760  0.0199
  101OSM    H8F10209   5.977   2.765   9.725  1.8208 -1.5467 -1.2394
  101OSM    H8G10210   5.831   2.798   9.630 -1.6902 -0.3785  2.4168
  101OSM    C9F10211   5.965   2.642   9.543 -0.5271 -0.4990 -0.5330
  101OSM    H9F10212   6.041   2.571   9.580  1.8128  0.7248 -2.8109
  101OSM   C10F10213   5.940   2.653   9.409 -0.2301 -0.5573 -0.1779
  101OSM   H10F10214   5.999   2.599   9.334  0.3031  1.6708 -1.4013
  101OSM   C11F10215   5.839   2.747   9.346 -0.1505 -0.3903 -1.0278
  101OSM   H11F10216   5.870   2.851   9.370 -0.5248 -0.9200  1.8110
  101OSM   H11G10217   5.734   2.734   9.379 -0.1104  1.0461 -0.2959
  101OSM   C12F10218   5.833   2.732   9.192 -0.1973  1.0914  0.6306
  101OSM   H12F10219   5.751   2.796   9.153  0.1969  1.3097  0.1645
  101OSM   H12G10220   5.810   2.624   9.174 -1.2586  1.3107  0.6381
  101OSM   C13F10221   5.957   2.777   9.117 -0.0305 -0.0315  0.0893
  101OSM   H13F10222   6.045   2.715   9.143  0.0525 -0.3470 -0.9368
  101OSM   H13G10223   5.979   2.884   9.136 -1.1393  0.1398  0.4605
  101OSM   C14F10224   5.946   2.754   8.965  0.6093 -1.0557  0.8316
  101OSM   H14F10225   5.901   2.849   8.929  2.3520 -0.8508 -0.9006
  101OSM   H14G10226   5.874   2.673   8.944 -1.6700  0.7174  1.5122
  101OSM   C15F10227   6.077   2.726   8.888 -0.0489  0.0779  0.5527
  101OSM   H15F10228   6.123   2.632   8.922 -0.0889 -0.0014  0.3916
  101OSM   H15G10229   6.149   2.807   8.914 -0.5619  1.1287 -1.2088
  101OSM   C16F10230   6.047   2.733   8.740 -0.0238 -0.6029  0.0060
  101OSM   H16F10231   6.145   2.745   8.689 -1.5785 -1.3968 -3.3114
  101OSM   H16G10232   6.007   2.831   8.708  1.5080 -0.1312 -0.4769
  101OSM   C17F10233   5.968   2.621   8.662  0.6942 -0.1211  0.5449
  101OSM   H17F10234   5.872   2.600   8.713 -0.4881 -2.6386 -2.5148
  101OSM   H17G10235   6.035   2.533   8.679  2.1699  1.0701  1.0030
  101OSM   C18F10236   5.941   2.663   8.518  0.2043 -0.0564  0.4532
  101OSM   H18F10237   6.037   2.688   8.469  0.3535 -1.2509  0.1155
  101OSM   H18G10238   5.877   2.754   8.518 -1.2800 -1.0441 -2.0053
  101OSM   H18H10239   5.900   2.575   8.463  0.7915  0.6324 -1.0926
  102OSM      N10240   0.411   5.052  10.918 -0.1329 -0.7298  0.4568
  102OSM    C1510241   0.436   4.953  11.021  0.2530  0.3479 -0.2155
  102OSM   H15A10242   0.364   4.967  11.100 -2.3073  1.7345 -2.7360
  102OSM   H15B10243   0.540   4.968  11.047  0.2145 -1.2311  0.9261
  102OSM   H15C10244   0.438   4.849  10.991  1.7584 -0.0956  1.3119
  102OSM    C1410245   0.267   5.029  10.880 -0.1465 -0.0407 -0.1376
  102OSM   H14A10246   0.243   4.925  10.897  1.6076 -0.4137  0.1862
  102OSM   H14B10247   0.248   5.054  10.776  0.2202 -0.0687 -0.2111
  102OSM   H14C10248   0.205   5.089  10.944 -0.0036  0.7144 -0.6988
  102OSM    C1310249   0.434   5.198  10.959  0.3127 -0.1844  0.5159
  102OSM   H13A10250   0.356   5.230  11.026  0.2850 -2.2139  1.4835
  102OSM   H13B10251   0.441   5.268  10.877  1.2399 -0.3655  0.4347
  102OSM   H13C10252   0.531   5.198  11.006  0.6426  2.1350 -0.1106
  102OSM    C1210253   0.506   5.025  10.799  0.4875  0.2423  0.0379
  102OSM   H12A10254   0.467   5.055  10.703  0.1557 -1.3170 -0.3387
  102OSM   H12B10255   0.505   4.919  10.777  1.6241 -0.1789  1.8956
  102OSM    C1110256   0.650   5.063  10.826  0.2996 -1.6084 -1.1845
  102OSM   H11A10257   0.653   5.163  10.874  0.4301 -1.3456 -1.7317
  102OSM   H11B10258   0.698   5.074  10.726 -0.6898 -1.1678 -1.6228
  102OSM      P10259   0.782   4.841  10.847 -0.3538 -0.0138  0.1843
  102OSM    O1310260   0.925   4.838  10.891 -0.0428 -0.3403  0.2260
  102OSM    O1410261   0.702   4.721  10.879 -0.3834  0.2452 -0.0293
  102OSM    O1110262   0.774   4.862  10.687  0.3471  0.6030 -0.0412
  102OSM    O1210263   0.720   4.968  10.909 -0.1753 -0.3551  0.0283
  102OSM    C1S10264   0.859   4.782  10.602  0.4983 -0.3480 -0.6312
  102OSM    H1S10265   0.823   4.677  10.588  0.1391 -0.5527  1.6535
  102OSM    H1T10266   0.958   4.769  10.650 -0.8805  0.2315  2.4909
  102OSM     NF10267   0.972   4.757  10.379 -0.0962 -0.8423  0.3386
  102OSM    HNF10268   1.066   4.777  10.354  0.5887 -0.2569  3.1265
  102OSM    C2S10269   0.892   4.849  10.463 -0.4317  0.8910  1.2505
  102OSM    H2S10270   0.798   4.865  10.405  3.0317  0.9099 -4.8268
  102OSM    C3S10271   0.962   4.986  10.485 -0.7707  0.0125 -0.0193
  102OSM    H3S10272   1.062   4.962  10.528 -0.5246  1.9866  0.5445
  102OSM     O310273   0.908   5.066  10.593 -0.7253 -0.5567 -0.4198
  102OSM    HO310274   0.847   5.007  10.637  0.1531 -0.8676  0.3690
  102OSM    C4S10275   0.987   5.054  10.352  0.0080  0.3092 -0.1669
  102OSM    H4S10276   1.083   5.033  10.303  1.0960  0.6555  1.7520
  102OSM    C5S10277   0.901   5.132  10.283 -0.3164 -0.0946  0.8985
  102OSM    H5S10278   0.802   5.169  10.315  0.0075  1.7644 -0.1979
  102OSM    C6S10279   0.936   5.192  10.150 -0.5099 -0.2243  0.3083
  102OSM    H6S10280   1.045   5.185  10.130 -0.1978 -0.3710  1.9959
  102OSM    H6T10281   0.919   5.301  10.146 -1.6660 -0.3716  0.9801
  102OSM    C7S10282   0.858   5.132  10.027  0.6265  0.4701 -0.3999
  102OSM    H7S10283   0.750   5.154  10.042  0.8949  1.2865  0.3314
  102OSM    H7T10284   0.878   5.023  10.030 -1.1353  0.1413  0.0308
  102OSM    C8S10285   0.896   5.184   9.888 -0.2309  0.2465  0.1931
  102OSM    H8S10286   0.993   5.138   9.862 -0.3004 -0.8487  1.8208
  102OSM    H8T10287   0.914   5.293   9.899  0.7932  0.4044 -2.6807
  102OSM    C9S10288   0.795   5.166   9.774 -0.6039  0.1768  0.1748
  102OSM    H9S10289   0.699   5.217   9.796 -0.4083  0.8937 -0.6031
  102OSM    H9T10290   0.763   5.059   9.769 -1.0704  0.2280  1.9700
  102OSM   C10S10291   0.843   5.215   9.638 -0.2809  0.2648  0.1474
  102OSM   H10S10292   0.942   5.166   9.626  0.4601  0.9859  2.9605
  102OSM   H10T10293   0.863   5.323   9.625  1.6908 -0.1432 -0.2704
  102OSM   C11S10294   0.755   5.178   9.510  0.1043 -0.4453 -0.4344
  102OSM   H11S10295   0.652   5.216   9.518 -0.0153 -0.9740  0.5883
  102OSM   H11T10296   0.754   5.069   9.489 -0.7888 -0.3603 -0.8419
  102OSM   C12S10297   0.802   5.244   9.380  0.2931  0.1460  0.4289
  102OSM   H12S10298   0.899   5.196   9.357  0.4094 -0.2013  1.6340
  102OSM   H12T10299   0.818   5.352   9.403 -2.5898  0.9036 -0.8499
  102OSM   C13S10300   0.699   5.222   9.263  0.5375 -0.2415 -0.5471
  102OSM   H13S10301   0.597   5.232   9.304  0.1908  0.2772 -1.5215
  102OSM   H13T10302   0.712   5.116   9.232  1.4037 -0.5116  0.6943
  102OSM   C14S10303   0.729   5.304   9.146 -0.0855  0.3880 -0.0976
  102OSM   H14S10304   0.828   5.290   9.099  0.4307  1.2817  0.7160
  102OSM   H14T10305   0.722   5.413   9.163 -0.9058  0.2094  0.7783
  102OSM   C15S10306   0.644   5.262   9.022  0.5166 -0.0723 -0.3366
  102OSM   H15S10307   0.538   5.266   9.056  0.5815 -2.8551  0.3018
  102OSM   H15T10308   0.669   5.164   8.977 -0.1127 -0.5459  0.3254
  102OSM   C16S10309   0.663   5.369   8.910 -0.2816  0.2165  0.3619
  102OSM   H16S10310   0.769   5.394   8.888 -0.4085 -0.5191 -1.2175
  102OSM   H16T10311   0.616   5.461   8.951 -1.4014 -0.4747  0.6703
  102OSM   C17S10312   0.588   5.346   8.775  0.1401 -0.5684 -0.4180
  102OSM   H17S10313   0.497   5.289   8.802  0.3245 -0.5071  0.3675
  102OSM   H17T10314   0.646   5.269   8.720  0.1636 -0.4680 -0.5334
  102OSM   C18S10315   0.571   5.474   8.691  0.0266 -0.0196  0.1585
  102OSM   H18S10316   0.519   5.558   8.742 -0.5330  1.6054 -3.0030
  102OSM   H18T10317   0.509   5.458   8.600 -2.0500  0.6435  1.4310
  102OSM   H18U10318   0.672   5.506   8.656 -0.1108 -1.0503 -1.2292
  102OSM    C1F10319   0.928   4.643  10.335 -0.0476 -0.0088 -0.3742
  102OSM     OF10320   0.811   4.607  10.357  0.1215  0.1130  0.7850
  102OSM    C2F10321   1.024   4.549  10.271 -0.2976  0.1234 -0.1493
  102OSM    H2F10322   1.039   4.459  10.334 -0.5794  0.3683  0.2707
  102OSM    H2G10323   1.116   4.606  10.248  0.3454 -1.0953 -0.6047
  102OSM    C3F10324   0.973   4.509  10.128  0.4812  0.6909 -0.1558
  102OSM    H3F10325   0.876   4.455  10.140  0.9311 -0.1543 -0.3232
  102OSM    H3G10326   1.055   4.450  10.082  2.4232  2.6433  0.7165
  102OSM    C4F10327   0.935   4.628  10.035 -0.9131  0.1256 -0.3674
  102OSM    H4F10328   1.014   4.707  10.038  0.0255 -0.8138 -0.1964
  102OSM    H4G10329   0.845   4.670  10.084 -1.7203 -0.3711 -1.4084
  102OSM    C5F10330   0.915   4.587   9.886  1.0108  0.2517 -0.2840
  102OSM    H5F10331   0.828   4.518   9.887  1.2269 -0.0448 -1.1090
  102OSM    H5G10332   1.004   4.537   9.844  0.5501  0.9058 -2.1013
  102OSM    C6F10333   0.875   4.712   9.803  0.0120  0.0609 -0.0042
  102OSM    H6F10334   0.957   4.785   9.787 -0.7582  0.4059 -2.7737
  102OSM    H6G10335   0.783   4.758   9.844 -1.0518 -2.1185  0.1458
  102OSM    C7F10336   0.853   4.657   9.659  0.1607  0.8857 -0.8334
  102OSM    H7F10337   0.788   4.568   9.654  2.1904 -0.7040  0.4594
  102OSM    H7G10338   0.952   4.627   9.618  0.3538 -1.3004  1.1700
  102OSM    C8F10339   0.785   4.769   9.573 -0.1448  0.0150  0.1287
  102OSM    H8F10340   0.837   4.866   9.587  0.2906 -0.1736 -0.1468
  102OSM    H8G10341   0.684   4.787   9.614 -0.0724 -0.6659  0.6092
  102OSM    C9F10342   0.774   4.711   9.434 -0.0353  0.6082 -0.3026
  102OSM    H9F10343   0.694   4.639   9.411 -2.6374  2.6040  2.2092
  102OSM   C10F10344   0.847   4.747   9.323  0.4940  0.2122 -0.0576
  102OSM   H10F10345   0.844   4.694   9.227  1.1620 -2.0402  1.1043
  102OSM   C11F10346   0.948   4.858   9.323  0.4330 -0.5507  0.1960
  102OSM   H11F10347   1.010   4.854   9.415  0.0811  1.2128  0.5243
  102OSM   H11G10348   0.896   4.956   9.323  1.0603 -0.2203 -0.5419
  102OSM   C12F10349   1.037   4.863   9.195  0.1613 -0.1964  0.6370
  102OSM   H12F10350   1.063   4.756   9.177 -0.1745 -0.3201  0.8723
  102OSM   H12G10351   1.125   4.925   9.223  0.0375  1.0380 -1.6072
  102OSM   C13F10352   0.967   4.925   9.074  0.4133  0.5186 -0.0357
  102OSM   H13F10353   0.902   5.006   9.113 -0.7272 -0.7014  0.6073
  102OSM   H13G10354   0.894   4.861   9.020 -0.7471  0.7371  1.2611
  102OSM   C14F10355   1.069   4.986   8.976 -0.3361  0.3275  0.8445
  102OSM   H14F10356   1.123   4.900   8.930 -0.2168  0.7969  0.1062
  102OSM   H14G10357   1.133   5.042   9.047 -0.5940  1.8363 -0.1071
  102OSM   C15F10358   1.009   5.088   8.875 -0.0247 -0.1775  0.1292
  102OSM   H15F10359   1.101   5.148   8.855 -0.3782  0.9195  1.6706
  102OSM   H15G10360   0.938   5.152   8.931  1.8092 -0.4338  2.8419
  102OSM   C16F10361   0.958   5.027   8.741 -0.3704  0.2206 -0.7429
  102OSM   H16F10362   0.923   4.927   8.774  1.1703 -0.2233 -0.3931
  102OSM   H16G10363   1.042   5.012   8.670 -1.3328 -1.6968 -1.5092
  102OSM   C17F10364   0.838   5.097   8.672 -0.6036 -0.0471  0.1779
  102OSM   H17F10365   0.862   5.205   8.667 -0.6547  0.0926  2.5699
  102OSM   H17G10366   0.751   5.080   8.739 -0.0990  0.2336  0.9137
  102OSM   C18F10367   0.807   5.046   8.527  0.3779  0.4550 -0.3478
  102OSM   H18F10368   0.793   4.936   8.529  1.5484  0.3104  1.0800
  102OSM   H18G10369   0.888   5.078   8.458  0.1604  0.1347 -0.7538
  102OSM   H18H10370   0.713   5.096   8.493 -0.1482 -0.6460 -0.5377
  103OSM      N10371   6.483   0.659  10.783 -0.0105  0.0464 -1.1419
  103OSM    C1510372   6.506   0.569  10.901 -0.6104 -0.2030 -0.1801
  103OSM   H15A10373   6.605   0.576  10.944 -0.1048  0.3264 -1.4259
  103OSM   H15B10374   6.504   0.467  10.867  1.9240  0.3498 -2.0690
  103OSM   H15C10375   6.428   0.583  10.976 -0.5584 -1.2722  0.0833
  103OSM    C1410376   6.579   0.622  10.674  0.0810 -0.3466  0.1566
  103OSM   H14A10377   6.573   0.521  10.635 -0.6529  0.0303 -0.7061
  103OSM   H14B10378   6.680   0.638  10.708  0.7403  0.2391 -2.0068
  103OSM   H14C10379   6.572   0.692  10.592 -0.9957 -0.0244  0.5178
  103OSM    C1310380   6.340   0.632  10.745  0.2050 -0.4765 -0.1425
  103OSM   H13A10381   6.307   0.704  10.672 -1.6542 -0.9904  0.1400
  103OSM   H13B10382   6.271   0.633  10.829 -1.1190 -2.3076 -1.1556
  103OSM   H13C10383   6.329   0.534  10.700  2.8239 -0.2970 -1.2676
  103OSM    C1210384   6.488   0.805  10.828 -0.6648  0.0461 -0.3007
  103OSM   H12A10385   6.590   0.818  10.859 -0.0281  1.3516 -2.8182
  103OSM   H12B10386   6.413   0.813  10.906  1.9206  2.3204  2.0778
  103OSM    C1110387   6.462   0.906  10.713 -0.8669 -0.8161  0.6392
  103OSM   H11A10388   6.354   0.897  10.687 -0.2874 -0.0662 -2.1643
  103OSM   H11B10389   6.510   0.887  10.615 -0.9107 -0.3924  0.5358
  103OSM      P10390   6.408   1.118  10.844 -0.8545 -0.0901 -0.1296
  103OSM    O1310391   6.365   1.031  10.954 -0.0886  0.5610  0.0037
  103OSM    O1410392   6.483   1.245  10.883 -0.4406 -0.0473 -0.2672
  103OSM    O1110393   6.294   1.148  10.741 -0.4588  0.3071 -0.0504
  103OSM    O1210394   6.498   1.036  10.749  0.2078  0.3768 -0.2253
  103OSM    C1S10395   6.318   1.231  10.619 -0.4870 -0.5250 -0.9543
  103OSM    H1S10396   6.350   1.156  10.544  1.3707 -2.1226  1.3643
  103OSM    H1T10397   6.399   1.306  10.630 -0.8724 -0.4351  1.4919
  103OSM     NF10398   6.230   1.376  10.447 -0.1407 -0.2135  0.0420
  103OSM    HNF10399   6.266   1.465  10.473  0.1539 -0.9335  2.1633
  103OSM    C2S10400   6.188   1.294  10.559  0.2084 -0.6278  0.2189
  103OSM    H2S10401   6.112   1.221  10.526 -1.3114  0.8224  0.4292
  103OSM    C3S10402   6.132   1.390  10.668 -0.2294 -0.9871  1.1718
  103OSM    H3S10403   6.205   1.474  10.674 -0.2637 -0.8830  0.1078
  103OSM     O310404   6.116   1.332  10.799  0.1396 -0.2686 -0.6037
  103OSM    HO310405   6.166   1.251  10.788  0.2285 -0.3424  0.3321
  103OSM    C4S10406   6.003   1.462  10.628 -0.4179  0.5914 -0.1854
  103OSM    H4S10407   6.009   1.551  10.564 -3.0590  0.1135 -1.1975
  103OSM    C5S10408   5.882   1.406  10.651 -0.4719  0.4858 -0.7893
  103OSM    H5S10409   5.868   1.308  10.700 -1.4938  2.3644  2.9152
  103OSM    C6S10410   5.756   1.475  10.608 -0.0221  0.1879  0.2005
  103OSM    H6S10411   5.777   1.561  10.541 -0.1772 -0.0431 -0.1423
  103OSM    H6T10412   5.691   1.500  10.695 -1.4123  2.2062 -1.3657
  103OSM    C7S10413   5.657   1.385  10.530 -0.3850  0.2542  0.2581
  103OSM    H7S10414   5.560   1.437  10.513  1.2026  2.8103 -1.3008
  103OSM    H7T10415   5.636   1.299  10.597 -0.7856  0.2381  0.1114
  103OSM    C8S10416   5.705   1.339  10.390  0.0142  0.5362 -0.6825
  103OSM    H8S10417   5.649   1.248  10.360 -2.2910  1.0295  1.8229
  103OSM    H8T10418   5.814   1.320  10.396  0.1952  2.0796  1.5787
  103OSM    C9S10419   5.678   1.441  10.279 -0.2285  0.2777  0.6239
  103OSM    H9S10420   5.684   1.546  10.315  1.9113  1.5597 -3.1987
  103OSM    H9T10421   5.583   1.429  10.223  0.7957  0.1479 -1.1227
  103OSM   C10S10422   5.793   1.447  10.170  0.0712  0.0057  0.4324
  103OSM   H10S10423   5.758   1.513  10.087 -3.0264 -1.6689  0.3325
  103OSM   H10T10424   5.813   1.345  10.133  0.4899  0.2652 -0.0666
  103OSM   C11S10425   5.924   1.495  10.241  1.0762 -0.0653  0.5882
  103OSM   H11S10426   5.968   1.433  10.322  1.0040  0.2420  0.8654
  103OSM   H11T10427   5.906   1.593  10.289  0.1704  1.0202 -1.9000
  103OSM   C12S10428   6.044   1.525  10.149 -0.1317 -0.0509 -0.2918
  103OSM   H12S10429   6.094   1.440  10.098  1.3306  0.4212  0.3207
  103OSM   H12T10430   6.129   1.563  10.210  0.3955  0.9016 -1.5876
  103OSM   C13S10431   6.016   1.625  10.049  0.4802 -0.2635 -0.1085
  103OSM   H13S10432   5.937   1.701  10.069  1.1681  0.7617 -1.2361
  103OSM   H13T10433   5.984   1.578   9.954 -0.1947 -2.0474  0.9714
  103OSM   C14S10434   6.136   1.707  10.011  0.6118 -0.0266 -1.0207
  103OSM   H14S10435   6.210   1.633   9.972  1.9784  0.6966  0.1502
  103OSM   H14T10436   6.193   1.760  10.091  0.5416  0.4293 -1.2703
  103OSM   C15S10437   6.104   1.816   9.907  0.1745 -0.3996  0.4022
  103OSM   H15S10438   6.162   1.903   9.946 -1.4966  0.1973  1.6569
  103OSM   H15T10439   5.997   1.844   9.913 -0.1092 -1.1307 -1.1256
  103OSM   C16S10440   6.142   1.775   9.765 -0.1517 -0.5165  0.0625
  103OSM   H16S10441   6.071   1.693   9.741  0.9945 -1.6329  0.4762
  103OSM   H16T10442   6.244   1.732   9.766 -0.0165 -0.2182 -0.5762
  103OSM   C17S10443   6.127   1.886   9.657  0.5576  0.1938 -0.0595
  103OSM   H17S10444   6.028   1.931   9.679  0.0856 -1.0740  0.4150
  103OSM   H17T10445   6.148   1.842   9.557  0.1361 -0.7511  0.2645
  103OSM   C18S10446   6.240   1.995   9.666  0.3411  0.1866  0.2634
  103OSM   H18S10447   6.342   1.952   9.656 -0.4619 -1.4974 -0.9623
  103OSM   H18T10448   6.231   2.042   9.766 -3.9544 -0.6182  0.3245
  103OSM   H18U10449   6.224   2.069   9.585  0.3254 -0.8242 -0.6690
  103OSM    C1F10450   6.257   1.321  10.331 -0.2641 -1.1067  0.9470
  103OSM     OF10451   6.197   1.220  10.283 -0.1950 -0.0814 -0.1059
  103OSM    C2F10452   6.361   1.394  10.258  0.2732 -0.1752  0.0182
  103OSM    H2F10453   6.411   1.469  10.322 -1.0375 -0.7052  1.6785
  103OSM    H2G10454   6.310   1.452  10.178 -1.0495 -0.0968  0.9071
  103OSM    C3F10455   6.472   1.296  10.189  0.0325 -0.1419 -0.8144
  103OSM    H3F10456   6.412   1.222  10.133 -2.0205  0.2688  0.7804
  103OSM    H3G10457   6.534   1.243  10.264 -1.9054 -0.5298  0.5636
  103OSM    C4F10458   6.552   1.371  10.080  0.2644 -0.1287 -0.2435
  103OSM    H4F10459   6.647   1.315  10.064  0.8794  0.8850 -0.1647
  103OSM    H4G10460   6.586   1.472  10.111 -0.3859  0.0180 -0.0187
  103OSM    C5F10461   6.479   1.380   9.947 -0.2219  0.2116  1.3210
  103OSM    H5F10462   6.391   1.447   9.956  0.8802  1.5999  1.8731
  103OSM    H5G10463   6.445   1.280   9.913  0.4679  0.2731  0.4424
  103OSM    C6F10464   6.573   1.439   9.836  0.4865 -0.4681  0.2529
  103OSM    H6F10465   6.674   1.391   9.831  0.6634 -0.1739  0.9219
  103OSM    H6G10466   6.589   1.547   9.855 -0.3052  0.1963 -2.6899
  103OSM    C7F10467   6.508   1.415   9.696 -1.0345  0.4852 -0.0402
  103OSM    H7F10468   6.405   1.458   9.695 -1.2832 -0.1338 -1.7182
  103OSM    H7G10469   6.484   1.309   9.670 -0.2553  0.0239  1.0791
  103OSM    C8F10470   6.591   1.467   9.576 -0.0330 -0.1665  0.7610
  103OSM    H8F10471   6.618   1.575   9.581 -2.3268  0.5395 -1.5008
  103OSM    H8G10472   6.523   1.464   9.489  0.4403 -1.8066  0.4398
  103OSM    C9F10473   6.718   1.388   9.544  0.2981 -0.4344  0.3139
  103OSM    H9F10474   6.779   1.375   9.635  0.5313  1.2018  0.4136
  103OSM   C10F10475   6.759   1.345   9.421 -0.2317  0.2964 -0.6477
  103OSM   H10F10476   6.863   1.312   9.408  0.2716  1.4869  0.1983
  103OSM   C11F10477   6.680   1.370   9.289  0.6315  0.2653  0.2380
  103OSM   H11F10478   6.571   1.365   9.307  0.6242  1.5208  0.5720
  103OSM   H11G10479   6.714   1.296   9.213 -1.1399 -1.0378  0.7095
  103OSM   C12F10480   6.699   1.514   9.226  0.3532  0.4705 -0.0209
  103OSM   H12F10481   6.768   1.502   9.140 -0.1798 -0.5360 -0.3070
  103OSM   H12G10482   6.755   1.581   9.296  0.4488 -1.5727  1.9420
  103OSM   C13F10483   6.572   1.573   9.162  0.7183  0.1673  0.1582
  103OSM   H13F10484   6.504   1.588   9.249  1.1105  1.2252  0.2881
  103OSM   H13G10485   6.528   1.514   9.079 -0.8842  2.4109 -0.6229
  103OSM   C14F10486   6.606   1.712   9.101 -0.2671  0.0232 -0.6283
  103OSM   H14F10487   6.625   1.766   9.197  2.9846  0.5925 -1.5326
  103OSM   H14G10488   6.522   1.757   9.043 -0.9500 -1.6178 -0.9394
  103OSM   C15F10489   6.722   1.719   9.000 -0.0010 -0.0107 -0.4390
  103OSM   H15F10490   6.689   1.656   8.915 -1.6893  1.4878 -0.9242
  103OSM   H15G10491   6.815   1.672   9.038  0.6504  0.1104 -1.8441
  103OSM   C16F10492   6.758   1.863   8.960  0.7029 -0.1756 -0.4664
  103OSM   H16F10493   6.804   1.916   9.046 -0.3353 -2.1187  1.3406
  103OSM   H16G10494   6.670   1.921   8.925  0.6140  0.2700  0.4778
  103OSM   C17F10495   6.856   1.856   8.838 -0.1653 -0.0295 -0.4471
  103OSM   H17F10496   6.813   1.788   8.761 -0.9708 -1.1598  0.9838
  103OSM   H17G10497   6.951   1.818   8.881 -2.3656 -3.7123  1.3229
  103OSM   C18F10498   6.874   1.996   8.776 -0.2998  0.0839  0.5551
  103OSM   H18F10499   6.928   2.063   8.847  1.1507 -0.9758  0.4892
  103OSM   H18G10500   6.784   2.059   8.759 -0.5122 -0.7457 -1.5522
  103OSM   H18H10501   6.938   1.983   8.686 -2.6289  1.3229 -1.3273
  104OSM      N10502   1.181   0.131  11.134  0.1865  0.1276  0.0062
  104OSM    C1510503   1.100   0.251  11.165 -0.1315  0.3483  0.2545
  104OSM   H15A10504   1.017   0.244  11.234 -1.1158 -3.8810 -1.2432
  104OSM   H15B10505   1.057   0.297  11.077  0.5847  1.5773  0.5441
  104OSM   H15C10506   1.168   0.324  11.206  0.9967 -1.0086  0.8090
  104OSM    C1410507   1.238   0.073  11.261  0.4105 -0.0569 -0.5704
  104OSM   H14A10508   1.288  -0.020  11.237 -0.1865  0.0019 -2.0392
  104OSM   H14B10509   1.148   0.069  11.322  1.2546  1.7145  0.8520
  104OSM   H14C10510   1.311   0.139  11.307 -0.7764  0.0712  1.2066
  104OSM    C1310511   1.090   0.029  11.075  0.0509 -0.1999  0.2098
  104OSM   H13A10512   1.136  -0.069  11.075  1.4260  0.4037  1.6859
  104OSM   H13B10513   1.070   0.057  10.973  2.0318  0.6700  0.0418
  104OSM   H13C10514   0.999   0.020  11.132  1.5047  0.9660  2.8730
  104OSM    C1210515   1.295   0.165  11.044 -0.2085  0.0911  0.1566
  104OSM   H12A10516   1.370   0.088  11.053  1.8826  2.0447 -0.0134
  104OSM   H12B10517   1.343   0.258  11.073  0.1774 -0.1924  0.4317
  104OSM    C1110518   1.262   0.174  10.895 -0.0360  0.1881  0.4135
  104OSM   H11A10519   1.193   0.093  10.864  0.6604  0.8858 -3.1556
  104OSM   H11B10520   1.358   0.157  10.843  0.6140 -0.4386  1.7868
  104OSM      P10521   1.283   0.434  10.875  0.1585  0.5174 -0.2003
  104OSM    O1310522   1.192   0.543  10.923  0.0797  0.1215 -0.3800
  104OSM    O1410523   1.410   0.414  10.943 -0.3789  0.6173 -0.0259
  104OSM    O1110524   1.326   0.461  10.729  0.1690 -0.6665 -0.6123
  104OSM    O1210525   1.200   0.294  10.863  0.0600 -0.0121 -0.3543
  104OSM    C1S10526   1.243   0.437  10.614 -0.7895  0.5927 -0.5644
  104OSM    H1S10527   1.139   0.466  10.641 -0.9381 -0.3672 -0.1025
  104OSM    H1T10528   1.243   0.330  10.584 -2.9189  0.6276 -0.8144
  104OSM     NF10529   1.186   0.516  10.397  0.8100 -0.0125 -0.1823
  104OSM    HNF10530   1.186   0.448  10.324  1.4493 -1.5548  1.2150
  104OSM    C2S10531   1.288   0.520  10.491  0.4010 -0.6925  0.4685
  104OSM    H2S10532   1.317   0.626  10.507  0.4178 -0.2485 -2.2989
  104OSM    C3S10533   1.422   0.453  10.441 -0.0649 -0.0208 -0.1424
  104OSM    H3S10534   1.405   0.345  10.419 -3.3566 -0.2763  3.2265
  104OSM     O310535   1.532   0.464  10.525 -0.0045 -0.4388 -0.0396
  104OSM    HO310536   1.503   0.497  10.610 -0.7691  1.0425 -0.8594
  104OSM    C4S10537   1.461   0.521  10.308 -0.0423 -0.2077  0.4684
  104OSM    H4S10538   1.421   0.459  10.226 -1.2639  2.0959 -0.7514
  104OSM    C5S10539   1.545   0.626  10.278  0.4648  0.3566  0.1452
  104OSM    H5S10540   1.607   0.678  10.352  1.4141 -0.5846  0.0070
  104OSM    C6S10541   1.584   0.682  10.148 -0.0905 -0.1577  0.5183
  104OSM    H6S10542   1.694   0.686  10.141 -0.1489 -0.4189 -0.8209
  104OSM    H6T10543   1.546   0.787  10.146 -1.0424 -0.4627  1.8976
  104OSM    C7S10544   1.519   0.608  10.031  0.0003 -0.0823  0.3812
  104OSM    H7S10545   1.410   0.632  10.035  0.4488  1.8596  1.5550
  104OSM    H7T10546   1.522   0.498  10.045  1.0995  0.0792  1.3710
  104OSM    C8S10547   1.574   0.647   9.899 -0.5059  0.5315  0.4460
  104OSM    H8S10548   1.572   0.758   9.888  1.0277  0.4882 -0.4472
  104OSM    H8T10549   1.505   0.620   9.816 -1.0232  0.2402  0.9673
  104OSM    C9S10550   1.718   0.597   9.860  0.6031  0.5028  0.1798
  104OSM    H9S10551   1.731   0.494   9.898 -2.0141  0.3344  0.6636
  104OSM    H9T10552   1.799   0.658   9.907  1.6773 -1.8897  1.4814
  104OSM   C10S10553   1.737   0.608   9.712 -0.1861 -0.2417 -0.0438
  104OSM   H10S10554   1.845   0.619   9.689 -0.1028 -1.2204 -0.1763
  104OSM   H10T10555   1.688   0.699   9.671  0.5362  0.3490  0.4046
  104OSM   C11S10556   1.682   0.493   9.617 -0.0459  0.3054  0.4402
  104OSM   H11S10557   1.591   0.444   9.657 -1.1577  0.4463 -1.8126
  104OSM   H11T10558   1.757   0.413   9.599 -0.9499 -0.6393  0.7956
  104OSM   C12S10559   1.641   0.566   9.489 -0.7371  1.1617  0.4284
  104OSM   H12S10560   1.719   0.641   9.461 -1.2743  1.6710  0.2912
  104OSM   H12T10561   1.548   0.627   9.494 -0.4578  1.5919  0.4610
  104OSM   C13S10562   1.630   0.467   9.365  0.5883 -0.0767  0.7060
  104OSM   H13S10563   1.582   0.525   9.283  0.0277  1.6527  2.2322
  104OSM   H13T10564   1.567   0.376   9.383  0.5737  0.0162  1.1257
  104OSM   C14S10565   1.766   0.421   9.319  0.1121  0.2844  0.0100
  104OSM   H14S10566   1.800   0.350   9.398  1.5162  2.3243  1.2820
  104OSM   H14T10567   1.833   0.509   9.319  0.2512  0.2235  3.0164
  104OSM   C15S10568   1.755   0.357   9.182 -0.7153  0.8527  0.1560
  104OSM   H15S10569   1.656   0.310   9.168  0.1033 -0.7663 -0.2547
  104OSM   H15T10570   1.836   0.281   9.173 -1.3426 -0.0733  2.1463
  104OSM   C16S10571   1.779   0.462   9.073 -0.8339  0.1677  0.1981
  104OSM   H16S10572   1.883   0.499   9.074 -1.3453  1.8100 -2.6131
  104OSM   H16T10573   1.714   0.550   9.092 -0.1018  0.5654  0.8609
  104OSM   C17S10574   1.751   0.405   8.928  0.1944  0.0431  0.2241
  104OSM   H17S10575   1.811   0.313   8.912  0.1759 -0.1099  1.0371
  104OSM   H17T10576   1.791   0.484   8.861 -1.5784  0.1528 -0.7465
  104OSM   C18S10577   1.604   0.381   8.889  0.1731  0.0103  0.7520
  104OSM   H18S10578   1.577   0.335   8.792  2.9039 -0.3329  0.0927
  104OSM   H18T10579   1.554   0.479   8.898 -1.4783 -0.7428 -0.1687
  104OSM   H18U10580   1.566   0.318   8.973 -0.5458 -1.2331 -0.4905
  104OSM    C1F10581   1.081   0.594  10.422 -0.0099  0.5312 -0.0143
  104OSM     OF10582   1.085   0.689  10.507  0.1568 -0.3004 -0.1364
  104OSM    C2F10583   0.960   0.572  10.338 -0.3701 -0.2300 -0.4607
  104OSM    H2F10584   0.893   0.505  10.396  1.2408 -2.2689 -0.9211
  104OSM    H2G10585   0.992   0.524  10.243  0.2034 -1.6777  0.4630
  104OSM    C3F10586   0.884   0.710  10.318  0.5640  0.3205  0.2055
  104OSM    H3F10587   0.948   0.788  10.269 -0.5227  1.3680  0.4297
  104OSM    H3G10588   0.852   0.763  10.410  1.9200  0.8543  0.3880
  104OSM    C4F10589   0.757   0.688  10.240  0.3049  0.0382  0.0446
  104OSM    H4F10590   0.671   0.658  10.303  1.3897  0.0733  1.5628
  104OSM    H4G10591   0.775   0.599  10.175  1.7350  0.7246 -0.5300
  104OSM    C5F10592   0.714   0.804  10.146 -0.2938 -0.0282 -0.0576
  104OSM    H5F10593   0.811   0.838  10.104  0.2272 -0.4828  0.7630
  104OSM    H5G10594   0.668   0.886  10.205  1.2426  1.4374 -0.8326
  104OSM    C6F10595   0.647   0.773  10.008 -0.8400  0.0041  0.0641
  104OSM    H6F10596   0.544   0.744  10.039  0.2142 -0.5346  3.1792
  104OSM    H6G10597   0.696   0.687   9.957 -0.0853 -0.7167  1.9437
  104OSM    C7F10598   0.659   0.884   9.905 -0.2493  0.0285  0.4695
  104OSM    H7F10599   0.768   0.897   9.885 -0.1565  0.9487  1.5336
  104OSM    H7G10600   0.614   0.967   9.964 -2.7012 -0.3593 -0.7783
  104OSM    C8F10601   0.597   0.853   9.766  0.1659  0.4302 -0.3846
  104OSM    H8F10602   0.489   0.827   9.773  0.5900 -0.8796  1.8141
  104OSM    H8G10603   0.639   0.758   9.726  1.7017  1.1305 -0.4624
  104OSM    C9F10604   0.626   0.971   9.680 -0.1738 -0.1609  0.0371
  104OSM    H9F10605   0.610   1.064   9.738  2.1576 -1.2903  2.5938
  104OSM   C10F10606   0.686   0.976   9.559  0.5793 -0.4190  0.7873
  104OSM   H10F10607   0.696   1.073   9.508 -2.8768 -0.1739  0.4777
  104OSM   C11F10608   0.722   0.857   9.477  0.0802 -0.6399  0.1783
  104OSM   H11F10609   0.638   0.786   9.463  0.7292 -1.5027  0.6332
  104OSM   H11G10610   0.798   0.797   9.530  1.1042  1.5246  1.2394
  104OSM   C12F10611   0.770   0.896   9.338 -0.0826  0.6026 -0.4615
  104OSM   H12F10612   0.709   0.973   9.285 -0.9253  0.0523 -0.2900
  104OSM   H12G10613   0.775   0.800   9.282 -0.4634 -0.6767  1.6588
  104OSM   C13F10614   0.921   0.956   9.349 -0.6379 -0.2879 -0.0081
  104OSM   H13F10615   0.988   0.890   9.409  3.1149  2.4845 -0.9211
  104OSM   H13G10616   0.908   1.050   9.405 -1.9991 -0.3407 -0.2233
  104OSM   C14F10617   0.990   0.982   9.217  0.1252 -0.1177  0.1421
  104OSM   H14F10618   1.089   1.029   9.235  1.4501 -1.4541 -3.2628
  104OSM   H14G10619   0.926   1.055   9.162  1.1879 -0.6063 -1.8075
  104OSM   C15F10620   1.019   0.869   9.121 -0.2323 -0.4600 -0.3278
  104OSM   H15F10621   0.929   0.812   9.090 -1.3419  2.1464 -2.0684
  104OSM   H15G10622   1.088   0.797   9.170 -0.1498 -1.1428 -1.4325
  104OSM   C16F10623   1.099   0.908   9.003 -0.2339  0.4898 -0.5121
  104OSM   H16F10624   1.182   0.842   8.973 -0.2305 -0.6140  1.8119
  104OSM   H16G10625   1.142   1.009   9.023  1.2774 -0.6931  2.6069
  104OSM   C17F10626   1.015   0.930   8.878  0.9570 -0.1406 -0.9176
  104OSM   H17F10627   0.919   0.977   8.906  0.4805 -1.5500 -0.1384
  104OSM   H17G10628   0.992   0.826   8.845 -0.6239 -0.4347  0.9959
  104OSM   C18F10629   1.082   1.009   8.768 -0.3487 -0.8072 -0.0574
  104OSM   H18F10630   1.005   1.041   8.694  0.8590 -0.1175 -1.0219
  104OSM   H18G10631   1.166   0.954   8.721 -0.1797 -0.2766 -0.3760
  104OSM   H18H10632   1.130   1.098   8.812  0.3837 -1.0645 -0.3281
  105OSM      N10633   5.027   3.678  11.174 -0.1511 -0.0836  0.5632
  105OSM    C1510634   5.103   3.760  11.274  0.0529  0.2976  0.4415
  105OSM   H15A10635   5.209   3.753  11.254 -0.5321 -1.2232 -2.4896
  105OSM   H15B10636   5.091   3.727  11.376  0.6311  0.2724  0.5042
  105OSM   H15C10637   5.069   3.862  11.263  0.0609  0.6385  3.2667
  105OSM    C1410638   5.070   3.535  11.182  0.3451 -0.0175 -0.3897
  105OSM   H14A10639   5.015   3.473  11.112  0.3579 -0.4161 -0.0476
  105OSM   H14B10640   5.044   3.487  11.275 -1.1294  2.5017  0.5242
  105OSM   H14C10641   5.177   3.530  11.170  0.3292 -0.3986 -0.3888
  105OSM    C1310642   4.880   3.685  11.218 -0.3708 -0.8670  0.3793
  105OSM   H13A10643   4.855   3.788  11.241  1.4564 -0.0895 -0.9736
  105OSM   H13B10644   4.863   3.640  11.315 -1.0341  0.6421  0.9921
  105OSM   H13C10645   4.816   3.642  11.143 -0.5802 -1.0649  0.6664
  105OSM    C1210646   5.046   3.736  11.036  0.4458  1.2327  1.2749
  105OSM   H12A10647   5.149   3.729  11.005  0.0836  1.4659 -0.0115
  105OSM   H12B10648   5.019   3.840  11.048  0.4077  1.7073 -2.4565
  105OSM    C1110649   4.956   3.679  10.927 -0.0074  0.6029 -0.9525
  105OSM   H11A10650   4.953   3.740  10.834  0.0109 -0.5649 -1.7237
  105OSM   H11B10651   4.856   3.704  10.966  0.1044 -0.3678 -0.0601
  105OSM      P10652   5.089   3.504  10.806 -0.5142 -0.5178 -0.3629
  105OSM    O1310653   5.209   3.593  10.822  0.6258  0.0962 -0.5923
  105OSM    O1410654   5.111   3.360  10.811 -0.0491  0.0022 -0.3176
  105OSM    O1110655   5.031   3.543  10.664 -0.1901 -0.3459  0.0883
  105OSM    O1210656   4.972   3.543  10.905  0.0997  0.4992 -0.6410
  105OSM    C1S10657   4.895   3.500  10.644 -0.0090 -0.6828 -0.3977
  105OSM    H1S10658   4.821   3.574  10.682 -0.3253  0.1947 -2.6778
  105OSM    H1T10659   4.864   3.407  10.696 -2.0470 -0.6115 -1.4544
  105OSM     NF10660   4.714   3.435  10.484  0.3205 -0.4214 -0.9093
  105OSM    HNF10661   4.692   3.341  10.510 -1.4933 -0.1394 -1.3427
  105OSM    C2S10662   4.855   3.464  10.488 -0.5144 -0.4929 -1.2645
  105OSM    H2S10663   4.885   3.547  10.420  2.1024 -0.2607  0.1079
  105OSM    C3S10664   4.939   3.339  10.438  0.7691 -0.1376 -0.2596
  105OSM    H3S10665   4.909   3.246  10.490  1.6250 -0.6954 -0.7475
  105OSM     O310666   5.077   3.356  10.463  0.0996  0.3017  0.0811
  105OSM    HO310667   5.095   3.436  10.513 -0.6076  1.3550 -1.2947
  105OSM    C4S10668   4.905   3.312  10.296 -0.1380 -0.5527 -0.1430
  105OSM    H4S10669   4.801   3.282  10.279  0.7107 -3.9546  0.3949
  105OSM    C5S10670   4.978   3.342  10.186  0.3998 -0.4670 -0.5516
  105OSM    H5S10671   5.079   3.384  10.199 -0.0670  0.2513  0.7838
  105OSM    C6S10672   4.940   3.322  10.041  0.8524 -0.8481  0.1375
  105OSM    H6S10673   5.005   3.240  10.003  0.3865 -0.3646 -1.7688
  105OSM    H6T10674   4.964   3.415   9.985  0.0255 -0.3809  0.5530
  105OSM    C7S10675   4.791   3.290  10.022 -0.0135  0.5490  0.2613
  105OSM    H7S10676   4.720   3.363  10.065  1.0553  0.5323  2.0988
  105OSM    H7T10677   4.765   3.195  10.074  3.0044  0.0357  0.9414
  105OSM    C8S10678   4.745   3.263   9.876 -0.4672 -0.0580 -0.0560
  105OSM    H8S10679   4.646   3.212   9.882 -0.3933 -0.2516 -0.5390
  105OSM    H8T10680   4.814   3.190   9.830 -1.5834 -0.1164 -1.7194
  105OSM    C9S10681   4.732   3.394   9.794  0.0683  0.2206 -0.1698
  105OSM    H9S10682   4.832   3.441   9.807  1.0031 -2.0509  1.1255
  105OSM    H9T10683   4.655   3.463   9.835  1.0553  0.8037  0.7199
  105OSM   C10S10684   4.704   3.375   9.645 -0.1061 -0.3736 -0.6076
  105OSM   H10S10685   4.708   3.469   9.585  3.1253  0.6532  1.1119
  105OSM   H10T10686   4.600   3.338   9.636 -0.7072  0.6837  1.6476
  105OSM   C11S10687   4.800   3.281   9.579 -0.3998  0.0724 -0.2731
  105OSM   H11S10688   4.802   3.176   9.614 -0.7058 -0.5418 -2.0526
  105OSM   H11T10689   4.901   3.324   9.597 -0.3769 -0.0870 -0.0194
  105OSM   C12S10690   4.775   3.287   9.427  0.1894 -0.1200  0.1413
  105OSM   H12S10691   4.767   3.394   9.398  0.2560  0.7708  3.2207
  105OSM   H12T10692   4.672   3.247   9.413 -0.7942  2.0789  0.8344
  105OSM   C13S10693   4.872   3.204   9.343  0.2997  0.4350 -0.4180
  105OSM   H13S10694   4.867   3.097   9.373  1.3784  0.3783 -0.4415
  105OSM   H13T10695   4.975   3.217   9.382  0.3903 -3.3392  0.7862
  105OSM   C14S10696   4.847   3.218   9.193 -0.1803 -0.2111 -0.5849
  105OSM   H14S10697   4.865   3.324   9.166  1.0927 -0.5823 -1.2153
  105OSM   H14T10698   4.739   3.202   9.172 -0.6262 -0.4361  1.7285
  105OSM   C15S10699   4.939   3.132   9.108 -0.7063 -0.2657 -0.0488
  105OSM   H15S10700   4.910   3.028   9.133 -1.7859  0.3808  1.4657
  105OSM   H15T10701   5.047   3.144   9.134 -0.8314  0.2397  0.2441
  105OSM   C16S10702   4.927   3.152   8.962  0.0360 -0.3177 -0.2317
  105OSM   H16S10703   4.962   3.252   8.930  1.1051 -0.2882  0.9972
  105OSM   H16T10704   4.820   3.145   8.932  0.1518 -0.0132 -0.7070
  105OSM   C17S10705   5.008   3.052   8.873  0.7431 -0.0210  0.0397
  105OSM   H17S10706   5.116   3.051   8.895  0.6910 -1.2883  0.2908
  105OSM   H17T10707   5.001   3.106   8.776  2.1588 -0.7160 -0.4577
  105OSM   C18S10708   4.947   2.914   8.849 -0.2260 -0.1587 -0.1507
  105OSM   H18S10709   5.020   2.842   8.805  0.3647  0.2008  0.2280
  105OSM   H18T10710   4.869   2.935   8.773 -1.1345  0.4696  0.9393
  105OSM   H18U10711   4.890   2.877   8.936  0.9041 -1.6490 -0.0224
  105OSM    C1F10712   4.628   3.534  10.495  0.7233 -0.0018 -0.1398
  105OSM     OF10713   4.673   3.649  10.506  0.5806  0.0712  0.5179
  105OSM    C2F10714   4.483   3.503  10.514 -0.0557 -0.2958  0.6313
  105OSM    H2F10715   4.472   3.467  10.619  1.0556 -0.1830  0.7934
  105OSM    H2G10716   4.463   3.425  10.437 -0.8046  0.5503 -0.0469
  105OSM    C3F10717   4.396   3.629  10.489  0.6563 -0.0630  1.0752
  105OSM    H3F10718   4.396   3.673  10.386 -0.9942 -0.0159  1.0919
  105OSM    H3G10719   4.432   3.708  10.558 -0.3788  0.1514  1.3706
  105OSM    C4F10720   4.247   3.605  10.518 -0.6460  0.1159 -0.0202
  105OSM    H4F10721   4.183   3.695  10.528 -0.4244  0.0737  2.1576
  105OSM    H4G10722   4.235   3.556  10.617 -1.4463  0.4570  0.0577
  105OSM    C5F10723   4.189   3.506  10.423  0.5145 -0.2962 -0.6891
  105OSM    H5F10724   4.080   3.497  10.438  0.3475  0.9366 -1.1440
  105OSM    H5G10725   4.234   3.411  10.459  0.0804  0.3155  1.5439
  105OSM    C6F10726   4.211   3.528  10.272 -0.0528 -0.5063 -0.5798
  105OSM    H6F10727   4.179   3.441  10.211  0.9160 -0.1292 -1.6429
  105OSM    H6G10728   4.316   3.537  10.235 -0.1587 -1.7663 -1.2088
  105OSM    C7F10729   4.144   3.658  10.236  0.0887 -0.4478 -0.1387
  105OSM    H7F10730   4.190   3.747  10.284  2.5158 -0.6891 -1.9185
  105OSM    H7G10731   4.041   3.641  10.274  0.5045 -1.4948  0.5440
  105OSM    C8F10732   4.159   3.688  10.082  0.7094  0.0818  0.0723
  105OSM    H8F10733   4.265   3.714  10.065  0.7105 -0.1129 -0.2308
  105OSM    H8G10734   4.090   3.766  10.044 -0.3280 -1.4881 -1.3208
  105OSM    C9F10735   4.121   3.567  10.002  0.0572 -0.0055  0.6775
  105OSM    H9F10736   4.028   3.523  10.040 -1.8683  1.7358 -1.8748
  105OSM   C10F10737   4.191   3.514   9.901 -0.6910 -0.5025 -0.0781
  105OSM   H10F10738   4.147   3.426   9.850  1.5030 -1.8920  0.3768
  105OSM   C11F10739   4.314   3.568   9.840  0.0933 -0.0340 -0.0603
  105OSM   H11F10740   4.395   3.492   9.834 -0.0692 -0.2307  0.2315
  105OSM   H11G10741   4.364   3.640   9.907 -1.9809 -0.8736  2.4759
  105OSM   C12F10742   4.307   3.632   9.700 -0.1744  0.9007 -0.0589
  105OSM   H12F10743   4.413   3.639   9.665 -0.5175 -0.6802 -1.5294
  105OSM   H12G10744   4.270   3.736   9.693 -0.1518  0.7817 -2.2370
  105OSM   C13F10745   4.226   3.543   9.600 -0.6162  0.0537  1.1358
  105OSM   H13F10746   4.119   3.547   9.629 -1.2839  0.4831 -1.2668
  105OSM   H13G10747   4.251   3.436   9.610  0.7015 -0.1496 -3.0861
  105OSM   C14F10748   4.223   3.584   9.445 -0.5951 -0.2648  0.3058
  105OSM   H14F10749   4.202   3.690   9.420 -2.9885 -0.7460  0.1055
  105OSM   H14G10750   4.136   3.526   9.406  1.0461 -1.7299 -1.2778
  105OSM   C15F10751   4.349   3.531   9.378  0.0167  0.0841  0.0024
  105OSM   H15F10752   4.351   3.420   9.371  0.6674  0.1900 -1.8979
  105OSM   H15G10753   4.432   3.561   9.445 -0.0859  2.3141 -0.8373
  105OSM   C16F10754   4.383   3.594   9.242  0.2420  0.2895  0.2449
  105OSM   H16F10755   4.363   3.703   9.245 -1.4057 -0.0061  0.4571
  105OSM   H16G10756   4.320   3.545   9.164 -0.4848  1.0806  0.3221
  105OSM   C17F10757   4.534   3.578   9.215  1.0742 -0.3194  0.8346
  105OSM   H17F10758   4.548   3.469   9.199 -0.7979 -0.3171 -1.1799
  105OSM   H17G10759   4.588   3.611   9.306 -0.7773  1.0031  1.5016
  105OSM   C18F10760   4.564   3.660   9.089  0.7035 -0.4386 -0.1713
  105OSM   H18F10761   4.526   3.609   8.998 -1.5073  3.2476 -1.4076
  105OSM   H18G10762   4.674   3.668   9.084  0.7029  0.5580  1.1686
  105OSM   H18H10763   4.514   3.758   9.103  0.0571 -0.9236  1.0386
  106OSM      N10764   2.961   3.105  10.785 -0.3562 -0.3746  0.0137
  106OSM    C1510765   2.913   3.155  10.924  0.1311 -0.0087  0.4017
  106OSM   H15A10766   2.869   3.253  10.922 -3.2086 -1.4346 -1.1835
  106OSM   H15B10767   3.002   3.152  10.984 -0.1697 -2.2324  0.7832
  106OSM   H15C10768   2.848   3.086  10.976 -0.4466  0.2786  0.0692
  106OSM    C1410769   3.021   2.970  10.790 -0.5260 -0.0483  0.1212
  106OSM   H14A10770   3.085   2.970  10.702 -1.0077  0.8820 -0.2373
  106OSM   H14B10771   2.948   2.891  10.786  0.2299 -0.7923  0.9626
  106OSM   H14C10772   3.076   2.954  10.881 -2.7473  3.5183  2.2252
  106OSM    C1310773   2.840   3.095  10.695 -0.1901  0.2581  0.0878
  106OSM   H13A10774   2.802   3.192  10.666  2.3454  0.5499 -2.5093
  106OSM   H13B10775   2.758   3.035  10.730  1.2285 -2.0010 -0.3725
  106OSM   H13C10776   2.864   3.042  10.604 -1.5649  1.8495 -1.2256
  106OSM    C1210777   3.051   3.210  10.718  0.8280  0.1652 -0.2908
  106OSM   H12A10778   3.117   3.239  10.798 -0.1148 -0.6607  0.8109
  106OSM   H12B10779   2.990   3.298  10.698  0.6249  0.0389 -0.2265
  106OSM    C1110780   3.135   3.179  10.591 -0.0653  0.1553  0.6116
  106OSM   H11A10781   3.177   3.271  10.547 -0.2525  0.9621  2.0607
  106OSM   H11B10782   3.069   3.137  10.512  1.0742 -0.1727 -0.1759
  106OSM      P10783   3.367   3.127  10.705  0.1318 -0.3902  0.3021
  106OSM    O1310784   3.326   3.234  10.803 -0.7463 -0.0817  0.2345
  106OSM    O1410785   3.422   3.006  10.769  0.1501 -0.8045  0.3404
  106OSM    O1110786   3.472   3.181  10.592 -0.3474 -0.4395 -0.4505
  106OSM    O1210787   3.239   3.085  10.624  0.1427  0.0012 -0.3998
  106OSM    C1S10788   3.474   3.119  10.467 -0.5866 -0.4379 -0.2388
  106OSM    H1S10789   3.432   3.016  10.466  0.7621 -1.0150  0.2933
  106OSM    H1T10790   3.578   3.105  10.431 -0.7312 -0.2684 -0.7304
  106OSM     NF10791   3.437   3.133  10.233 -0.7395  0.0488 -0.1192
  106OSM    HNF10792   3.511   3.159  10.172 -1.1369  1.2103 -0.1227
  106OSM    C2S10793   3.413   3.205  10.359  0.5365  0.3463  0.1595
  106OSM    H2S10794   3.304   3.220  10.375  0.9334  1.3261  2.2145
  106OSM    C3S10795   3.476   3.354  10.359 -0.0815  0.3490 -0.2909
  106OSM    H3S10796   3.585   3.341  10.377  0.0905 -3.4608 -3.3463
  106OSM     O310797   3.433   3.430  10.471 -0.3283  0.1067 -0.5778
  106OSM    HO310798   3.418   3.360  10.535 -0.3149 -0.8447 -1.5869
  106OSM    C4S10799   3.444   3.433  10.231 -0.0244 -0.3002 -0.8555
  106OSM    H4S10800   3.529   3.463  10.169  0.2111  0.9528  0.0464
  106OSM    C5S10801   3.320   3.474  10.191  0.1080  0.5167 -0.2643
  106OSM    H5S10802   3.232   3.460  10.256  0.8039 -1.8056  0.2231
  106OSM    C6S10803   3.289   3.551  10.067 -0.6596 -0.4480  0.0727
  106OSM    H6S10804   3.281   3.661  10.076 -1.7957 -0.4667 -0.6446
  106OSM    H6T10805   3.189   3.506  10.047 -0.9225 -1.1249  2.8341
  106OSM    C7S10806   3.393   3.540   9.950  0.7843 -0.6028  0.0766
  106OSM    H7S10807   3.404   3.432   9.931 -1.7649 -0.7077 -1.0703
  106OSM    H7T10808   3.489   3.580   9.988 -0.1672  0.7494  1.1550
  106OSM    C8S10809   3.350   3.606   9.814  0.2960 -0.1313  1.1444
  106OSM    H8S10810   3.338   3.716   9.830  0.4123 -0.0739  0.8393
  106OSM    H8T10811   3.250   3.568   9.782  0.0566 -0.2761  2.0429
  106OSM    C9S10812   3.453   3.579   9.704 -0.5150 -0.4716  0.1219
  106OSM    H9S10813   3.478   3.471   9.713 -2.4297 -0.8807  0.7331
  106OSM    H9T10814   3.544   3.631   9.741  0.4020 -0.8532 -1.5240
  106OSM   C10S10815   3.413   3.626   9.565  0.1822  0.0158 -0.7430
  106OSM   H10S10816   3.402   3.736   9.578 -0.0188  0.0807 -1.4194
  106OSM   H10T10817   3.313   3.582   9.544  1.7115 -1.9147 -4.4836
  106OSM   C11S10818   3.508   3.598   9.450  0.4674 -0.8312 -0.0775
  106OSM   H11S10819   3.543   3.493   9.457  0.7585 -0.7787 -0.7246
  106OSM   H11T10820   3.591   3.672   9.451 -0.2951  0.0251  2.0436
  106OSM   C12S10821   3.431   3.611   9.314 -0.0390 -0.7599 -0.4935
  106OSM   H12S10822   3.389   3.714   9.302  0.6645 -0.4339 -0.1987
  106OSM   H12T10823   3.343   3.546   9.331  0.1827 -1.4218 -1.8222
  106OSM   C13S10824   3.506   3.566   9.194  0.2057  0.5350  0.1941
  106OSM   H13S10825   3.555   3.467   9.201 -1.2129 -0.0937  1.6818
  106OSM   H13T10826   3.585   3.637   9.162  2.2002 -0.9206  1.8397
  106OSM   C14S10827   3.409   3.566   9.069  0.4832 -0.2276  0.0390
  106OSM   H14S10828   3.350   3.659   9.074 -0.8218 -1.0671  0.4341
  106OSM   H14T10829   3.356   3.469   9.080  0.8137 -0.3447  0.6064
  106OSM   C15S10830   3.483   3.545   8.934  0.1682  0.4216 -0.5891
  106OSM   H15S10831   3.555   3.461   8.940 -1.0190 -0.5509  0.1285
  106OSM   H15T10832   3.552   3.631   8.916 -1.6674  2.1089  0.1951
  106OSM   C16S10833   3.384   3.534   8.820  0.5008  0.3180 -0.7643
  106OSM   H16S10834   3.317   3.623   8.821 -0.3262 -0.2516  3.2370
  106OSM   H16T10835   3.324   3.441   8.818 -2.2889  2.0701 -1.5781
  106OSM   C17S10836   3.466   3.521   8.690 -0.1750  0.0037  0.1309
  106OSM   H17S10837   3.535   3.434   8.687  0.2462  0.3753 -2.0280
  106OSM   H17T10838   3.527   3.613   8.680  0.2667 -0.1787  1.0988
  106OSM   C18S10839   3.369   3.499   8.571  0.5627  0.4272 -0.3094
  106OSM   H18S10840   3.416   3.495   8.470 -0.6013 -1.3700 -0.8010
  106OSM   H18T10841   3.303   3.588   8.579 -1.2844 -1.1264  2.4916
  106OSM   H18U10842   3.312   3.405   8.585 -1.1735  1.5720  0.4729
  106OSM    C1F10843   3.389   3.016  10.204  0.3978 -0.0542 -0.2739
  106OSM     OF10844   3.301   2.970  10.276  0.2915 -0.0659  0.2480
  106OSM    C2F10845   3.433   2.943  10.079  0.4378  0.8411  0.0787
  106OSM    H2F10846   3.535   2.900  10.088 -0.2103 -1.2391 -1.8433
  106OSM    H2G10847   3.428   3.018   9.996  1.7289  0.3586 -0.4537
  106OSM    C3F10848   3.332   2.821  10.054  0.3011  0.3954 -0.6308
  106OSM    H3F10849   3.230   2.862  10.043 -1.2098 -2.4298  2.2565
  106OSM    H3G10850   3.342   2.755  10.142  2.0225  0.5075 -0.7264
  106OSM    C4F10851   3.376   2.746   9.925 -0.6795  0.0594  0.4417
  106OSM    H4F10852   3.306   2.661   9.906 -1.3546  1.0601 -1.7159
  106OSM    H4G10853   3.467   2.689   9.954  0.6003  1.2216 -1.2276
  106OSM    C5F10854   3.376   2.822   9.790  0.2383  0.4840 -0.2695
  106OSM    H5F10855   3.459   2.895   9.801  0.5076  0.2553 -0.7853
  106OSM    H5G10856   3.282   2.877   9.772 -1.5360 -1.8829  1.3921
  106OSM    C6F10857   3.397   2.725   9.671 -0.0702 -0.8410  0.1602
  106OSM    H6F10858   3.316   2.651   9.661 -1.3557  0.6198 -0.4681
  106OSM    H6G10859   3.496   2.677   9.688 -0.2371 -0.7860  1.3993
  106OSM    C7F10860   3.398   2.804   9.535  0.3622 -0.0741 -0.3652
  106OSM    H7F10861   3.498   2.852   9.528  2.6423 -4.4087  0.5804
  106OSM    H7G10862   3.317   2.879   9.546 -1.2295 -1.8255  0.3841
  106OSM    C8F10863   3.367   2.713   9.414 -1.2229  0.6202 -0.1252
  106OSM    H8F10864   3.282   2.644   9.434  0.1759 -0.7104  1.4524
  106OSM    H8G10865   3.462   2.657   9.394 -1.6185  0.5312 -1.8216
  106OSM    C9F10866   3.332   2.790   9.296  0.0171 -0.6698  0.3417
  106OSM    H9F10867   3.246   2.857   9.311 -0.2866 -1.2436  1.2436
  106OSM   C10F10868   3.399   2.798   9.176 -0.0012  0.7985 -0.0235
  106OSM   H10F10869   3.372   2.872   9.099 -2.3993 -0.0070 -0.0038
  106OSM   C11F10870   3.519   2.708   9.125  0.7290 -0.1539 -0.3109
  106OSM   H11F10871   3.542   2.630   9.200 -0.3781  1.3776  1.6806
  106OSM   H11G10872   3.600   2.783   9.114 -0.0816  0.5000 -2.0868
  106OSM   C12F10873   3.485   2.641   8.987 -0.3349  0.7671  0.4354
  106OSM   H12F10874   3.428   2.707   8.918 -2.1948 -0.2231  0.9965
  106OSM   H12G10875   3.402   2.569   9.004 -0.4910  0.3541 -1.8773
  106OSM   C13F10876   3.606   2.582   8.914  0.1795 -1.3390  0.1030
  106OSM   H13F10877   3.676   2.541   8.990  1.1303 -0.2062 -0.1327
  106OSM   H13G10878   3.658   2.664   8.859 -1.7889  1.0736  1.7114
  106OSM   C14F10879   3.560   2.473   8.819 -0.5874  0.6231 -0.7685
  106OSM   H14F10880   3.501   2.399   8.877  1.2785 -1.5573 -1.5947
  106OSM   H14G10881   3.647   2.410   8.792 -1.6016 -1.2731  0.3356
  106OSM   C15F10882   3.483   2.529   8.699 -0.9022  0.6118  0.2756
  106OSM   H15F10883   3.537   2.623   8.675 -1.4576  1.8187  3.4642
  106OSM   H15G10884   3.380   2.563   8.723  0.0831  2.4831  2.0345
  106OSM   C16F10885   3.494   2.440   8.578  0.1707  0.2618  1.1323
  106OSM   H16F10886   3.437   2.346   8.596  2.1849 -1.7279 -2.2083
  106OSM   H16G10887   3.600   2.419   8.553  0.4128 -0.2413  2.5515
  106OSM   C17F10888   3.435   2.520   8.464  0.0008  0.0292  0.1750
  106OSM   H17F10889   3.518   2.586   8.431  0.8509 -2.2901 -2.4742
  106OSM   H17G10890   3.344   2.580   8.482 -0.8659 -0.5541 -2.1688
  106OSM   C18F10891   3.404   2.438   8.332  0.5544  0.3114 -0.4683
  106OSM   H18F10892   3.371   2.517   8.261 -0.2516 -0.0792 -0.5358
  106OSM   H18G10893   3.330   2.358   8.351  0.6325  0.3568  0.0488
  106OSM   H18H10894   3.498   2.390   8.297  1.1535 -0.4198  2.0464
  107OSM      N10895   5.896   1.284  11.144  0.1933  0.0497  0.8248
  107OSM    C1510896   6.023   1.243  11.091  0.4576  0.9437  0.7643
  107OSM   H15A10897   6.088   1.229  11.175  1.8200 -0.8038 -0.5430
  107OSM   H15B10898   6.075   1.324  11.042  1.0133  0.4433  0.5146
  107OSM   H15C10899   6.017   1.152  11.032  0.5033  1.9542 -0.8383
  107OSM    C1410900   5.837   1.181  11.231  0.2072  0.6749 -0.1515
  107OSM   H14A10901   5.741   1.221  11.260 -0.2318 -0.8545  0.5415
  107OSM   H14B10902   5.889   1.167  11.325 -0.3963  2.5910  0.5060
  107OSM   H14C10903   5.833   1.086  11.181  0.8977  0.0200  1.0087
  107OSM    C1310904   5.927   1.410  11.223  0.2492  0.2499 -0.2351
  107OSM   H13A10905   5.983   1.476  11.158  0.7932 -0.5788 -0.6244
  107OSM   H13B10906   5.988   1.392  11.310 -0.6945 -1.7023  0.0579
  107OSM   H13C10907   5.831   1.450  11.251  0.7450  1.7594 -0.6543
  107OSM    C1210908   5.812   1.324  11.019  0.5147  0.3495  0.1792
  107OSM   H12A10909   5.872   1.373  10.943  1.6266 -1.3488 -0.0573
  107OSM   H12B10910   5.735   1.396  11.043 -1.2177 -1.4581  0.1920
  107OSM    C1110911   5.737   1.208  10.947  0.4633 -0.5972 -0.3915
  107OSM   H11A10912   5.661   1.249  10.877  0.2277  0.7971  0.6529
  107OSM   H11B10913   5.682   1.151  11.025  0.9105  0.8254  0.9922
  107OSM      P10914   5.817   0.968  10.875 -0.2936  0.2461 -0.1720
  107OSM    O1310915   5.922   0.934  10.969 -0.3012 -1.3361  0.3117
  107OSM    O1410916   5.687   0.921  10.912 -0.7079  0.6892 -0.3170
  107OSM    O1110917   5.857   0.921  10.729  0.5021  0.3079 -0.0804
  107OSM    O1210918   5.824   1.127  10.864  0.0622 -0.4955 -0.4514
  107OSM    C1S10919   5.962   0.970  10.644  0.1787  0.8062  0.1639
  107OSM    H1S10920   6.058   0.930  10.682 -1.1987 -0.9226  1.9967
  107OSM    H1T10921   5.970   1.080  10.636  0.9927  0.6912 -0.6518
  107OSM     NF10922   6.066   0.930  10.421 -0.2938 -0.0473  0.0841
  107OSM    HNF10923   6.065   0.985  10.337 -1.2180 -0.6775 -0.3181
  107OSM    C2S10924   5.949   0.907  10.495  0.4759  0.0229 -0.5444
  107OSM    H2S10925   5.936   0.798  10.505  0.7919  0.1098  0.9024
  107OSM    C3S10926   5.818   0.967  10.435 -0.8990 -0.3030  0.5521
  107OSM    H3S10927   5.849   1.074  10.423  1.3533 -0.7255  2.0760
  107OSM     O310928   5.698   0.958  10.513  0.0496  0.1357 -0.1225
  107OSM    HO310929   5.728   0.959  10.605 -3.4957  0.9403  1.1131
  107OSM    C4S10930   5.790   0.901  10.304  0.2762  0.5532 -0.5308
  107OSM    H4S10931   5.824   0.949  10.211  1.7344 -2.1198 -1.4448
  107OSM    C5S10932   5.736   0.776  10.290  0.5542  0.5022  0.2199
  107OSM    H5S10933   5.709   0.722  10.382  2.3348 -2.5766 -0.9963
  107OSM    C6S10934   5.730   0.710  10.150  0.8532  0.3232  0.2513
  107OSM    H6S10935   5.624   0.718  10.121  1.7806 -1.2138 -3.9505
  107OSM    H6T10936   5.757   0.604  10.166  0.8753  0.3491  0.3899
  107OSM    C7S10937   5.826   0.764  10.036 -0.3226 -0.1049 -0.5151
  107OSM    H7S10938   5.927   0.785  10.077  0.1248 -0.4031 -1.4496
  107OSM    H7T10939   5.776   0.858  10.003 -0.8621 -0.9924 -2.2684
  107OSM    C8S10940   5.852   0.653   9.930  0.1157  0.5579 -0.7429
  107OSM    H8S10941   5.748   0.624   9.903 -0.0761  0.0510  0.5166
  107OSM    H8T10942   5.918   0.575   9.974  1.1475  1.6349 -0.3458
  107OSM    C9S10943   5.936   0.696   9.816  0.0402  0.6640  0.2814
  107OSM    H9S10944   5.965   0.613   9.747 -0.6898  1.2243 -0.7168
  107OSM    H9T10945   6.026   0.746   9.856 -0.4494  1.5319  0.3140
  107OSM   C10S10946   5.861   0.795   9.723 -0.4147 -0.0286  0.0272
  107OSM   H10S10947   5.841   0.891   9.775  2.7287  0.9752 -0.4823
  107OSM   H10T10948   5.765   0.750   9.689 -0.4433  1.2228 -1.6201
  107OSM   C11S10949   5.943   0.825   9.597 -0.4625 -0.7100 -0.3471
  107OSM   H11S10950   6.046   0.826   9.638 -0.5363 -1.8020 -0.1435
  107OSM   H11T10951   5.918   0.929   9.567 -0.8563 -0.2150  1.6041
  107OSM   C12S10952   5.917   0.733   9.476 -0.3407  0.2134 -1.1114
  107OSM   H12S10953   5.806   0.735   9.463 -0.1897  2.3763 -2.1214
  107OSM   H12T10954   5.963   0.632   9.477 -1.1518 -0.1554 -0.0253
  107OSM   C13S10955   5.986   0.796   9.349  0.7039 -0.4542 -0.0400
  107OSM   H13S10956   6.096   0.786   9.355  0.6694  0.1155  1.9406
  107OSM   H13T10957   5.956   0.903   9.338  1.6720  0.0780  2.2304
  107OSM   C14S10958   5.939   0.717   9.223  0.1710 -0.0804  0.0130
  107OSM   H14S10959   5.829   0.708   9.241  0.7071 -2.7375  2.3823
  107OSM   H14T10960   5.979   0.614   9.227  2.5144  0.7274 -1.8944
  107OSM   C15S10961   5.988   0.777   9.097  0.2393 -0.0316 -0.0982
  107OSM   H15S10962   6.096   0.758   9.081  0.0557 -1.2240  0.0605
  107OSM   H15T10963   5.981   0.888   9.093  2.9997  0.2760  2.1619
  107OSM   C16S10964   5.913   0.721   8.970  0.0434  0.0892 -0.6960
  107OSM   H16S10965   5.808   0.758   8.972  0.1450  0.3410  0.0331
  107OSM   H16T10966   5.899   0.610   8.967  2.5698 -0.2378 -0.7574
  107OSM   C17S10967   5.965   0.767   8.834  0.2091  0.5487 -1.1463
  107OSM   H17S10968   5.913   0.722   8.747 -2.2063  0.9114  0.0698
  107OSM   H17T10969   6.070   0.732   8.830  0.8765  2.3150  0.5026
  107OSM   C18S10970   5.985   0.917   8.825 -0.2814 -0.2778  0.0453
  107OSM   H18S10971   5.964   0.965   8.727  1.0653  0.5423  0.1438
  107OSM   H18T10972   6.086   0.943   8.865 -0.8106 -0.6280  1.6475
  107OSM   H18U10973   5.911   0.968   8.889 -1.9929 -0.7993 -1.4728
  107OSM    C1F10974   6.174   0.859  10.445 -0.3332  0.3587  0.7206
  107OSM     OF10975   6.167   0.757  10.522  0.1370  0.6675  0.0362
  107OSM    C2F10976   6.301   0.893  10.369  0.8380  0.1147 -0.0492
  107OSM    H2F10977   6.364   0.950  10.441  2.9556  0.6257 -2.2302
  107OSM    H2G10978   6.274   0.952  10.279 -0.0057  0.3708  0.3692
  107OSM    C3F10979   6.374   0.762  10.333 -0.4298  0.4526  0.5718
  107OSM    H3F10980   6.327   0.702  10.253  4.5237 -2.3977 -0.3840
  107OSM    H3G10981   6.385   0.688  10.415 -1.6680 -0.7225 -0.2904
  107OSM    C4F10982   6.520   0.775  10.289  0.8045 -0.2785 -0.3578
  107OSM    H4F10983   6.557   0.674  10.259 -0.2720 -0.1700 -2.1258
  107OSM    H4G10984   6.576   0.819  10.374 -0.1292 -3.0260  1.7580
  107OSM    C5F10985   6.540   0.872  10.166  0.7180 -0.3084  0.1409
  107OSM    H5F10986   6.509   0.976  10.187 -0.5427 -0.6864  0.2060
  107OSM    H5G10987   6.467   0.839  10.088  1.4872 -2.3529  0.2432
  107OSM    C6F10988   6.680   0.866  10.123 -1.1410  0.0545  0.7795
  107OSM    H6F10989   6.701   0.759  10.100  2.3993  0.2491  2.8031
  107OSM    H6G10990   6.748   0.881  10.209 -1.4523  0.4833  0.9547
  107OSM    C7F10991   6.715   0.979  10.017 -0.5239  0.7326 -0.1222
  107OSM    H7F10992   6.818   0.956   9.980 -1.0417  3.1099 -3.3283
  107OSM    H7G10993   6.722   1.076  10.072 -0.9648  0.9421 -0.4337
  107OSM    C8F10994   6.625   0.991   9.898 -0.3345 -0.7494  0.2679
  107OSM    H8F10995   6.660   1.075   9.834  5.4887 -0.5316  3.3477
  107OSM    H8G10996   6.524   1.022   9.932 -1.7746 -2.1284 -2.5555
  107OSM    C9F10997   6.621   0.859   9.820  0.1276 -0.2535  1.0512
  107OSM    H9F10998   6.590   0.769   9.875 -1.9011 -0.0788  0.2393
  107OSM   C10F10999   6.643   0.854   9.686  0.3372 -0.4298  0.8702
  107OSM   H10F11000   6.642   0.757   9.633  0.4157 -0.2996  0.6295
  107OSM   C11F11001   6.660   0.977   9.592  0.6519  0.6182  0.6053
  107OSM   H11F11002   6.762   1.019   9.605  1.5033 -1.4261  0.6385
  107OSM   H11G11003   6.588   1.054   9.627 -0.9932 -1.8249  2.7784
  107OSM   C12F11004   6.636   0.957   9.436 -0.1720 -0.0261  0.1428
  107OSM   H12F11005   6.585   1.048   9.396 -1.7946 -0.7810  0.4545
  107OSM   H12G11006   6.573   0.867   9.417 -0.5122  0.3831 -0.6927
  107OSM   C13F11007   6.780   0.937   9.369  0.7119  0.0008  0.0285
  107OSM   H13F11008   6.827   0.850   9.419 -1.6830 -1.2088  0.2036
  107OSM   H13G11009   6.840   1.022   9.409  0.5551 -0.5039  1.3591
  107OSM   C14F11010   6.782   0.911   9.219 -0.0893  0.2892 -0.1173
  107OSM   H14F11011   6.888   0.903   9.186 -0.2396  2.1176 -1.1131
  107OSM   H14G11012   6.731   0.991   9.162 -0.3973  0.7499  0.8029
  107OSM   C15F11013   6.719   0.779   9.179 -0.0613  0.7553  0.0866
  107OSM   H15F11014   6.630   0.758   9.242  0.2088 -0.3745  0.1080
  107OSM   H15G11015   6.791   0.699   9.206  1.0247  1.1681 -1.5160
  107OSM   C16F11016   6.678   0.749   9.033  0.3327  0.0959 -0.9747
  107OSM   H16F11017   6.629   0.649   9.029  1.5932 -0.6022  0.6207
  107OSM   H16G11018   6.771   0.745   8.972  0.2490  0.8385 -1.1572
  107OSM   C17F11019   6.584   0.853   8.964  0.1045 -0.7318 -0.0998
  107OSM   H17F11020   6.579   0.811   8.862 -0.6513  0.6928 -0.6638
  107OSM   H17G11021   6.633   0.953   8.962 -1.5383  0.1035  0.1473
  107OSM   C18F11022   6.442   0.866   9.028  0.6848  0.6419  0.3595
  107OSM   H18F11023   6.389   0.776   8.993  1.2203  0.5017 -0.1101
  107OSM   H18G11024   6.392   0.953   8.979 -1.3211 -1.2705 -1.0586
  107OSM   H18H11025   6.443   0.872   9.139 -4.2744 -0.7105  0.5598
  108OSM      N11026   3.292   2.719  10.588 -0.0881  0.2603  0.0503
  108OSM    C1511027   3.434   2.762  10.610  0.7818  0.1500 -1.1722
  108OSM   H15A11028   3.487   2.768  10.516  0.6472 -0.4662 -1.2924
  108OSM   H15B11029   3.487   2.690  10.671 -0.5585  0.8454  0.8661
  108OSM   H15C11030   3.438   2.849  10.673 -0.6270  0.3019 -1.2642
  108OSM    C1411031   3.284   2.579  10.531 -0.9090  0.1412  0.4495
  108OSM   H14A11032   3.357   2.512  10.574 -1.5620 -0.4127  0.7000
  108OSM   H14B11033   3.293   2.580  10.423 -0.5927  2.0107  0.4823
  108OSM   H14C11034   3.181   2.546  10.534 -1.1923  0.5657 -2.5827
  108OSM    C1311035   3.244   2.703  10.731 -0.0285  0.3572 -1.2606
  108OSM   H13A11036   3.137   2.689  10.726 -0.3162  1.9757 -0.0943
  108OSM   H13B11037   3.264   2.790  10.791 -0.6767  0.4224 -1.1392
  108OSM   H13C11038   3.288   2.618  10.780  0.5885  0.1603 -2.1448
  108OSM    C1211039   3.201   2.819  10.516 -0.4083  0.0171  0.0314
  108OSM   H12A11040   3.249   2.835  10.420  1.3375 -1.9586  0.5143
  108OSM   H12B11041   3.205   2.916  10.564  2.2945 -0.4536  0.8772
  108OSM    C1111042   3.060   2.768  10.491  0.7209 -0.1844  0.6859
  108OSM   H11A11043   3.059   2.690  10.412  0.4859  2.5604 -2.1455
  108OSM   H11B11044   2.999   2.845  10.438  2.5435  2.0050  1.6609
  108OSM      P11045   2.850   2.686  10.615 -0.0602 -0.1227 -0.2495
  108OSM    O1311046   2.834   2.622  10.748  0.3513  0.2323  0.8773
  108OSM    O1411047   2.769   2.805  10.588 -0.3523  0.0648 -0.5522
  108OSM    O1111048   2.833   2.587  10.498 -0.0888 -0.3076 -0.7748
  108OSM    O1211049   3.000   2.725  10.614  0.1666  0.3672  0.0465
  108OSM    C1S11050   2.794   2.454  10.529 -0.1703 -0.6209 -0.2031
  108OSM    H1S11051   2.715   2.450  10.607 -1.1998  0.1312 -1.1937
  108OSM    H1T11052   2.876   2.398  10.579 -1.6907 -1.7628  1.0626
  108OSM     NF11053   2.676   2.269  10.447  0.3531  0.4885  0.5443
  108OSM    HNF11054   2.732   2.188  10.436  0.5249  0.6742  0.0348
  108OSM    C2S11055   2.736   2.391  10.407 -0.0389  0.8939 -0.4275
  108OSM    H2S11056   2.665   2.465  10.364  0.5048  1.1713 -0.8608
  108OSM    C3S11057   2.841   2.366  10.296 -0.2299  0.2085  0.0385
  108OSM    H3S11058   2.920   2.304  10.343  1.7203  1.2571 -1.7646
  108OSM     O311059   2.895   2.478  10.238  0.1379 -0.2278  0.1300
  108OSM    HO311060   2.877   2.541  10.308 -0.1571 -3.3248  2.9683
  108OSM    C4S11061   2.783   2.301  10.175  0.1126 -0.1424 -0.0704
  108OSM    H4S11062   2.711   2.364  10.119  0.1152 -0.6334 -0.6336
  108OSM    C5S11063   2.819   2.188  10.109  0.5798 -0.1795 -0.6902
  108OSM    H5S11064   2.899   2.131  10.159  0.7499 -0.0619 -0.8292
  108OSM    C6S11065   2.764   2.122   9.984  0.3694 -0.3673  0.6341
  108OSM    H6S11066   2.767   2.013  10.004 -1.6810 -0.6417 -0.5096
  108OSM    H6T11067   2.834   2.138   9.899  3.1089 -1.4908  2.5931
  108OSM    C7S11068   2.618   2.158   9.936  0.2299  0.4381  0.3388
  108OSM    H7S11069   2.605   2.268   9.927 -1.7307  0.0709 -2.0260
  108OSM    H7T11070   2.547   2.120  10.013  1.4490 -0.0470  1.2462
  108OSM    C8S11071   2.581   2.097   9.803 -0.4587 -0.7978  0.5232
  108OSM    H8S11072   2.476   2.113   9.773  0.3029  0.1733 -1.7747
  108OSM    H8T11073   2.610   1.990   9.798  1.5879 -0.2350 -0.6818
  108OSM    C9S11074   2.663   2.159   9.689  0.6358 -0.5850  0.2795
  108OSM    H9S11075   2.770   2.130   9.696  0.9933  0.8737  1.1702
  108OSM    H9T11076   2.660   2.270   9.700 -1.0582 -0.4175 -1.6928
  108OSM   C10S11077   2.615   2.121   9.548 -0.0885  0.2566 -0.5168
  108OSM   H10S11078   2.509   2.157   9.548 -0.2882 -0.2321  2.2993
  108OSM   H10T11079   2.614   2.011   9.539  1.8319  0.0769  1.1260
  108OSM   C11S11080   2.704   2.173   9.440 -0.3329  0.1497 -0.5756
  108OSM   H11S11081   2.811   2.147   9.455 -0.4071 -1.2478 -2.3070
  108OSM   H11T11082   2.697   2.284   9.440 -3.5340 -0.0214 -1.1162
  108OSM   C12S11083   2.656   2.127   9.301  0.2753 -0.0908  0.5119
  108OSM   H12S11084   2.744   2.127   9.234  1.2523 -2.5797  1.7483
  108OSM   H12T11085   2.580   2.195   9.258  1.3951  1.2070  0.5499
  108OSM   C13S11086   2.604   1.982   9.289 -0.1330 -0.6307 -0.1962
  108OSM   H13S11087   2.505   1.979   9.339 -0.1467  1.7371 -0.0084
  108OSM   H13T11088   2.676   1.919   9.346  1.3058  0.4560 -0.7688
  108OSM   C14S11089   2.611   1.936   9.143 -0.1568  0.4318  0.3625
  108OSM   H14S11090   2.626   1.826   9.149  1.6968  0.5920 -1.1089
  108OSM   H14T11091   2.708   1.970   9.103  0.9457  1.0695  3.4140
  108OSM   C15S11092   2.487   1.973   9.057 -0.1164 -0.2628 -0.6043
  108OSM   H15S11093   2.442   2.067   9.097 -0.7829 -0.0280 -1.8826
  108OSM   H15T11094   2.423   1.885   9.080 -0.9471  0.7277  0.9823
  108OSM   C16S11095   2.529   1.991   8.911 -0.4572  0.0654  0.4156
  108OSM   H16S11096   2.552   1.890   8.870 -2.0195 -0.0661 -0.1479
  108OSM   H16T11097   2.626   2.046   8.916 -1.1292  1.8000 -3.8656
  108OSM   C17S11098   2.427   2.051   8.811  0.4799 -0.1092 -0.1509
  108OSM   H17S11099   2.417   2.161   8.827  0.0363  0.0000 -1.1325
  108OSM   H17T11100   2.326   2.004   8.818  0.6474 -0.2102  2.0555
  108OSM   C18S11101   2.469   2.041   8.661 -0.4698 -0.5428  0.2442
  108OSM   H18S11102   2.571   2.082   8.649 -1.1393  1.0751 -0.1289
  108OSM   H18T11103   2.402   2.103   8.597  1.5450  2.9112  1.3533
  108OSM   H18U11104   2.472   1.933   8.638  2.8290 -0.4475  0.0348
  108OSM    C1F11105   2.560   2.260  10.507  0.5204 -0.4828 -0.0295
  108OSM     OF11106   2.471   2.342  10.496  0.4566  0.0394 -0.0664
  108OSM    C2F11107   2.540   2.142  10.591  0.8040  0.6500 -0.4163
  108OSM    H2F11108   2.508   2.187  10.688  0.4500 -0.5726  0.0516
  108OSM    H2G11109   2.634   2.084  10.603  0.2485 -0.5761 -1.7878
  108OSM    C3F11110   2.415   2.067  10.540 -0.1990 -0.0689  0.2389
  108OSM    H3F11111   2.329   2.135  10.556  2.1628  2.8818  0.7108
  108OSM    H3G11112   2.402   1.978  10.606 -0.5103  0.2014  0.5437
  108OSM    C4F11113   2.427   2.034  10.393 -0.0308  0.0247 -0.5122
  108OSM    H4F11114   2.524   1.987  10.367  0.9480  0.2197  2.6734
  108OSM    H4G11115   2.429   2.131  10.340  0.6564  0.5864  0.5225
  108OSM    C5F11116   2.304   1.957  10.345  0.0527 -0.1064  0.7646
  108OSM    H5F11117   2.220   2.029  10.352  0.1792  0.1641 -0.4538
  108OSM    H5G11118   2.280   1.876  10.418  1.1801 -1.3022 -0.1755
  108OSM    C6F11119   2.315   1.915  10.199  0.4849 -0.2849 -0.0534
  108OSM    H6F11120   2.375   1.988  10.140 -0.6847  0.0040 -0.9069
  108OSM    H6G11121   2.209   1.916  10.164  0.8068  0.2254 -1.0143
  108OSM    C7F11122   2.368   1.769  10.189  0.3991  0.0022 -0.0868
  108OSM    H7F11123   2.328   1.701  10.267  2.3883 -1.5280 -0.3827
  108OSM    H7G11124   2.477   1.771  10.205  0.2885  2.6785  0.5005
  108OSM    C8F11125   2.338   1.697  10.053  0.1540 -0.9852 -0.3461
  108OSM    H8F11126   2.230   1.673  10.068  0.1007 -0.1895  0.5846
  108OSM    H8G11127   2.400   1.606  10.066  0.3386 -1.1789 -2.4636
  108OSM    C9F11128   2.368   1.793   9.941 -0.1192 -0.5021 -0.2773
  108OSM    H9F11129   2.319   1.891   9.941 -2.0085 -1.4238 -0.1877
  108OSM   C10F11130   2.443   1.756   9.837  0.3590 -0.5089  0.0433
  108OSM   H10F11131   2.457   1.830   9.756 -2.1765  0.3218  0.3125
  108OSM   C11F11132   2.503   1.625   9.803 -0.2740  0.5977  0.1592
  108OSM   H11F11133   2.457   1.546   9.866  0.5237  0.3056  0.3848
  108OSM   H11G11134   2.612   1.626   9.822 -0.1061 -1.0801 -0.6338
  108OSM   C12F11135   2.492   1.590   9.646  0.0690 -0.5924 -0.4791
  108OSM   H12F11136   2.386   1.594   9.612 -0.1474 -0.6632  0.1779
  108OSM   H12G11137   2.523   1.485   9.630 -3.1047 -1.9735  1.9741
  108OSM   C13F11138   2.570   1.685   9.555  0.2399  0.0742 -0.3527
  108OSM   H13F11139   2.673   1.705   9.589 -1.0317  1.2740  2.9645
  108OSM   H13G11140   2.508   1.777   9.555  1.3508  0.8278  0.7500
  108OSM   C14F11141   2.550   1.639   9.403  0.2486 -0.3019 -0.3400
  108OSM   H14F11142   2.560   1.729   9.340 -0.3933 -0.0326 -0.0622
  108OSM   H14G11143   2.450   1.592   9.390 -0.6903  0.8590  2.1290
  108OSM   C15F11144   2.656   1.537   9.347  0.6054 -0.3139  0.0713
  108OSM   H15F11145   2.657   1.459   9.426  2.3724 -0.9716 -0.5659
  108OSM   H15G11146   2.745   1.603   9.335 -0.7449  1.5113 -0.0849
  108OSM   C16F11147   2.608   1.471   9.221 -0.3490 -0.4170  0.1701
  108OSM   H16F11148   2.507   1.429   9.239  0.1847 -2.4168 -1.3540
  108OSM   H16G11149   2.678   1.385   9.211 -0.7676 -1.0028  2.1528
  108OSM   C17F11150   2.604   1.559   9.091  0.1945  0.1397 -0.2162
  108OSM   H17F11151   2.700   1.608   9.063 -1.0698  3.2613  0.7276
  108OSM   H17G11152   2.526   1.634   9.116  0.7210  0.8943 -0.7911
  108OSM   C18F11153   2.552   1.467   8.980  0.1807  0.6824  0.2346
  108OSM   H18F11154   2.634   1.395   8.960 -0.6180 -0.5304  1.2296
  108OSM   H18G11155   2.519   1.522   8.889 -0.0835  1.5983  0.8823
  108OSM   H18H11156   2.469   1.401   9.015 -0.5227  1.1845 -0.4538
  109OSM      N11157   2.118   0.172  11.330  0.4209 -0.1057 -0.6887
  109OSM    C1511158   2.226   0.271  11.325  0.3532  0.1561  0.9889
  109OSM   H15A11159   2.236   0.304  11.222 -0.5781  0.5498  1.0214
  109OSM   H15B11160   2.316   0.225  11.364  0.9875  0.6223  0.1059
  109OSM   H15C11161   2.199   0.358  11.382  0.4805 -1.3016  3.3327
  109OSM    C1411162   2.154   0.037  11.265 -0.8437 -0.3318  0.4210
  109OSM   H14A11163   2.247  -0.003  11.299 -0.2394  0.5292 -0.1717
  109OSM   H14B11164   2.163   0.046  11.157  2.2339 -1.5089  0.5404
  109OSM   H14C11165   2.077  -0.032  11.294  0.6795 -1.9866  0.5673
  109OSM    C1311166   2.078   0.153  11.471  0.5507 -0.0999 -0.3396
  109OSM   H13A11167   2.032   0.244  11.506 -2.1425 -0.9835 -1.4991
  109OSM   H13B11168   2.167   0.138  11.532 -0.5559  0.0669  1.3421
  109OSM   H13C11169   2.003   0.077  11.490 -0.5856  1.0242 -0.3026
  109OSM    C1211170   1.993   0.231  11.266  0.7696 -0.6350 -0.2611
  109OSM   H12A11171   1.962   0.316  11.325 -0.3515  0.3414 -2.2290
  109OSM   H12B11172   1.909   0.164  11.275 -2.1243  2.7313 -1.1470
  109OSM    C1111173   1.998   0.285  11.125 -0.2112 -0.4715 -0.4335
  109OSM   H11A11174   2.085   0.354  11.123 -2.5862  2.6460 -2.4303
  109OSM   H11B11175   1.905   0.342  11.106 -0.6700 -1.7737 -2.2625
  109OSM      P11176   1.895   0.088  10.991 -0.1082 -0.0903 -0.2871
  109OSM    O1311177   1.936   0.008  10.875  0.4501  0.6242 -0.9307
  109OSM    O1411178   1.858   0.011  11.110  0.1545 -0.0455 -0.3056
  109OSM    O1111179   1.771   0.189  10.941 -0.1051  0.5286 -0.4102
  109OSM    O1211180   2.012   0.191  11.023 -0.0676 -0.1424  0.1278
  109OSM    C1S11181   1.783   0.280  10.831  0.5597  0.5196 -0.3445
  109OSM    H1S11182   1.875   0.341  10.843  1.1669 -0.4127 -0.1483
  109OSM    H1T11183   1.697   0.350  10.831  0.1999  0.0823 -0.3941
  109OSM     NF11184   1.818   0.306  10.587  0.5948  0.5860  0.1509
  109OSM    HNF11185   1.743   0.350  10.538  0.3494 -1.3272 -1.2629
  109OSM    C2S11186   1.786   0.213  10.696  0.5797 -0.3576  0.5884
  109OSM    H2S11187   1.868   0.139  10.688 -0.6401 -1.8568  1.5675
  109OSM    C3S11188   1.658   0.133  10.657  0.1933  0.7071 -0.2293
  109OSM    H3S11189   1.569   0.198  10.658 -0.7789 -0.5356 -2.5694
  109OSM     O311190   1.642   0.021  10.754 -0.6598  0.0141  0.4769
  109OSM    HO311191   1.699   0.038  10.829 -2.2132  2.6078  1.1196
  109OSM    C4S11192   1.666   0.071  10.519  0.5222  0.1905 -0.3228
  109OSM    H4S11193   1.742  -0.006  10.497  1.7302  0.7164  1.8490
  109OSM    C5S11194   1.586   0.091  10.409 -1.0479  0.1580  0.2163
  109OSM    H5S11195   1.490   0.139  10.429 -1.7480 -1.9298  2.0842
  109OSM    C6S11196   1.605   0.032  10.278 -0.5881  0.2035  0.2372
  109OSM    H6S11197   1.504   0.026  10.231 -1.5680  2.0585  2.0016
  109OSM    H6T11198   1.656  -0.066  10.278 -1.3129 -0.1846 -0.7921
  109OSM    C7S11199   1.697   0.130  10.193  0.3759 -0.4004 -0.1985
  109OSM    H7S11200   1.778   0.174  10.255  0.4981  0.1806 -0.7559
  109OSM    H7T11201   1.636   0.216  10.158 -0.5582 -1.3228 -0.8650
  109OSM    C8S11202   1.753   0.064  10.069  0.2126 -0.3688  0.0270
  109OSM    H8S11203   1.674   0.047   9.992  1.6046 -1.5369 -1.1565
  109OSM    H8T11204   1.807  -0.028  10.097  0.1791 -0.2706  0.4135
  109OSM    C9S11205   1.856   0.150  10.003 -0.3276 -0.4930 -0.1060
  109OSM    H9S11206   1.944   0.154  10.072  1.2392 -0.7764 -2.0365
  109OSM    H9T11207   1.823   0.255   9.988 -1.6269 -0.6493  1.4895
  109OSM   C10S11208   1.916   0.095   9.872 -0.0088  0.1574  0.2047
  109OSM   H10S11209   1.840   0.088   9.791  3.6527 -0.2145 -3.3932
  109OSM   H10T11210   1.959  -0.007   9.888  0.6599  0.3010 -0.6112
  109OSM   C11S11211   2.033   0.174   9.825 -0.3603  0.6625  0.1265
  109OSM   H11S11212   2.118   0.137   9.886 -1.2481  0.5861  1.3326
  109OSM   H11T11213   2.021   0.283   9.836  2.5212  0.9726  0.3402
  109OSM   C12S11214   2.074   0.144   9.679 -0.1933  0.6104  0.2517
  109OSM   H12S11215   2.019   0.203   9.603  1.6686  0.5015 -1.2147
  109OSM   H12T11216   2.061   0.035   9.664  1.4345  0.2665  1.2384
  109OSM   C13S11217   2.226   0.166   9.659  0.4591 -0.0715  0.9571
  109OSM   H13S11218   2.269   0.099   9.737  3.0788  0.9493  0.4342
  109OSM   H13T11219   2.250   0.270   9.687 -1.5760  1.7032 -3.4110
  109OSM   C14S11220   2.262   0.142   9.512  0.3842 -0.4732 -0.2140
  109OSM   H14S11221   2.187   0.192   9.449  0.2755  0.1474  0.3980
  109OSM   H14T11222   2.257   0.032   9.498  2.1908 -0.8150  1.4461
  109OSM   C15S11223   2.405   0.185   9.468 -0.1296 -0.6504 -0.3815
  109OSM   H15S11224   2.468   0.142   9.549 -1.8036  1.8698  2.3610
  109OSM   H15T11225   2.405   0.292   9.496 -0.6752 -0.7338 -0.0421
  109OSM   C16S11226   2.460   0.133   9.342  0.1354 -0.1803 -0.5118
  109OSM   H16S11227   2.552   0.194   9.323  0.2416 -0.0503  0.3803
  109OSM   H16T11228   2.383   0.133   9.262  1.9380 -2.3060 -2.3098
  109OSM   C17S11229   2.513  -0.013   9.364  0.3094  0.2289 -0.2875
  109OSM   H17S11230   2.429  -0.085   9.360 -1.2097  1.8285  1.6501
  109OSM   H17T11231   2.572  -0.025   9.457  0.5702 -0.7978 -0.5810
  109OSM   C18S11232   2.610  -0.059   9.255 -0.4202 -0.3661 -0.4372
  109OSM   H18S11233   2.691   0.016   9.240 -1.0304  0.2309 -0.7499
  109OSM   H18T11234   2.556  -0.094   9.165 -1.5726  0.8519 -0.2350
  109OSM   H18U11235   2.661  -0.149   9.296  0.5806  0.2545 -0.2975
  109OSM    C1F11236   1.937   0.360  10.560  0.5657 -0.1554 -0.1722
  109OSM     OF11237   2.034   0.341  10.633  0.2383  0.2193 -0.2382
  109OSM    C2F11238   1.944   0.459  10.457  0.1173 -0.4814  0.2541
  109OSM    H2F11239   1.984   0.549  10.509 -1.5273  0.8480 -0.7153
  109OSM    H2G11240   1.845   0.464  10.407 -0.8741 -0.8177  2.1121
  109OSM    C3F11241   2.050   0.420  10.351  0.0606  0.1319  0.7505
  109OSM    H3F11242   2.009   0.327  10.305 -0.8193  1.2703 -0.8072
  109OSM    H3G11243   2.144   0.393  10.403  0.5925 -0.2475 -0.3907
  109OSM    C4F11244   2.071   0.516  10.236  0.1262  0.6690  0.3263
  109OSM    H4F11245   2.106   0.613  10.277 -0.1464  1.6246 -1.6208
  109OSM    H4G11246   1.970   0.533  10.193  0.2980  0.6519 -0.0883
  109OSM    C5F11247   2.163   0.477  10.120  0.2512 -0.0726  0.1707
  109OSM    H5F11248   2.155   0.372  10.085 -1.1772  0.3453 -0.8235
  109OSM    H5G11249   2.266   0.495  10.158 -0.3366 -0.7670  2.1749
  109OSM    C6F11250   2.144   0.570   9.998  0.1450 -0.0350 -0.3754
  109OSM    H6F11251   2.147   0.674  10.036  0.8868  0.4566 -1.7169
  109OSM    H6G11252   2.045   0.552   9.951 -0.7296 -1.5453  1.9951
  109OSM    C7F11253   2.246   0.558   9.878 -0.6163  0.0714  0.2249
  109OSM    H7F11254   2.257   0.448   9.865  2.6533  0.4149 -0.4828
  109OSM    H7G11255   2.335   0.611   9.918  1.2526 -2.2098 -0.8045
  109OSM    C8F11256   2.196   0.626   9.744 -0.3858  0.5876  0.4583
  109OSM    H8F11257   2.196   0.735   9.766 -0.9121  0.6382  0.2193
  109OSM    H8G11258   2.099   0.589   9.704 -0.2811 -0.3647  1.0758
  109OSM    C9F11259   2.296   0.611   9.627 -0.1623 -0.5336  0.5633
  109OSM    H9F11260   2.274   0.523   9.564  0.1630  0.4571 -0.9365
  109OSM   C10F11261   2.410   0.679   9.612 -1.2304 -0.3030  0.4036
  109OSM   H10F11262   2.462   0.664   9.516  0.8927  1.1043  1.2928
  109OSM   C11F11263   2.473   0.793   9.689  0.4782  0.2684  0.8034
  109OSM   H11F11264   2.580   0.778   9.714  0.1325 -3.0560  0.5872
  109OSM   H11G11265   2.426   0.793   9.790  1.4729 -0.8950  1.2822
  109OSM   C12F11266   2.472   0.936   9.623  0.4502  0.5891 -0.1870
  109OSM   H12F11267   2.541   0.941   9.536 -0.8681  2.0147 -1.1634
  109OSM   H12G11268   2.514   1.014   9.690  0.2203  0.6571 -0.1210
  109OSM   C13F11269   2.338   0.968   9.559 -0.2628  0.6936  0.1773
  109OSM   H13F11270   2.249   0.970   9.625 -0.1733 -0.8194  0.3541
  109OSM   H13G11271   2.311   0.897   9.477  2.5931  0.7459 -0.8855
  109OSM   C14F11272   2.340   1.112   9.508 -0.2295 -0.1887  0.6873
  109OSM   H14F11273   2.390   1.107   9.408  0.6374 -0.1769  1.1196
  109OSM   H14G11274   2.384   1.186   9.578 -3.5847  2.3514  0.2408
  109OSM   C15F11275   2.203   1.167   9.457  0.3008 -0.3522  0.1124
  109OSM   H15F11276   2.134   1.167   9.544 -2.2379 -0.9718 -1.8229
  109OSM   H15G11277   2.151   1.112   9.375  1.6883 -0.3950 -0.7710
  109OSM   C16F11278   2.210   1.314   9.405 -0.3000  0.1313 -0.0293
  109OSM   H16F11279   2.271   1.314   9.312  0.1791  0.0264  0.2825
  109OSM   H16G11280   2.262   1.375   9.482 -1.3489 -1.1697  1.7345
  109OSM   C17F11281   2.075   1.369   9.375 -0.3986 -0.1149  0.0221
  109OSM   H17F11282   2.025   1.390   9.471  1.2133 -1.6125  1.2193
  109OSM   H17G11283   2.012   1.293   9.324 -0.9926  1.0032 -0.9299
  109OSM   C18F11284   2.081   1.490   9.285 -0.0758  0.4479 -0.5613
  109OSM   H18F11285   2.121   1.475   9.183  0.0555  1.9163 -0.7379
  109OSM   H18G11286   2.151   1.564   9.329 -0.2716 -0.3920  1.2212
  109OSM   H18H11287   1.977   1.529   9.277 -0.0382  0.9133  1.0252
  110OSM      N11288   2.992   5.520  11.110 -0.1062 -0.6390 -0.8310
  110OSM    C1511289   3.023   5.379  11.130 -0.4379  0.2777  0.0446
  110OSM   H15A11290   2.964   5.314  11.068 -1.6939  0.5257  0.9545
  110OSM   H15B11291   3.006   5.358  11.235  3.3363 -0.7514  0.5278
  110OSM   H15C11292   3.126   5.368  11.099 -1.0234  0.3070 -1.9474
  110OSM    C1411293   3.001   5.551  10.959 -0.3415  0.1392  0.3951
  110OSM   H14A11294   3.100   5.537  10.918 -1.0882  0.1602 -1.4901
  110OSM   H14B11295   2.982   5.656  10.943  0.0760  0.2732  0.7681
  110OSM   H14C11296   2.945   5.488  10.892  1.5068 -0.6819 -0.4084
  110OSM    C1311297   2.857   5.552  11.153  0.7747 -0.3204 -0.7150
  110OSM   H13A11298   2.786   5.488  11.103  0.4873  0.0474 -0.7846
  110OSM   H13B11299   2.830   5.652  11.125 -3.8308 -0.9120  1.1794
  110OSM   H13C11300   2.848   5.536  11.260  0.7462  1.7022 -0.3986
  110OSM    C1211301   3.074   5.611  11.192 -0.4373  0.3185 -1.0788
  110OSM   H12A11302   3.027   5.606  11.289 -0.6254 -0.5653 -1.2091
  110OSM   H12B11303   3.062   5.717  11.173 -0.4117  0.5117 -0.0652
  110OSM    C1111304   3.226   5.574  11.209  0.8017 -0.7040  0.1230
  110OSM   H11A11305   3.226   5.474  11.256  0.6485 -0.6481  0.2434
  110OSM   H11B11306   3.273   5.653  11.271 -3.0425  2.7544 -1.1419
  110OSM      P11307   3.348   5.697  11.012 -0.7616 -0.3220  0.0008
  110OSM    O1311308   3.235   5.783  10.991  0.6467  0.4188 -0.0304
  110OSM    O1411309   3.462   5.745  11.088 -0.7205 -0.3689  0.2385
  110OSM    O1111310   3.400   5.648  10.869 -0.3155 -0.2575 -0.1675
  110OSM    O1211311   3.285   5.568  11.076 -0.3776  0.4498 -0.9340
  110OSM    C1S11312   3.339   5.535  10.803 -0.4832 -0.4722  0.1462
  110OSM    H1S11313   3.242   5.500  10.843 -0.5634 -0.9703 -0.4674
  110OSM    H1T11314   3.402   5.444  10.813  0.0248 -0.0670  0.7055
  110OSM     NF11315   3.247   5.450  10.606  0.5213  0.1957  1.0859
  110OSM    HNF11316   3.289   5.384  10.544 -0.0420  1.7329 -0.9571
  110OSM    C2S11317   3.322   5.563  10.652 -0.0224  0.4027 -0.4487
  110OSM    H2S11318   3.277   5.663  10.640 -0.0576  0.5084  0.5277
  110OSM    C3S11319   3.455   5.592  10.581 -0.1503  0.0099  0.1580
  110OSM    H3S11320   3.514   5.498  10.582 -0.7090 -0.3422  1.9449
  110OSM     O311321   3.535   5.693  10.638 -0.1194 -1.0734 -0.2900
  110OSM    HO311322   3.492   5.717  10.721 -1.7750  2.0312 -1.9382
  110OSM    C4S11323   3.434   5.624  10.427  0.6293  0.4530  0.5552
  110OSM    H4S11324   3.443   5.539  10.357 -0.2669  1.8236 -1.2715
  110OSM    C5S11325   3.383   5.742  10.382 -0.6629 -0.0640 -0.8360
  110OSM    H5S11326   3.356   5.819  10.457  0.3453 -0.1772 -0.3488
  110OSM    C6S11327   3.349   5.771  10.245 -0.2130  0.1742 -0.6082
  110OSM    H6S11328   3.426   5.726  10.178  0.4439 -1.6623  1.3174
  110OSM    H6T11329   3.355   5.880  10.225  0.5004  0.3718  0.6383
  110OSM    C7S11330   3.214   5.721  10.199  0.8410  0.6898  0.0157
  110OSM    H7S11331   3.133   5.794  10.222  0.4407 -0.3672  2.1562
  110OSM    H7T11332   3.187   5.634  10.263 -2.5665 -0.3580 -2.6812
  110OSM    C8S11333   3.210   5.677  10.055 -0.0356 -0.1019 -1.0698
  110OSM    H8S11334   3.123   5.607  10.049  0.7477 -1.0842 -1.1312
  110OSM    H8T11335   3.298   5.617  10.023  0.8372  0.1471  0.8500
  110OSM    C9S11336   3.180   5.791   9.964  0.2765  0.4133  0.4125
  110OSM    H9S11337   3.263   5.863   9.978  2.0116 -1.1518 -1.4995
  110OSM    H9T11338   3.091   5.845  10.003 -0.7201  0.5798 -1.9658
  110OSM   C10S11339   3.140   5.754   9.825 -0.5050 -0.5070  0.5054
  110OSM   H10S11340   3.046   5.695   9.836 -1.2344  0.7837  1.3190
  110OSM   H10T11341   3.218   5.699   9.768 -2.5967 -2.0577 -0.9462
  110OSM   C11S11342   3.105   5.882   9.743 -0.2675 -0.2256  0.1855
  110OSM   H11S11343   3.180   5.961   9.768 -1.3797  0.3677  1.6971
  110OSM   H11T11344   3.008   5.922   9.779  0.4316  0.7482  1.0030
  110OSM   C12S11345   3.101   5.838   9.601  0.4640 -1.2792 -0.6303
  110OSM   H12S11346   2.998   5.800   9.591  0.6179 -1.7650 -0.3690
  110OSM   H12T11347   3.174   5.761   9.567 -1.7725 -3.6633 -0.1683
  110OSM   C13S11348   3.115   5.949   9.493 -0.1305  0.1967  0.2042
  110OSM   H13S11349   3.198   6.018   9.519  0.6385  0.3424 -2.5336
  110OSM   H13T11350   3.017   6.000   9.495 -1.1120 -1.6376  1.8096
  110OSM   C14S11351   3.135   5.877   9.359  0.1349 -0.1276  1.1145
  110OSM   H14S11352   3.050   5.806   9.350 -0.8294  1.2240 -0.7971
  110OSM   H14T11353   3.236   5.829   9.358  0.4259  0.3854 -3.4343
  110OSM   C15S11354   3.142   5.972   9.232 -0.3598 -0.8699 -0.2332
  110OSM   H15S11355   3.045   6.024   9.221 -0.1360 -0.5881 -0.9594
  110OSM   H15T11356   3.159   5.914   9.139 -0.0825  1.1269 -1.4700
  110OSM   C16S11357   3.251   6.078   9.245  0.5836  0.2439 -0.0489
  110OSM   H16S11358   3.345   6.021   9.265  0.3513 -0.7272 -1.6551
  110OSM   H16T11359   3.225   6.133   9.337 -1.1322  1.1273 -1.0516
  110OSM   C17S11360   3.254   6.180   9.128  0.5502 -0.0603 -0.0779
  110OSM   H17S11361   3.147   6.206   9.112  0.7516  0.4435 -0.6373
  110OSM   H17T11362   3.276   6.134   9.029 -1.3736 -0.0694 -0.5220
  110OSM   C18S11363   3.355   6.296   9.146 -0.0063 -0.3225  0.2908
  110OSM   H18S11364   3.341   6.348   9.243 -1.2706 -0.6545  0.2898
  110OSM   H18T11365   3.340   6.369   9.063  0.9747  1.5559  1.7391
  110OSM   H18U11366   3.461   6.262   9.138  0.2643  0.4205  0.6961
  110OSM    C1F11367   3.112   5.445  10.619  0.1453 -0.3740 -0.1201
  110OSM     OF11368   3.045   5.533  10.672  0.0980  0.4689 -0.6634
  110OSM    C2F11369   3.045   5.322  10.580 -0.0952  0.0071 -0.0432
  110OSM    H2F11370   3.012   5.281  10.677  0.6937  0.5471  0.4611
  110OSM    H2G11371   3.111   5.251  10.525 -0.8553 -1.5150  0.9869
  110OSM    C3F11372   2.909   5.343  10.504 -0.2988  0.0875  0.7559
  110OSM    H3F11373   2.835   5.397  10.567 -2.3232 -0.8155 -0.7647
  110OSM    H3G11374   2.860   5.247  10.478  2.0109 -0.3327 -2.4073
  110OSM    C4F11375   2.933   5.422  10.374 -0.3549 -0.6453  0.2832
  110OSM    H4F11376   3.003   5.362  10.312  3.2455  2.1836  1.4472
  110OSM    H4G11377   2.982   5.519  10.396 -1.7514  0.2662 -0.5684
  110OSM    C5F11378   2.801   5.444  10.293 -0.2308  0.1170  0.5493
  110OSM    H5F11379   2.745   5.523  10.347  2.7279  1.6104  1.5226
  110OSM    H5G11380   2.754   5.344  10.281  0.2316  0.1743 -2.1084
  110OSM    C6F11381   2.819   5.502  10.150  0.2738 -0.5979  0.6296
  110OSM    H6F11382   2.893   5.584  10.153 -0.6008  0.1799  1.1130
  110OSM    H6G11383   2.729   5.563  10.128 -0.8162 -2.0929  0.8251
  110OSM    C7F11384   2.842   5.391  10.042 -0.2140  0.2960  0.2961
  110OSM    H7F11385   2.750   5.329  10.044  0.1727 -0.3070 -0.7518
  110OSM    H7G11386   2.930   5.333  10.077 -0.1027 -0.8298 -1.7975
  110OSM    C8F11387   2.885   5.438   9.903  0.0178  0.3677 -0.4104
  110OSM    H8F11388   2.923   5.353   9.843  2.9095  1.1727  0.2023
  110OSM    H8G11389   2.959   5.520   9.909  1.7473 -0.9881 -2.6092
  110OSM    C9F11390   2.762   5.503   9.838  0.1524  0.6643 -0.2970
  110OSM    H9F11391   2.670   5.506   9.898  0.0707  0.2582 -0.4025
  110OSM   C10F11392   2.750   5.522   9.704  0.6442  0.3884  0.0733
  110OSM   H10F11393   2.653   5.563   9.675  0.4521 -1.4216 -1.9536
  110OSM   C11F11394   2.845   5.471   9.598 -0.0834 -0.1799  0.5369
  110OSM   H11F11395   2.923   5.403   9.640 -1.8452 -1.5889  1.6397
  110OSM   H11G11396   2.914   5.548   9.558  1.3353 -2.0187 -0.6528
  110OSM   C12F11397   2.775   5.384   9.487  0.3815 -0.1683 -0.7508
  110OSM   H12F11398   2.714   5.311   9.544  1.0715  0.2614  0.5611
  110OSM   H12G11399   2.854   5.333   9.428  0.3913 -0.6131 -0.3521
  110OSM   C13F11400   2.682   5.449   9.384 -0.2355  0.5059 -0.1571
  110OSM   H13F11401   2.750   5.505   9.317 -0.7984 -0.4479 -1.5529
  110OSM   H13G11402   2.610   5.516   9.437  0.1173 -0.3962  1.4720
  110OSM   C14F11403   2.591   5.350   9.313 -0.8250  0.2883  0.1147
  110OSM   H14F11404   2.537   5.296   9.394  1.6528 -2.2807  0.1017
  110OSM   H14G11405   2.647   5.281   9.246 -2.0528 -0.1286 -0.4982
  110OSM   C15F11406   2.482   5.412   9.232 -0.0758  0.4041 -0.8713
  110OSM   H15F11407   2.411   5.465   9.298 -2.9753 -4.2846 -0.0520
  110OSM   H15G11408   2.426   5.336   9.174  3.0205 -1.9105 -0.9772
  110OSM   C16F11409   2.535   5.519   9.136  0.5400  0.4302 -0.0419
  110OSM   H16F11410   2.603   5.482   9.056  2.3883 -0.6603  1.9929
  110OSM   H16G11411   2.590   5.594   9.196  0.5982  0.6060 -0.3165
  110OSM   C17F11412   2.403   5.594   9.084 -0.8797  0.0080 -0.0837
  110OSM   H17F11413   2.451   5.687   9.047 -0.4599 -0.4785 -0.7717
  110OSM   H17G11414   2.333   5.608   9.169 -1.4515  2.0154 -0.8675
  110OSM   C18F11415   2.340   5.515   8.971  0.7039 -0.5860  0.0540
  110OSM   H18F11416   2.394   5.519   8.873  2.9076 -0.3547  1.2482
  110OSM   H18G11417   2.240   5.557   8.949  1.4574  1.1882 -0.1013
  110OSM   H18H11418   2.327   5.411   9.009  3.0672 -0.7900  0.4069
  111OSM      N11419   3.672   3.287  10.977 -0.5896  0.7231 -0.7397
  111OSM    C1511420   3.814   3.295  10.985 -0.4439 -0.0045 -0.3390
  111OSM   H15A11421   3.859   3.393  10.984  0.3331 -0.3486  0.6807
  111OSM   H15B11422   3.853   3.237  10.902 -1.2200 -1.4842  0.3057
  111OSM   H15C11423   3.862   3.245  11.068 -1.1137  1.6769  1.1015
  111OSM    C1411424   3.633   3.147  11.001  0.0502 -0.0215  0.3348
  111OSM   H14A11425   3.527   3.130  10.991  0.0358 -1.2369  2.2325
  111OSM   H14B11426   3.653   3.124  11.105 -0.2890 -3.2341 -0.2719
  111OSM   H14C11427   3.694   3.073  10.951 -0.8830 -0.6479  0.1233
  111OSM    C1311428   3.612   3.376  11.081  0.1289 -0.4639  0.2147
  111OSM   H13A11429   3.613   3.479  11.050  2.3196 -0.3339  0.6751
  111OSM   H13B11430   3.669   3.367  11.172  1.5798  1.9410 -0.4227
  111OSM   H13C11431   3.508   3.355  11.101  0.2602 -0.3115  1.0690
  111OSM    C1211432   3.606   3.327  10.842  0.5413 -0.4493  0.4029
  111OSM   H12A11433   3.509   3.285  10.823  0.1397  0.7121 -0.1716
  111OSM   H12B11434   3.657   3.277  10.760 -1.6900 -0.3155 -1.1065
  111OSM    C1111435   3.594   3.475  10.816 -0.0718 -0.4205  0.1008
  111OSM   H11A11436   3.520   3.526  10.881 -0.1234 -1.0731  0.5654
  111OSM   H11B11437   3.550   3.482  10.715 -1.1380  2.3631  0.7106
  111OSM      P11438   3.813   3.544  10.705 -0.0351 -0.4191  0.0353
  111OSM    O1311439   3.912   3.649  10.724 -0.0493  0.3844  0.4910
  111OSM    O1411440   3.867   3.404  10.704  0.3580 -0.3940  0.0609
  111OSM    O1111441   3.725   3.577  10.573  0.6460 -0.2907 -0.0538
  111OSM    O1211442   3.713   3.552  10.829 -0.7459 -0.3756  0.2883
  111OSM    C1S11443   3.653   3.703  10.565  0.3917 -0.1774 -0.0297
  111OSM    H1S11444   3.647   3.764  10.658 -0.3790  0.1500 -0.2937
  111OSM    H1T11445   3.547   3.685  10.538  0.9593 -1.8283 -1.2284
  111OSM     NF11446   3.658   3.913  10.445 -0.0649  0.9039 -0.1088
  111OSM    HNF11447   3.592   3.926  10.371  0.4152 -0.2622 -0.7579
  111OSM    C2S11448   3.714   3.781  10.450  0.0263  0.3527  0.7994
  111OSM    H2S11449   3.823   3.794  10.471  0.4095 -1.0879 -0.2676
  111OSM    C3S11450   3.695   3.707  10.319 -0.3356  0.5476 -0.2130
  111OSM    H3S11451   3.588   3.704  10.290  0.0832  1.2917 -1.9044
  111OSM     O311452   3.748   3.576  10.305  0.3832 -0.2430  0.2478
  111OSM    HO311453   3.737   3.542  10.394  3.1044 -0.5881  0.4839
  111OSM    C4S11454   3.772   3.775  10.208  0.5435  1.1811 -0.1378
  111OSM    H4S11455   3.881   3.774  10.222  0.3991 -0.9206  0.9501
  111OSM    C5S11456   3.716   3.837  10.104 -0.0765 -0.4451  0.3677
  111OSM    H5S11457   3.606   3.848  10.106 -0.1530 -1.2333  0.7148
  111OSM    C6S11458   3.791   3.902   9.993  0.3363  0.0364 -0.0577
  111OSM    H6S11459   3.900   3.900  10.013  0.0365 -2.0163  1.6094
  111OSM    H6T11460   3.751   4.005   9.992  0.3776  0.0552 -1.4817
  111OSM    C7S11461   3.760   3.837   9.862  0.8143 -0.8150 -0.0265
  111OSM    H7S11462   3.651   3.828   9.839  0.7846  2.6113 -1.4062
  111OSM    H7T11463   3.811   3.738   9.864  1.5130 -0.4930 -1.3948
  111OSM    C8S11464   3.832   3.903   9.742  0.2799  0.1668  0.3686
  111OSM    H8S11465   3.936   3.929   9.772  0.2404  0.1162  0.5503
  111OSM    H8T11466   3.774   3.997   9.735 -0.9320 -0.5936  0.0181
  111OSM    C9S11467   3.816   3.831   9.608 -0.5124  0.1290 -0.1246
  111OSM    H9S11468   3.718   3.860   9.567 -0.2435 -0.2004 -1.0064
  111OSM    H9T11469   3.821   3.720   9.617  0.6108  0.3347  2.3581
  111OSM   C10S11470   3.922   3.874   9.503  0.4538 -0.1372 -0.4764
  111OSM   H10S11471   4.020   3.833   9.538 -0.5541 -1.5920  0.7179
  111OSM   H10T11472   3.917   3.985   9.505  0.3520 -0.1414  3.2477
  111OSM   C11S11473   3.902   3.814   9.366 -0.5125  0.1257 -0.3717
  111OSM   H11S11474   3.795   3.821   9.337 -0.5896 -2.4324 -0.8452
  111OSM   H11T11475   3.924   3.707   9.390 -2.0368 -0.3781 -1.2019
  111OSM   C12S11476   3.986   3.882   9.255  0.3575  0.0058 -0.2570
  111OSM   H12S11477   4.092   3.894   9.285  0.6318 -1.0449 -0.7653
  111OSM   H12T11478   3.942   3.980   9.229  1.3748  1.0832  1.9856
  111OSM   C13S11479   3.991   3.804   9.115  0.3460 -0.1176  0.2212
  111OSM   H13S11480   3.888   3.786   9.077  0.4362 -0.6593  0.2316
  111OSM   H13T11481   4.023   3.700   9.135  1.3422 -0.1113 -1.2646
  111OSM   C14S11482   4.089   3.850   9.012 -0.2934 -0.0224 -0.0551
  111OSM   H14S11483   4.188   3.874   9.056 -1.5196  1.3525  2.0668
  111OSM   H14T11484   4.056   3.950   8.979  0.2889  1.2011  2.8727
  111OSM   C15S11485   4.109   3.758   8.888  0.6589  0.1354 -0.4269
  111OSM   H15S11486   4.031   3.778   8.812  1.6357 -1.0112 -1.7492
  111OSM   H15T11487   4.109   3.652   8.918  1.4529 -0.2564 -1.7549
  111OSM   C16S11488   4.236   3.782   8.811 -0.0759  0.0071 -0.4791
  111OSM   H16S11489   4.329   3.761   8.870  0.1047 -0.1059 -0.8051
  111OSM   H16T11490   4.243   3.888   8.779  0.8294 -0.3613 -1.5495
  111OSM   C17S11491   4.249   3.689   8.686 -0.7794 -0.0010 -0.2008
  111OSM   H17S11492   4.235   3.586   8.726 -0.6771 -0.0407 -0.2638
  111OSM   H17T11493   4.357   3.698   8.658 -0.7029 -0.8200 -0.2061
  111OSM   C18S11494   4.156   3.727   8.569 -0.5313 -0.0017 -0.3159
  111OSM   H18S11495   4.137   3.836   8.566  2.7563  0.6004 -1.6628
  111OSM   H18T11496   4.056   3.677   8.571 -0.0695 -0.9177  1.9788
  111OSM   H18U11497   4.193   3.684   8.474  0.1352  0.7159 -0.3821
  111OSM    C1F11498   3.694   4.013  10.528  0.4573 -0.1878 -0.7002
  111OSM     OF11499   3.773   3.999  10.615  0.0705 -0.6702 -0.0827
  111OSM    C2F11500   3.610   4.141  10.515  0.3001 -0.1452 -0.2535
  111OSM    H2F11501   3.575   4.172  10.616 -2.7436 -0.4130 -1.1903
  111OSM    H2G11502   3.516   4.112  10.464 -0.1493  1.5929 -0.4588
  111OSM    C3F11503   3.684   4.252  10.432 -0.2552  0.2746  0.3094
  111OSM    H3F11504   3.786   4.270  10.473 -0.2235  6.1928 -1.8579
  111OSM    H3G11505   3.631   4.349  10.445 -0.5498  0.1594 -0.0450
  111OSM    C4F11506   3.701   4.224  10.280  0.1565  0.0634  0.1735
  111OSM    H4F11507   3.611   4.175  10.237 -0.7671  1.4223  0.5261
  111OSM    H4G11508   3.787   4.155  10.272  1.6550  1.7102  1.5563
  111OSM    C5F11509   3.738   4.361  10.207  0.0674  0.2365 -0.3167
  111OSM    H5F11510   3.844   4.384  10.230 -0.6073  1.5721  1.5563
  111OSM    H5G11511   3.679   4.450  10.239 -1.0132 -1.4766  2.6073
  111OSM    C6F11512   3.742   4.335  10.054 -0.5332  1.0286  0.3872
  111OSM    H6F11513   3.645   4.301  10.013 -0.0679  1.8486 -1.4484
  111OSM    H6G11514   3.822   4.261  10.032  0.3236  2.2907 -0.8460
  111OSM    C7F11515   3.779   4.460   9.981 -0.2863 -0.3428  0.3936
  111OSM    H7F11516   3.885   4.482  10.005  0.2610 -2.0282 -0.4336
  111OSM    H7G11517   3.706   4.536  10.017 -0.3758 -0.9136  1.4208
  111OSM    C8F11518   3.785   4.439   9.831 -0.3068  0.4881 -0.0003
  111OSM    H8F11519   3.858   4.355   9.822 -0.6583 -0.0096  1.6160
  111OSM    H8G11520   3.824   4.533   9.786  1.3830 -0.1215  0.1375
  111OSM    C9F11521   3.660   4.398   9.762  0.6620 -0.2889  0.7008
  111OSM    H9F11522   3.626   4.294   9.775 -0.7002  0.0265 -0.2350
  111OSM   C10F11523   3.590   4.464   9.663 -0.0219  0.1638  0.5236
  111OSM   H10F11524   3.488   4.432   9.637 -0.3641 -0.4572  2.4704
  111OSM   C11F11525   3.627   4.593   9.599 -0.3188  0.5436 -0.9011
  111OSM   H11F11526   3.692   4.663   9.657 -1.5036  0.9889 -0.0828
  111OSM   H11G11527   3.531   4.644   9.575 -1.1866 -1.3594 -1.5604
  111OSM   C12F11528   3.699   4.578   9.456 -0.6406 -0.0448 -0.6448
  111OSM   H12F11529   3.647   4.506   9.389  0.8348 -3.2524  1.4950
  111OSM   H12G11530   3.798   4.533   9.480  0.0334  1.8980  0.2950
  111OSM   C13F11531   3.705   4.709   9.382  0.1497 -0.4583 -0.0168
  111OSM   H13F11532   3.770   4.783   9.432 -0.8786 -0.9403  2.0603
  111OSM   H13G11533   3.605   4.758   9.379  1.0387  1.4586  0.8638
  111OSM   C14F11534   3.746   4.695   9.233  0.3867  0.6366  0.4492
  111OSM   H14F11535   3.688   4.631   9.162  0.1906  1.9470 -0.5932
  111OSM   H14G11536   3.848   4.650   9.231  0.1115 -0.0066  0.6907
  111OSM   C15F11537   3.751   4.832   9.155 -0.2422  1.2336  0.0570
  111OSM   H15F11538   3.787   4.911   9.225  0.5757  0.6242  0.3367
  111OSM   H15G11539   3.647   4.854   9.125 -1.1830 -0.2839  2.1383
  111OSM   C16F11540   3.826   4.827   9.013 -0.1692 -0.5203 -0.3081
  111OSM   H16F11541   3.780   4.741   8.960 -0.8587 -0.7732  0.6960
  111OSM   H16G11542   3.935   4.806   9.022  0.1193  0.3062 -1.7903
  111OSM   C17F11543   3.806   4.960   8.937 -0.1965  0.0454  0.4226
  111OSM   H17F11544   3.827   5.044   9.006 -0.5054 -1.4642  2.3940
  111OSM   H17G11545   3.702   4.952   8.901 -0.9061  1.4334  2.0732
  111OSM   C18F11546   3.879   4.963   8.804  0.0436  0.2552 -0.6640
  111OSM   H18F11547   3.985   4.977   8.834  0.3149 -0.6592 -1.1873
  111OSM   H18G11548   3.842   5.043   8.735 -0.9177 -0.6697 -1.2360
  111OSM   H18H11549   3.854   4.868   8.752 -1.2095 -0.0997  0.5565
  112OSM      N11550   3.333   2.119  11.081 -0.3156 -0.7347 -0.1929
  112OSM    C1511551   3.314   2.032  11.191  0.4499 -0.3875  0.4385
  112OSM   H15A11552   3.243   1.951  11.180 -0.6540  0.8914 -2.2295
  112OSM   H15B11553   3.289   2.083  11.282  0.0514  0.9440 -0.4092
  112OSM   H15C11554   3.412   1.988  11.204 -0.2549 -2.3328 -0.6821
  112OSM    C1411555   3.192   2.168  11.027 -0.1478  0.1086  0.4638
  112OSM   H14A11556   3.141   2.214  11.110  0.6410 -0.2596  1.1509
  112OSM   H14B11557   3.143   2.081  10.985  1.5786 -1.5447  1.8406
  112OSM   H14C11558   3.204   2.244  10.950  0.7016 -0.0905  0.3928
  112OSM    C1311559   3.400   2.245  11.121 -0.6096 -0.1500 -0.1236
  112OSM   H13A11560   3.332   2.298  11.186  1.1967  0.3467  1.4429
  112OSM   H13B11561   3.418   2.304  11.033 -1.5673 -0.8823 -0.8116
  112OSM   H13C11562   3.490   2.228  11.180 -1.2853  2.7499  1.8665
  112OSM    C1211563   3.413   2.045  10.970  0.1484  0.0929 -0.3299
  112OSM   H12A11564   3.508   2.010  11.007 -0.7677 -1.9325  0.1802
  112OSM   H12B11565   3.432   2.127  10.903  1.4367  0.1830  0.1381
  112OSM    C1111566   3.357   1.932  10.895 -0.0942 -0.3084  0.6459
  112OSM   H11A11567   3.299   1.862  10.959 -0.8790 -0.9252 -0.7010
  112OSM   H11B11568   3.438   1.869  10.851  0.3302  0.7950 -0.1553
  112OSM      P11569   3.335   2.038  10.664 -0.1546 -0.0925 -0.2570
  112OSM    O1311570   3.239   2.117  10.590  0.1735  0.1179 -0.0249
  112OSM    O1411571   3.469   2.099  10.688 -0.3930  0.5960  0.7107
  112OSM    O1111572   3.354   1.904  10.580  0.2656 -0.3712  0.2956
  112OSM    O1211573   3.271   1.990  10.797 -0.1888 -0.0069 -0.2188
  112OSM    C1S11574   3.244   1.816  10.574 -0.1923  0.1344 -0.0915
  112OSM    H1S11575   3.146   1.868  10.566 -0.1572  0.4119  1.1539
  112OSM    H1T11576   3.237   1.754  10.667 -0.1275  2.1721  1.2992
  112OSM     NF11577   3.156   1.648  10.414 -0.0038  0.6256  0.5243
  112OSM    HNF11578   3.153   1.549  10.429  0.6398  1.0897  4.0953
  112OSM    C2S11579   3.270   1.720  10.455 -0.3317  0.1265  0.0599
  112OSM    H2S11580   3.303   1.783  10.369 -0.6050 -1.0217 -0.9042
  112OSM    C3S11581   3.387   1.621  10.500 -0.1361  0.2745  0.3564
  112OSM    H3S11582   3.342   1.574  10.589  1.5819 -0.4008  0.8927
  112OSM     O311583   3.504   1.692  10.521  0.4837  0.0116 -0.3512
  112OSM    HO311584   3.466   1.778  10.539 -2.2065 -1.1834 -0.0828
  112OSM    C4S11585   3.413   1.524  10.386 -0.4163 -0.7540 -0.1019
  112OSM    H4S11586   3.368   1.424  10.398  1.5760 -1.5190  1.2313
  112OSM    C5S11587   3.484   1.546  10.273 -0.3218  0.0173  0.7387
  112OSM    H5S11588   3.534   1.643  10.264  1.3199 -0.7107  1.6652
  112OSM    C6S11589   3.506   1.446  10.162  0.2585  0.3146  0.1380
  112OSM    H6S11590   3.604   1.398  10.184 -0.5062 -1.7461 -0.7893
  112OSM    H6T11591   3.518   1.499  10.065 -3.7932 -0.1857 -0.7045
  112OSM    C7S11592   3.399   1.336  10.127 -0.3043 -0.0786  0.3487
  112OSM    H7S11593   3.382   1.281  10.222  2.3043 -2.0426 -0.2596
  112OSM    H7T11594   3.445   1.266  10.054  0.4814 -0.5895  1.3224
  112OSM    C8S11595   3.268   1.402  10.082 -0.1524 -0.5976 -0.1050
  112OSM    H8S11596   3.294   1.477  10.004  2.6669 -1.4692 -0.0349
  112OSM    H8T11597   3.213   1.455  10.163 -0.4028 -1.5819  0.3751
  112OSM    C9S11598   3.178   1.293  10.005  0.5677  0.2152 -0.2147
  112OSM    H9S11599   3.090   1.356   9.982 -0.6332 -1.3992 -0.1350
  112OSM    H9T11600   3.139   1.211  10.069 -0.9552 -1.8482 -3.6431
  112OSM   C10S11601   3.240   1.236   9.871  0.4202  0.4260 -0.1424
  112OSM   H10S11602   3.159   1.169   9.836  1.6063 -0.9857 -0.2163
  112OSM   H10T11603   3.326   1.172   9.899  0.5474 -0.4293 -2.3330
  112OSM   C11S11604   3.261   1.335   9.750  0.1054  0.3316 -0.1108
  112OSM   H11S11605   3.326   1.417   9.788  1.9824 -1.8564  1.5503
  112OSM   H11T11606   3.164   1.377   9.716 -0.8590  0.2708  2.4600
  112OSM   C12S11607   3.340   1.266   9.636 -0.7033  0.6324 -0.2809
  112OSM   H12S11608   3.277   1.187   9.591  0.4529  0.2143 -1.1908
  112OSM   H12T11609   3.432   1.227   9.684 -1.1711  0.0788  0.1634
  112OSM   C13S11610   3.380   1.365   9.527  0.2256 -0.2251  0.1255
  112OSM   H13S11611   3.468   1.428   9.553 -0.5549  1.0678 -0.3713
  112OSM   H13T11612   3.288   1.424   9.512 -0.6286 -1.6054 -0.2018
  112OSM   C14S11613   3.429   1.299   9.399  0.2551 -0.1542  0.5800
  112OSM   H14S11614   3.349   1.232   9.361 -1.3354  1.3834  1.1935
  112OSM   H14T11615   3.524   1.243   9.412  0.7178 -0.2949 -2.8484
  112OSM   C15S11616   3.448   1.399   9.282  0.1362  0.1865  0.1733
  112OSM   H15S11617   3.524   1.476   9.306 -0.4022  0.3410  1.4285
  112OSM   H15T11618   3.349   1.441   9.252 -0.3500 -1.0244  0.0500
  112OSM   C16S11619   3.500   1.324   9.154 -0.2417 -0.0564 -0.5635
  112OSM   H16S11620   3.592   1.265   9.171 -0.5672 -0.1840  0.7672
  112OSM   H16T11621   3.518   1.399   9.074 -2.9771 -0.3910 -1.5474
  112OSM   C17S11622   3.402   1.213   9.098 -0.6781 -0.0837 -0.8081
  112OSM   H17S11623   3.413   1.118   9.155 -0.9867  0.7452  0.6747
  112OSM   H17T11624   3.431   1.184   8.995  0.1810 -2.1475 -0.0179
  112OSM   C18S11625   3.249   1.250   9.086 -0.5427 -0.0925  0.2698
  112OSM   H18S11626   3.212   1.322   9.162  1.2035  3.0382 -1.7400
  112OSM   H18T11627   3.181   1.164   9.070  1.8864 -1.9193 -0.5026
  112OSM   H18U11628   3.249   1.316   8.996  3.4348 -1.4762 -0.8815
  112OSM    C1F11629   3.047   1.707  10.363  0.1206  0.4599 -0.2722
  112OSM     OF11630   3.056   1.827  10.354  0.4881 -0.2910 -0.4811
  112OSM    C2F11631   2.921   1.636  10.325  0.0611 -0.3120  0.6006
  112OSM    H2F11632   2.842   1.666  10.397  1.4778  1.6799  1.3647
  112OSM    H2G11633   2.922   1.525  10.339 -0.1289 -0.6270 -1.6718
  112OSM    C3F11634   2.867   1.675  10.190  0.3625  0.5011 -0.1154
  112OSM    H3F11635   2.851   1.783  10.206 -0.1534  0.5464 -0.9021
  112OSM    H3G11636   2.772   1.625  10.159 -0.4191  1.6877  0.3312
  112OSM    C4F11637   2.956   1.665  10.066  0.4850  0.4664  0.1165
  112OSM    H4F11638   2.992   1.561  10.056  1.0436  0.7039 -0.3936
  112OSM    H4G11639   3.048   1.723  10.089  1.4977 -0.4569 -1.5680
  112OSM    C5F11640   2.890   1.719   9.941  0.0416  0.5190 -0.0060
  112OSM    H5F11641   2.860   1.826   9.950 -1.6722  0.1494 -1.2008
  112OSM    H5G11642   2.800   1.662   9.911 -0.4901  0.4435  1.6787
  112OSM    C6F11643   2.990   1.712   9.817  0.3982  0.2159  0.1520
  112OSM    H6F11644   3.052   1.620   9.814 -0.5780 -0.4268 -1.7500
  112OSM    H6G11645   3.071   1.786   9.830 -0.2202  0.7862  0.8027
  112OSM    C7F11646   2.917   1.738   9.691  0.6540 -0.4528  0.3290
  112OSM    H7F11647   2.848   1.825   9.699 -0.1798 -0.7324 -3.1358
  112OSM    H7G11648   2.859   1.648   9.663  1.8360 -0.8777 -0.7979
  112OSM    C8F11649   3.010   1.749   9.563  0.4655 -0.0013 -0.1813
  112OSM    H8F11650   3.060   1.654   9.531  1.8863  1.3049 -1.9658
  112OSM    H8G11651   3.095   1.805   9.608  0.8452 -0.9538  0.3049
  112OSM    C9F11652   2.943   1.833   9.459 -0.0890  0.7188 -0.2433
  112OSM    H9F11653   2.873   1.907   9.499  0.1085  0.3472  0.8106
  112OSM   C10F11654   2.973   1.824   9.329 -0.3732  0.0221 -0.1658
  112OSM   H10F11655   2.936   1.899   9.257  2.2377 -1.0705 -2.7110
  112OSM   C11F11656   3.071   1.733   9.257  0.0228 -0.3075 -0.7443
  112OSM   H11F11657   3.153   1.694   9.320 -0.3307  1.2013  0.6680
  112OSM   H11G11658   3.124   1.789   9.177 -0.3369  1.0638 -0.0459
  112OSM   C12F11659   3.001   1.627   9.177  1.0267  0.2957 -0.0832
  112OSM   H12F11660   2.907   1.669   9.134  1.6920  2.0778  0.2033
  112OSM   H12G11661   2.973   1.553   9.256  1.0570  0.5551  0.1685
  112OSM   C13F11662   3.091   1.554   9.082  0.0639 -0.2287  0.1474
  112OSM   H13F11663   3.054   1.451   9.062  2.6242 -0.5787 -3.0905
  112OSM   H13G11664   3.180   1.533   9.145 -0.7351 -0.8208  1.0960
  112OSM   C14F11665   3.132   1.617   8.948 -0.1903 -0.4930  0.4609
  112OSM   H14F11666   3.222   1.562   8.915 -1.2827 -1.5028 -0.9356
  112OSM   H14G11667   3.166   1.719   8.975  1.0248  0.2461 -3.4142
  112OSM   C15F11668   3.023   1.625   8.839  0.5092 -0.1062  0.6088
  112OSM   H15F11669   2.935   1.671   8.891  0.4392  0.7445 -0.2371
  112OSM   H15G11670   2.986   1.526   8.805  3.4503 -1.6709  1.8771
  112OSM   C16F11671   3.056   1.717   8.722  0.1305  0.6279  0.4883
  112OSM   H16F11672   3.132   1.660   8.664 -2.5262 -0.6060 -1.8700
  112OSM   H16G11673   3.099   1.811   8.763 -3.1323  2.2326  0.3954
  112OSM   C17F11674   2.936   1.754   8.630  0.0142 -0.0305  0.4114
  112OSM   H17F11675   2.898   1.668   8.571  1.2553  1.0591 -2.0451
  112OSM   H17G11676   2.970   1.827   8.554  0.7736 -3.4465 -2.6401
  112OSM   C18F11677   2.827   1.817   8.713  0.2567  0.5205  0.0436
  112OSM   H18F11678   2.734   1.825   8.652 -1.3012 -1.7721  2.0102
  112OSM   H18G11679   2.868   1.903   8.770 -1.2523  0.6086  1.0178
  112OSM   H18H11680   2.785   1.744   8.785  0.2668  1.5954  1.1623
  113OSM      N11681   3.491   1.402  11.026 -0.2690 -0.0614 -0.3229
  113OSM    C1511682   3.612   1.412  11.119  0.0084 -0.2768 -0.5006
  113OSM   H15A11683   3.638   1.315  11.160 -1.9331  1.0169  4.0286
  113OSM   H15B11684   3.596   1.484  11.197 -2.0118 -0.1196 -1.0341
  113OSM   H15C11685   3.688   1.443  11.049 -0.5747 -0.5914 -1.2752
  113OSM    C1411686   3.387   1.314  11.087 -0.7179  0.5717  0.1688
  113OSM   H14A11687   3.363   1.360  11.182 -0.8543 -0.9510  0.8981
  113OSM   H14B11688   3.428   1.217  11.110  1.1610  1.3255  0.0375
  113OSM   H14C11689   3.297   1.311  11.028 -1.8082  0.9335  1.7683
  113OSM    C1311690   3.432   1.539  11.011  0.6757  0.4095  0.4475
  113OSM   H13A11691   3.394   1.569  11.108  0.5933  0.5178  0.3820
  113OSM   H13B11692   3.352   1.530  10.939 -0.7470  0.5369  1.9534
  113OSM   H13C11693   3.498   1.606  10.959  1.1346 -1.5700 -1.5976
  113OSM    C1211694   3.542   1.354  10.884 -0.6304 -0.0276 -0.1703
  113OSM   H12A11695   3.597   1.263  10.900 -2.3649 -0.8851  1.0121
  113OSM   H12B11696   3.608   1.430  10.845 -1.4426  1.7906  1.9012
  113OSM    C1111697   3.427   1.328  10.787  0.7013  0.2765 -0.9287
  113OSM   H11A11698   3.479   1.298  10.693  3.9737 -0.5385  1.0458
  113OSM   H11B11699   3.357   1.411  10.761  0.1017 -0.3253 -1.2555
  113OSM      P11700   3.198   1.178  10.785 -0.2742  0.0845 -0.1624
  113OSM    O1311701   3.140   1.130  10.910  0.8394  0.3146 -0.5687
  113OSM    O1411702   3.139   1.294  10.721 -0.0437 -0.4945  0.0058
  113OSM    O1111703   3.184   1.051  10.686  0.0105 -0.3153 -0.0990
  113OSM    O1211704   3.356   1.204  10.814  0.0726  0.5647 -0.0257
  113OSM    C1S11705   3.309   0.985  10.650  0.1146 -0.4566  0.2386
  113OSM    H1S11706   3.323   0.908  10.728 -0.4863 -0.2674  0.5344
  113OSM    H1T11707   3.400   1.048  10.643 -1.8467  2.9884  3.5128
  113OSM     NF11708   3.432   0.833  10.486  0.5827  0.3006  0.4299
  113OSM    HNF11709   3.499   0.868  10.422 -1.0534  2.1553 -0.3209
  113OSM    C2S11710   3.313   0.915  10.506  0.3074 -0.1782  0.2301
  113OSM    H2S11711   3.230   0.843  10.489 -0.9039  1.5250 -1.3308
  113OSM    C3S11712   3.286   1.034  10.403  0.0941 -0.4894  0.6451
  113OSM    H3S11713   3.347   1.127  10.414 -1.0198  0.0046  3.0951
  113OSM     O311714   3.158   1.088  10.415 -0.3902  0.0096 -0.1808
  113OSM    HO311715   3.125   1.072  10.503 -0.2325  2.0955  0.2987
  113OSM    C4S11716   3.306   0.976  10.268 -0.8398 -0.0119  0.5971
  113OSM    H4S11717   3.401   1.006  10.222 -1.3108  1.0885  0.3260
  113OSM    C5S11718   3.212   0.917  10.191 -0.0647  0.2499 -0.4849
  113OSM    H5S11719   3.107   0.915  10.222  0.2909  0.6266  0.7980
  113OSM    C6S11720   3.233   0.876  10.054  0.1153 -0.0788 -0.6964
  113OSM    H6S11721   3.259   0.768  10.051  2.4727  0.4303 -0.0812
  113OSM    H6T11722   3.322   0.924  10.007  1.7810 -0.6568  1.7863
  113OSM    C7S11723   3.098   0.885   9.978  0.0576 -0.1797  0.0186
  113OSM    H7S11724   3.067   0.991   9.987 -0.7989 -0.3680 -0.6822
  113OSM    H7T11725   3.028   0.814  10.028 -0.2904  0.1660  0.0240
  113OSM    C8S11726   3.114   0.849   9.828 -0.4363  0.4661  0.1133
  113OSM    H8S11727   3.187   0.766   9.812 -0.7841 -0.0156  0.9659
  113OSM    H8T11728   3.162   0.935   9.778 -1.4718  0.3713 -1.0671
  113OSM    C9S11729   2.981   0.813   9.769 -0.2242 -0.2464  0.6386
  113OSM    H9S11730   2.903   0.888   9.794  1.0903  0.5525  2.4506
  113OSM    H9T11731   2.948   0.725   9.827  1.8177 -1.6368 -0.2698
  113OSM   C10S11732   2.988   0.790   9.617 -0.3047 -0.4187 -0.2800
  113OSM   H10S11733   3.081   0.730   9.605  0.2997  0.5651 -0.5211
  113OSM   H10T11734   3.003   0.889   9.570 -0.6246 -0.2822 -0.0986
  113OSM   C11S11735   2.865   0.717   9.564 -0.0702 -0.0738 -0.0603
  113OSM   H11S11736   2.775   0.782   9.569  0.2211  0.2124  2.1570
  113OSM   H11T11737   2.846   0.619   9.613  0.8906  1.1108  2.7892
  113OSM   C12S11738   2.870   0.690   9.414  0.2216  0.3334  0.0864
  113OSM   H12S11739   2.960   0.634   9.379  0.4758  1.4680 -1.1460
  113OSM   H12T11740   2.873   0.790   9.364  1.7177  1.1127  1.6806
  113OSM   C13S11741   2.745   0.624   9.359  0.8543 -0.3494 -0.1002
  113OSM   H13S11742   2.661   0.698   9.361  0.1711 -1.1095 -0.3607
  113OSM   H13T11743   2.718   0.546   9.433 -1.9483 -1.4732 -2.2105
  113OSM   C14S11744   2.775   0.567   9.214  0.2957  0.0808 -0.2238
  113OSM   H14S11745   2.866   0.508   9.234 -0.6870 -0.7134  2.0829
  113OSM   H14T11746   2.808   0.648   9.145 -0.5057  0.5573 -0.0539
  113OSM   C15S11747   2.656   0.488   9.152 -0.1254 -0.9801 -0.0395
  113OSM   H15S11748   2.581   0.565   9.123  1.7965  0.5040 -1.1602
  113OSM   H15T11749   2.595   0.423   9.219  0.2284  0.1755  1.4297
  113OSM   C16S11750   2.700   0.400   9.036  0.3267 -0.0755 -0.0554
  113OSM   H16S11751   2.777   0.327   9.068  1.4415  0.5290 -1.3012
  113OSM   H16T11752   2.747   0.468   8.963 -0.0349 -0.6883 -0.8674
  113OSM   C17S11753   2.591   0.311   8.976  0.3826 -0.0648 -0.3341
  113OSM   H17S11754   2.495   0.366   8.960  0.3710 -0.1693 -0.6290
  113OSM   H17T11755   2.563   0.245   9.060 -0.2008  0.4126 -0.1482
  113OSM   C18S11756   2.637   0.239   8.849  0.2376 -0.3947 -0.0539
  113OSM   H18S11757   2.560   0.163   8.823  2.4442 -2.4866 -0.6407
  113OSM   H18T11758   2.725   0.175   8.869  0.7759  0.6344  0.9662
  113OSM   H18U11759   2.660   0.304   8.762 -0.9775 -0.8173 -0.7037
  113OSM    C1F11760   3.460   0.719  10.554 -0.1718 -0.1150 -0.0206
  113OSM     OF11761   3.381   0.679  10.637  0.0830 -0.3008  0.3135
  113OSM    C2F11762   3.594   0.653  10.526  0.0637 -0.3712  0.1527
  113OSM    H2F11763   3.641   0.632  10.624 -0.0928 -1.8516 -0.0856
  113OSM    H2G11764   3.653   0.723  10.462 -0.0372 -1.2658 -0.9227
  113OSM    C3F11765   3.587   0.517  10.451 -0.3498 -0.1007 -0.8087
  113OSM    H3F11766   3.526   0.445  10.510 -0.3160 -0.7217 -1.5281
  113OSM    H3G11767   3.690   0.475  10.442  0.2490  1.3710 -1.1363
  113OSM    C4F11768   3.520   0.536  10.315 -0.4937  0.9953 -0.6007
  113OSM    H4F11769   3.421   0.581  10.336 -0.6278  0.8585 -0.9354
  113OSM    H4G11770   3.513   0.438  10.264 -0.6316  1.6963 -1.9494
  113OSM    C5F11771   3.597   0.638  10.232 -0.0281  0.0478  0.9339
  113OSM    H5F11772   3.701   0.645  10.268  0.0064 -1.2832  1.1346
  113OSM    H5G11773   3.542   0.735  10.229  1.4761  0.9051 -4.0193
  113OSM    C6F11774   3.610   0.602  10.087 -0.1429 -0.2154 -0.5537
  113OSM    H6F11775   3.629   0.493  10.078 -0.0854 -0.3253  0.8454
  113OSM    H6G11776   3.682   0.670  10.036 -0.8045 -0.9643 -2.5641
  113OSM    C7F11777   3.476   0.623  10.019 -0.1874  0.2676 -0.2428
  113OSM    H7F11778   3.439   0.728  10.010 -0.7608  0.0321 -0.6411
  113OSM    H7G11779   3.396   0.576  10.080  0.1114 -2.0729 -1.5958
  113OSM    C8F11780   3.471   0.556   9.877  0.2439  0.3167  0.1968
  113OSM    H8F11781   3.366   0.570   9.845  0.2753 -0.5123 -0.2656
  113OSM    H8G11782   3.478   0.448   9.901 -0.1501  0.2609  0.0567
  113OSM    C9F11783   3.578   0.602   9.779  0.8954 -0.4690 -0.3279
  113OSM    H9F11784   3.675   0.550   9.786  1.8752  1.2053 -1.0708
  113OSM   C10F11785   3.575   0.716   9.705  0.8046 -0.0089 -0.1165
  113OSM   H10F11786   3.665   0.741   9.646  0.2624  1.2332 -0.4184
  113OSM   C11F11787   3.461   0.813   9.678  0.6849 -0.1692 -0.6208
  113OSM   H11F11788   3.478   0.912   9.726 -1.3987 -0.3034  0.4503
  113OSM   H11G11789   3.367   0.769   9.717  1.0578  0.2136  0.7438
  113OSM   C12F11790   3.453   0.827   9.521  0.4486  0.1215 -0.3831
  113OSM   H12F11791   3.433   0.727   9.478  0.3715  0.5254 -1.2992
  113OSM   H12G11792   3.549   0.865   9.479  0.7445 -0.5718 -0.3379
  113OSM   C13F11793   3.340   0.924   9.472 -0.1986  0.2970 -0.1387
  113OSM   H13F11794   3.371   1.026   9.501 -1.0387  0.6906 -0.6074
  113OSM   H13G11795   3.252   0.898   9.535  2.0590 -2.4747  2.0537
  113OSM   C14F11796   3.304   0.903   9.328  0.0456 -0.6442 -0.0728
  113OSM   H14F11797   3.398   0.886   9.271  1.2800  0.3418  1.6415
  113OSM   H14G11798   3.261   0.990   9.275 -1.7582 -1.6095 -0.2416
  113OSM   C15F11799   3.221   0.773   9.296  0.6148 -0.0409  0.2900
  113OSM   H15F11800   3.138   0.773   9.370 -1.0774  0.8318 -1.5729
  113OSM   H15G11801   3.276   0.677   9.303  0.5137  0.0151  2.0365
  113OSM   C16F11802   3.145   0.764   9.156  0.2025  0.2138 -0.6469
  113OSM   H16F11803   3.078   0.851   9.148 -0.9838 -0.5918  0.3814
  113OSM   H16G11804   3.075   0.678   9.161  1.3713 -0.6871  0.8772
  113OSM   C17F11805   3.234   0.752   9.032 -0.8232 -0.1934  0.3294
  113OSM   H17F11806   3.316   0.683   9.063 -1.0254 -0.9679 -0.8400
  113OSM   H17G11807   3.275   0.852   9.007 -2.5063  0.4425  0.0875
  113OSM   C18F11808   3.157   0.693   8.913 -0.2059  0.7594 -0.6094
  113OSM   H18F11809   3.106   0.598   8.943  2.4645  0.3987  3.1449
  113OSM   H18G11810   3.225   0.649   8.838 -1.1415 -1.2155 -0.3570
  113OSM   H18H11811   3.081   0.762   8.871 -1.2478 -0.3420 -0.5838
  114OSM      N11812   4.707   5.941  11.345  0.5271 -0.9090 -0.9560
  114OSM    C1511813   4.820   5.844  11.363 -0.8896  0.1346 -0.9869
  114OSM   H15A11814   4.788   5.759  11.421 -0.5495 -0.4562 -1.6472
  114OSM   H15B11815   4.913   5.880  11.403 -0.5824 -0.2485 -1.3570
  114OSM   H15C11816   4.851   5.798  11.270 -0.0414  0.3770 -0.8262
  114OSM    C1411817   4.751   6.029  11.233 -0.3711 -0.7167 -1.1028
  114OSM   H14A11818   4.772   5.972  11.143  0.4779 -0.1592 -1.2732
  114OSM   H14B11819   4.839   6.088  11.256 -0.9116  0.4129 -1.8641
  114OSM   H14C11820   4.669   6.096  11.210 -0.2229 -0.8345 -2.0085
  114OSM    C1311821   4.577   5.879  11.302 -0.1268 -0.3071 -0.2832
  114OSM   H13A11822   4.546   5.806  11.375  0.8637 -0.0763  0.3825
  114OSM   H13B11823   4.591   5.820  11.214  0.5145  0.3743 -0.6463
  114OSM   H13C11824   4.498   5.951  11.288  0.5458  0.3416 -0.7710
  114OSM    C1211825   4.681   6.021  11.477  0.6106 -0.2755 -0.7982
  114OSM   H12A11826   4.641   5.955  11.551 -0.0281  0.3341 -0.5956
  114OSM   H12B11827   4.601   6.090  11.458 -0.6863 -1.6088 -0.2208
  114OSM    C1111828   4.802   6.097  11.548 -0.1665 -0.1738  0.7712
  114OSM   H11A11829   4.884   6.025  11.566 -2.1374 -1.9068  3.2193
  114OSM   H11B11830   4.767   6.142  11.643 -1.1911 -0.0858  0.3607
  114OSM      P11831   4.775   6.330  11.440  0.7108  0.1852 -0.0068
  114OSM    O1311832   4.644   6.323  11.505 -0.4903 -0.3590 -0.6610
  114OSM    O1411833   4.848   6.451  11.465  0.1843 -0.4143  0.5945
  114OSM    O1111834   4.756   6.329  11.284  0.3112 -0.8134 -0.5680
  114OSM    O1211835   4.860   6.199  11.472  0.4689 -0.8236  0.2845
  114OSM    C1S11836   4.868   6.325  11.191 -0.3588 -0.3533 -0.5353
  114OSM    H1S11837   4.932   6.239  11.219 -0.3471  0.2710  1.4225
  114OSM    H1T11838   4.945   6.402  11.215 -1.4104  0.1191  1.4074
  114OSM     NF11839   4.950   6.291  10.951 -0.7943  0.7271  0.0155
  114OSM    HNF11840   4.986   6.366  10.897  3.1437 -1.6587 -0.8653
  114OSM    C2S11841   4.833   6.309  11.036 -0.9525  0.4984 -0.6008
  114OSM    H2S11842   4.769   6.219  11.025 -0.0606 -0.7857  3.7436
  114OSM    C3S11843   4.742   6.436  11.002 -0.0166 -0.1920 -0.1247
  114OSM    H3S11844   4.800   6.528  11.023  1.7267 -0.8209 -1.9791
  114OSM     O311845   4.630   6.450  11.090  0.2124  0.6608 -0.0479
  114OSM    HO311846   4.652   6.405  11.171  1.9535  1.2196 -0.1864
  114OSM    C4S11847   4.714   6.437  10.852 -0.0960 -0.6112 -0.6828
  114OSM    H4S11848   4.765   6.520  10.800 -1.3113  1.1348  0.8531
  114OSM    C5S11849   4.633   6.355  10.783 -0.2697 -0.7504  0.3249
  114OSM    H5S11850   4.584   6.270  10.835  0.4571 -0.0319  2.2211
  114OSM    C6S11851   4.604   6.369  10.639 -0.1259 -0.0585  0.2354
  114OSM    H6S11852   4.494   6.376  10.623 -0.6701  0.7936  3.9569
  114OSM    H6T11853   4.653   6.290  10.579  0.4549  2.1107 -2.2522
  114OSM    C7S11854   4.656   6.492  10.565  0.2899  0.2415  0.5290
  114OSM    H7S11855   4.767   6.485  10.564  0.2705 -0.0744  0.5471
  114OSM    H7T11856   4.629   6.586  10.617  2.0882 -0.0879  2.1602
  114OSM    C8S11857   4.605   6.498  10.417 -0.8612  0.2715  0.5895
  114OSM    H8S11858   4.494   6.499  10.420 -0.8737  0.2177  0.2338
  114OSM    H8T11859   4.631   6.401  10.369 -2.9363 -0.2144  0.3613
  114OSM    C9S11860   4.674   6.609  10.339  0.6701  0.0704 -0.0984
  114OSM    H9S11861   4.625   6.599  10.240 -0.6461  0.8148  0.4727
  114OSM    H9T11862   4.783   6.585  10.338  0.2790 -1.7849 -0.6879
  114OSM   C10S11863   4.638   6.752  10.383  0.0393 -0.2474  0.2696
  114OSM   H10S11864   4.663   6.770  10.490  1.3014  1.1112 -0.2292
  114OSM   H10T11865   4.530   6.778  10.378  0.5005  1.5203 -0.8239
  114OSM   C11S11866   4.703   6.866  10.300  0.1013 -0.1662 -0.5493
  114OSM   H11S11867   4.813   6.850  10.302  0.2890  0.8940 -1.5212
  114OSM   H11T11868   4.679   6.962  10.349 -1.0891 -0.5447 -0.3834
  114OSM   C12S11869   4.649   6.862  10.162  0.1341  0.1270  0.6790
  114OSM   H12S11870   4.543   6.895  10.158 -0.1201 -0.7975 -0.5648
  114OSM   H12T11871   4.662   6.761  10.118  0.4340  0.3058  0.3501
  114OSM   C13S11872   4.714   6.963  10.059  0.3271 -0.3063  0.0998
  114OSM   H13S11873   4.823   6.963  10.080  0.3665  2.2634  0.0500
  114OSM   H13T11874   4.676   7.066  10.074  2.5109  0.8489 -1.9303
  114OSM   C14S11875   4.691   6.906   9.919  0.1749 -0.0776 -0.3410
  114OSM   H14S11876   4.587   6.869   9.906  0.5854 -0.6592 -2.1311
  114OSM   H14T11877   4.742   6.808   9.903  2.6182  1.3241 -1.4045
  114OSM   C15S11878   4.751   6.994   9.807 -0.6229 -0.5639  0.1951
  114OSM   H15S11879   4.848   7.033   9.845 -1.1303 -0.8703  1.8462
  114OSM   H15T11880   4.685   7.081   9.785  3.0278  1.8454 -1.7791
  114OSM   C16S11881   4.770   6.926   9.666 -0.1384 -0.2700  0.4825
  114OSM   H16S11882   4.670   6.891   9.634 -1.0217  0.6153  2.2486
  114OSM   H16T11883   4.834   6.836   9.655 -0.6674 -0.5149 -0.7727
  114OSM   C17S11884   4.811   7.031   9.562 -0.2966 -0.3226  0.1950
  114OSM   H17S11885   4.912   7.066   9.590 -0.3271  0.1987 -0.3265
  114OSM   H17T11886   4.738   7.115   9.561  0.7648  0.6004 -0.4120
  114OSM   C18S11887   4.822   6.966   9.425  0.0713  0.2612  1.0434
  114OSM   H18S11888   4.888   6.877   9.421 -1.3738 -0.7487 -1.6281
  114OSM   H18T11889   4.865   7.046   9.360  0.5782  0.2357  1.3484
  114OSM   H18U11890   4.724   6.942   9.380  1.1887 -0.7846 -0.9204
  114OSM    C1F11891   5.019   6.180  10.930 -0.5639  0.8343  0.2960
  114OSM     OF11892   5.001   6.084  11.005 -0.1501  0.4045  0.4682
  114OSM    C2F11893   5.116   6.172  10.814  0.4876  0.0981 -0.1376
  114OSM    H2F11894   5.221   6.144  10.839 -0.2127 -1.5952  0.9972
  114OSM    H2G11895   5.118   6.267  10.756 -3.3829 -0.6679 -1.6911
  114OSM    C3F11896   5.069   6.060  10.722  0.8647 -0.1527  0.1385
  114OSM    H3F11897   4.965   6.079  10.687 -0.0628 -1.7378  1.9308
  114OSM    H3G11898   5.070   5.962  10.774  1.3340 -1.1020 -1.6517
  114OSM    C4F11899   5.171   6.036  10.608 -0.5564 -0.6890  0.8976
  114OSM    H4F11900   5.127   5.961  10.539  1.4780 -1.8134  0.7938
  114OSM    H4G11901   5.262   5.997  10.659  2.5877  3.1735 -1.4185
  114OSM    C5F11902   5.226   6.159  10.533 -0.6683 -0.2201 -0.0815
  114OSM    H5F11903   5.297   6.131  10.452 -2.2705 -3.1810 -0.5473
  114OSM    H5G11904   5.291   6.225  10.595 -2.0599  1.7093 -0.6385
  114OSM    C6F11905   5.122   6.238  10.459  0.1265 -0.2853 -0.0419
  114OSM    H6F11906   5.066   6.285  10.543  2.3160 -0.0308  1.3335
  114OSM    H6G11907   5.059   6.164  10.407 -0.5600 -0.0866  0.4946
  114OSM    C7F11908   5.181   6.345  10.370  0.0634  0.6006  0.2673
  114OSM    H7F11909   5.229   6.296  10.283  1.7731  0.0336  1.5030
  114OSM    H7G11910   5.256   6.406  10.425  0.5082  1.1897 -0.9712
  114OSM    C8F11911   5.076   6.440  10.304 -0.3045 -0.3404  0.0582
  114OSM    H8F11912   5.131   6.522  10.253  0.7829 -2.2231 -1.8624
  114OSM    H8G11913   5.010   6.466  10.390  0.3399  0.1242  0.4124
  114OSM    C9F11914   4.998   6.368  10.201 -0.2649 -0.4120 -0.0821
  114OSM    H9F11915   4.924   6.303  10.251 -0.1636 -1.7742 -1.6642
  114OSM   C10F11916   5.016   6.365  10.061 -1.0938  0.0963 -0.5103
  114OSM   H10F11917   4.957   6.305   9.990 -0.5392  1.1815 -1.9058
  114OSM   C11F11918   5.119   6.445   9.985  0.4697 -0.5240  0.7955
  114OSM   H11F11919   5.197   6.382   9.936  0.6949  1.4172 -1.4594
  114OSM   H11G11920   5.167   6.520  10.052 -3.5512  1.0369  2.0377
  114OSM   C12F11921   5.068   6.532   9.863  0.1368  0.7739 -0.1859
  114OSM   H12F11922   5.145   6.604   9.830  0.5247  1.0698  1.2983
  114OSM   H12G11923   4.974   6.585   9.892 -0.5104 -0.8783  0.8491
  114OSM   C13F11924   5.041   6.453   9.729  0.4600  0.2869  0.4487
  114OSM   H13F11925   4.950   6.392   9.751 -0.6260  1.6217 -0.2473
  114OSM   H13G11926   5.126   6.382   9.725 -0.8183 -1.2401 -0.5677
  114OSM   C14F11927   5.018   6.528   9.608 -0.4456 -0.2310 -0.2448
  114OSM   H14F11928   5.111   6.576   9.570 -0.1311 -0.5519  0.1163
  114OSM   H14G11929   4.940   6.605   9.625 -0.3111 -0.3465  0.9235
  114OSM   C15F11930   4.963   6.435   9.492  0.3179 -0.0403 -0.2719
  114OSM   H15F11931   4.855   6.416   9.513  0.7903  0.2972  2.6495
  114OSM   H15G11932   5.014   6.336   9.484  1.6288  0.4366  2.0106
  114OSM   C16F11933   4.980   6.506   9.358 -0.4406 -0.9799  0.0613
  114OSM   H16F11934   5.090   6.516   9.354 -0.4522 -1.2018 -1.0960
  114OSM   H16G11935   4.934   6.606   9.372 -0.8502 -1.1769  0.1251
  114OSM   C17F11936   4.927   6.438   9.244 -0.3050 -0.9802  0.5712
  114OSM   H17F11937   4.933   6.499   9.152 -0.4967 -2.9798 -0.8019
  114OSM   H17G11938   4.823   6.403   9.263 -1.3378  1.4884 -0.3910
  114OSM   C18F11939   5.008   6.309   9.204  0.3708 -0.5767  0.2013
  114OSM   H18F11940   4.971   6.276   9.105  1.3280  2.0999 -1.1216
  114OSM   H18G11941   4.989   6.229   9.278  2.0892 -1.1133  0.0922
  114OSM   H18H11942   5.115   6.338   9.189 -0.3302  1.5412 -0.9344
  115OSM      N11943   5.678   4.424   5.878  0.2479  0.0327  0.3131
  115OSM    C1511944   5.802   4.490   5.927  0.2062 -0.0339 -0.6467
  115OSM   H15A11945   5.848   4.433   6.007 -1.3012  0.5876  0.6841
  115OSM   H15B11946   5.788   4.592   5.961  1.6246  0.0527 -0.2530
  115OSM   H15C11947   5.883   4.486   5.856  0.1660  3.0060 -0.9604
  115OSM    C1411948   5.608   4.516   5.793  0.1724 -0.1208  0.2274
  115OSM   H14A11949   5.559   4.595   5.849 -0.1007 -0.3251  0.2747
  115OSM   H14B11950   5.526   4.473   5.737 -0.4315 -0.1651  1.1364
  115OSM   H14C11951   5.666   4.558   5.712 -1.2150 -0.7066 -1.0908
  115OSM    C1311952   5.729   4.307   5.796  0.6696 -0.1513 -0.0137
  115OSM   H13A11953   5.651   4.266   5.734 -0.0581 -0.0430  0.8123
  115OSM   H13B11954   5.746   4.219   5.858 -0.0630 -1.1695 -1.2322
  115OSM   H13C11955   5.806   4.334   5.726 -0.3016 -0.6300 -1.2768
  115OSM    C1211956   5.599   4.379   6.005 -0.2064  0.1160  0.3881
  115OSM   H12A11957   5.507   4.328   5.980 -2.0144  3.2521  0.3558
  115OSM   H12B11958   5.564   4.473   6.045  0.4783  0.8616 -0.7330
  115OSM    C1111959   5.672   4.295   6.116 -0.0973  0.6403 -0.0680
  115OSM   H11A11960   5.586   4.253   6.171 -0.2691  1.4855  0.3141
  115OSM   H11B11961   5.726   4.359   6.189 -0.5952  0.6018  0.3343
  115OSM      P11962   5.914   4.181   6.103 -0.2698 -0.2771 -0.2998
  115OSM    O1311963   5.956   4.043   6.070  0.2317 -0.1371  0.1053
  115OSM    O1411964   5.988   4.296   6.044  0.4870  0.4794  0.3493
  115OSM    O1111965   5.916   4.198   6.262 -0.2165  0.0614 -0.4215
  115OSM    O1211966   5.761   4.190   6.064 -0.3050 -0.8004 -0.8132
  115OSM    C1S11967   5.847   4.114   6.353 -0.1917  0.0695  0.1630
  115OSM    H1S11968   5.872   4.007   6.339 -1.5747 -0.3166  0.5378
  115OSM    H1T11969   5.738   4.116   6.331 -0.5949 -0.2946  2.0234
  115OSM     NF11970   5.782   4.052   6.587  0.0031  0.9486  0.4131
  115OSM    HNF11971   5.698   4.086   6.627 -0.5205 -1.0992  1.1236
  115OSM    C2S11972   5.871   4.139   6.507 -0.1542 -0.1773  0.5354
  115OSM    H2S11973   5.977   4.120   6.534 -0.6713 -0.2109  2.6122
  115OSM    C3S11974   5.847   4.288   6.533 -0.6679 -0.1092 -0.5140
  115OSM    H3S11975   5.737   4.299   6.546 -0.9500 -3.2894  0.2882
  115OSM     O311976   5.883   4.380   6.428 -0.0458 -0.2900 -0.5355
  115OSM    HO311977   5.910   4.325   6.354  0.7269 -0.7476  0.0806
  115OSM    C4S11978   5.912   4.333   6.665 -0.6177  0.3292 -0.5145
  115OSM    H4S11979   5.844   4.322   6.751  1.5396 -1.8087  0.9797
  115OSM    C5S11980   6.041   4.376   6.678 -0.4572  0.2243  0.6563
  115OSM    H5S11981   6.093   4.375   6.582 -1.8171 -0.2659 -0.0965
  115OSM    C6S11982   6.109   4.426   6.803 -0.5984  0.2931 -0.5943
  115OSM    H6S11983   6.163   4.519   6.775 -2.9683  2.5579  2.0753
  115OSM    H6T11984   6.166   4.349   6.860 -1.7726  0.2172  0.5042
  115OSM    C7S11985   6.014   4.462   6.921  0.4642  0.3582 -0.0062
  115OSM    H7S11986   5.965   4.367   6.952  3.6450 -0.5379  2.5971
  115OSM    H7T11987   5.940   4.544   6.913 -0.8496 -0.5310  2.4896
  115OSM    C8S11988   6.091   4.504   7.051 -0.2817  0.3833 -0.4034
  115OSM    H8S11989   6.144   4.597   7.021  1.5071 -0.8589 -1.2672
  115OSM    H8T11990   6.161   4.422   7.079 -1.6380 -0.9158 -0.7740
  115OSM    C9S11991   6.010   4.518   7.179 -0.1364 -0.0871  0.2400
  115OSM    H9S11992   5.955   4.425   7.203 -0.3911  0.0660  0.2523
  115OSM    H9T11993   5.939   4.604   7.173  0.0454  0.0139 -0.5482
  115OSM   C10S11994   6.099   4.537   7.305 -0.5591 -0.0641 -0.1154
  115OSM   H10S11995   6.160   4.626   7.277  1.3341 -1.3032 -0.0372
  115OSM   H10T11996   6.176   4.458   7.316  0.7959  1.1220 -0.8255
  115OSM   C11S11997   6.023   4.569   7.434 -0.1101  0.3041  1.0261
  115OSM   H11S11998   5.956   4.486   7.462 -0.6061 -0.2991 -1.8388
  115OSM   H11T11999   5.956   4.654   7.410 -0.9166 -0.9040 -1.0871
  115OSM   C12S12000   6.120   4.589   7.559  0.1254  0.5861  0.1356
  115OSM   H12S12001   6.194   4.668   7.531  0.7333 -0.0329 -0.0229
  115OSM   H12T12002   6.155   4.485   7.575  3.0684  1.6156  0.8321
  115OSM   C13S12003   6.041   4.625   7.683 -0.0600 -0.1747  0.1601
  115OSM   H13S12004   5.940   4.580   7.674  0.5736 -0.8866 -5.8124
  115OSM   H13T12005   6.016   4.733   7.673 -0.2479 -0.1764  0.6132
  115OSM   C14S12006   6.126   4.589   7.812 -0.4655 -0.4155  0.8834
  115OSM   H14S12007   6.223   4.642   7.801 -0.0697 -1.2306  0.4161
  115OSM   H14T12008   6.141   4.479   7.807 -1.2837 -0.4813 -0.2017
  115OSM   C15S12009   6.051   4.625   7.939 -0.4784  0.1248  0.2850
  115OSM   H15S12010   5.963   4.560   7.957 -1.1367  1.4620  2.1000
  115OSM   H15T12011   6.010   4.728   7.928  1.9856  1.0734 -0.3349
  115OSM   C16S12012   6.137   4.621   8.067 -0.4775  0.1991  0.9546
  115OSM   H16S12013   6.225   4.689   8.061 -0.3915  0.0235  0.2332
  115OSM   H16T12014   6.173   4.518   8.087  0.5889  0.7075  1.7221
  115OSM   C17S12015   6.047   4.678   8.178 -0.6646  0.7890 -0.1341
  115OSM   H17S12016   5.966   4.609   8.210 -0.1178  0.7498  1.1990
  115OSM   H17T12017   5.998   4.771   8.141 -0.7315  1.4491  1.5215
  115OSM   C18S12018   6.128   4.717   8.307 -0.3876  0.4989  0.5259
  115OSM   H18S12019   6.161   4.822   8.295  0.6723 -0.0320 -1.3428
  115OSM   H18T12020   6.213   4.650   8.331 -0.8215  0.1175  1.0168
  115OSM   H18U12021   6.063   4.711   8.397 -0.3298 -2.7681  0.4089
  115OSM    C1F12022   5.808   3.922   6.610  0.0615 -0.2399 -0.6943
  115OSM     OF12023   5.911   3.876   6.569 -0.5510  0.3927  0.5877
  115OSM    C2F12024   5.708   3.832   6.666  0.5700  0.2020  0.3501
  115OSM    H2F12025   5.721   3.746   6.597  1.4997 -0.3687  1.2320
  115OSM    H2G12026   5.607   3.868   6.635  0.4376 -0.8221 -0.4299
  115OSM    C3F12027   5.721   3.793   6.816  0.0511 -0.1233 -0.0932
  115OSM    H3F12028   5.734   3.887   6.874 -1.0711 -1.3178  2.1574
  115OSM    H3G12029   5.806   3.723   6.833 -0.5451 -1.3750 -2.1243
  115OSM    C4F12030   5.601   3.714   6.866 -0.1489 -0.1438 -0.0799
  115OSM    H4F12031   5.597   3.611   6.824 -0.1276 -0.5127  0.8292
  115OSM    H4G12032   5.504   3.750   6.826  1.3028  2.0974 -1.7549
  115OSM    C5F12033   5.596   3.692   7.018 -0.8679 -0.3555  0.0643
  115OSM    H5F12034   5.563   3.786   7.067  1.4352  0.7719 -0.4874
  115OSM    H5G12035   5.702   3.672   7.045  0.3167  4.1725 -0.7490
  115OSM    C6F12036   5.526   3.562   7.059 -0.2485 -0.3627  0.4967
  115OSM    H6F12037   5.570   3.475   7.006 -0.1068  0.2893 -0.4498
  115OSM    H6G12038   5.418   3.581   7.038  0.5011  0.8664 -2.4634
  115OSM    C7F12039   5.536   3.534   7.209 -0.8119 -0.1254 -0.2770
  115OSM    H7F12040   5.505   3.617   7.276 -0.3743 -2.0861  2.3986
  115OSM    H7G12041   5.640   3.510   7.237 -0.3964 -0.0047 -1.6505
  115OSM    C8F12042   5.458   3.406   7.248  0.1612 -0.1243 -1.0014
  115OSM    H8F12043   5.497   3.312   7.203  2.2645  1.1516 -1.9213
  115OSM    H8G12044   5.355   3.411   7.206 -0.9203 -0.4224  1.5049
  115OSM    C9F12045   5.451   3.381   7.392  0.1878  0.1407  0.6297
  115OSM    H9F12046   5.529   3.430   7.453  2.2506 -0.6978 -1.2901
  115OSM   C10F12047   5.357   3.311   7.460 -0.0929  0.7039  0.2302
  115OSM   H10F12048   5.372   3.295   7.568  0.3105 -1.5374 -0.1326
  115OSM   C11F12049   5.245   3.230   7.400 -0.7677  0.2134 -0.2762
  115OSM   H11F12050   5.249   3.126   7.439  2.1293  0.7769  1.1243
  115OSM   H11G12051   5.246   3.226   7.289  0.6126  0.7790 -0.2976
  115OSM   C12F12052   5.103   3.286   7.444 -0.2751  0.4924 -0.6274
  115OSM   H12F12053   5.016   3.231   7.401  0.0391 -0.3491 -0.2119
  115OSM   H12G12054   5.093   3.393   7.416 -1.5004  0.5611  0.0265
  115OSM   C13F12055   5.062   3.288   7.594 -0.4756  0.3697 -0.7260
  115OSM   H13F12056   4.955   3.317   7.602 -0.6867 -0.3775 -0.7700
  115OSM   H13G12057   5.120   3.362   7.653 -1.9892  1.8754 -1.0929
  115OSM   C14F12058   5.084   3.148   7.662  0.3204  0.2341  0.7172
  115OSM   H14F12059   5.191   3.118   7.654  0.5092  0.4449  2.1797
  115OSM   H14G12060   5.011   3.092   7.601 -1.9902  1.1409  2.5482
  115OSM   C15F12061   5.048   3.154   7.815  0.2052  0.2582 -0.1200
  115OSM   H15F12062   5.136   3.192   7.870 -1.1795  1.2507  1.4650
  115OSM   H15G12063   5.033   3.050   7.849  0.0922 -0.2574 -1.6998
  115OSM   C16F12064   4.921   3.226   7.857  0.3655  0.4642  0.6607
  115OSM   H16F12065   4.840   3.215   7.783  0.7304 -1.5052  0.5247
  115OSM   H16G12066   4.946   3.333   7.874  1.0403  0.3896  0.1576
  115OSM   C17F12067   4.864   3.166   7.980 -0.1776  0.3237 -0.7493
  115OSM   H17F12068   4.947   3.153   8.053 -0.6584 -2.9411 -0.6859
  115OSM   H17G12069   4.816   3.071   7.949  1.6073 -0.3704 -1.4417
  115OSM   C18F12070   4.740   3.244   8.056  0.1375  0.7555  0.0915
  115OSM   H18F12071   4.773   3.350   8.070  0.8583  0.2480  2.4902
  115OSM   H18G12072   4.705   3.203   8.153 -0.2397  4.7094  1.7184
  115OSM   H18H12073   4.658   3.257   7.983 -0.3039  0.7052  0.5782
  116OSM      N12074   4.445   0.663   5.875  0.6450  0.0637  0.2263
  116OSM    C1512075   4.598   0.697   5.862 -0.0794  0.1411 -0.3171
  116OSM   H15A12076   4.635   0.643   5.776  0.0267 -0.0606 -0.1462
  116OSM   H15B12077   4.636   0.658   5.955  1.3202  0.4765 -0.7306
  116OSM   H15C12078   4.617   0.803   5.860 -0.2334  0.1465 -1.7882
  116OSM    C1412079   4.383   0.701   5.745  0.6651 -0.2731 -0.1747
  116OSM   H14A12080   4.442   0.662   5.663  0.8929  0.9690 -0.6110
  116OSM   H14B12081   4.388   0.809   5.741  0.1433 -0.2850 -1.0392
  116OSM   H14C12082   4.278   0.682   5.729  0.8681 -0.6047 -1.0940
  116OSM    C1312083   4.443   0.515   5.892 -0.0842  0.3145 -0.5204
  116OSM   H13A12084   4.342   0.475   5.896 -0.0019  0.1285 -0.2705
  116OSM   H13B12085   4.485   0.492   5.989 -2.5254 -0.4564  0.4103
  116OSM   H13C12086   4.504   0.471   5.816  0.5265 -0.8011  0.5960
  116OSM    C1212087   4.383   0.746   5.988  0.3669 -0.6620  0.7783
  116OSM   H12A12088   4.277   0.748   5.970  0.5429 -1.0057 -0.2999
  116OSM   H12B12089   4.417   0.848   5.972  2.7672 -1.9478 -2.9353
  116OSM    C1112090   4.415   0.690   6.133 -0.1618  0.6864  0.1200
  116OSM   H11A12091   4.355   0.598   6.146  0.5603  0.1613 -0.2616
  116OSM   H11B12092   4.369   0.755   6.211  0.7284 -1.4727  2.5150
  116OSM      P12093   4.649   0.783   6.183  0.1805  0.0628  0.2679
  116OSM    O1312094   4.790   0.732   6.163  0.2756 -0.4616  0.1749
  116OSM    O1412095   4.611   0.897   6.099  0.3390 -0.2191 -0.5701
  116OSM    O1112096   4.627   0.826   6.333  1.1207  0.6863  0.2427
  116OSM    O1212097   4.550   0.665   6.159 -0.4756 -0.0369 -0.2969
  116OSM    C1S12098   4.631   0.714   6.425  0.0355  0.7746  0.3997
  116OSM    H1S12099   4.727   0.661   6.407 -0.8237 -0.8727  0.5471
  116OSM    H1T12100   4.551   0.639   6.408 -0.4031  0.8784  1.9648
  116OSM     NF12101   4.709   0.664   6.657  0.2635 -0.6727 -0.2809
  116OSM    HNF12102   4.660   0.600   6.715  0.7513 -0.7446  0.0621
  116OSM    C2S12103   4.642   0.763   6.574 -0.3639  0.7305 -0.4855
  116OSM    H2S12104   4.705   0.854   6.575  1.7826 -0.7075  1.3743
  116OSM    C3S12105   4.495   0.799   6.616 -0.3124  0.4416  0.6589
  116OSM    H3S12106   4.439   0.707   6.586 -0.4008  0.8157 -0.3149
  116OSM     O312107   4.448   0.909   6.541 -0.0392 -0.3485  0.6544
  116OSM    HO312108   4.511   0.918   6.468  1.6881  2.8660  2.4386
  116OSM    C4S12109   4.483   0.834   6.756 -0.1563 -0.1232 -0.5228
  116OSM    H4S12110   4.556   0.908   6.791 -1.1794  0.9291 -0.5702
  116OSM    C5S12111   4.391   0.771   6.839 -0.4149 -0.0645  0.4093
  116OSM    H5S12112   4.324   0.696   6.797  0.8068 -1.2015  0.4750
  116OSM    C6S12113   4.382   0.803   6.987 -0.1147  0.4452  0.3356
  116OSM    H6S12114   4.472   0.779   7.047  0.5752 -0.8452 -1.1863
  116OSM    H6T12115   4.305   0.727   7.014 -1.3028  0.7316 -2.1195
  116OSM    C7S12116   4.335   0.943   7.036 -0.3383 -0.1253  0.1881
  116OSM    H7S12117   4.227   0.957   7.014 -0.0505 -0.4188 -1.4873
  116OSM    H7T12118   4.388   1.026   6.985  1.4206 -1.7067 -0.6341
  116OSM    C8S12119   4.351   0.959   7.187 -0.0982 -0.5464 -0.0488
  116OSM    H8S12120   4.457   0.945   7.218  0.9165  3.4388 -1.3264
  116OSM    H8T12121   4.312   0.868   7.236 -0.1275 -0.2092  0.5535
  116OSM    C9S12122   4.283   1.078   7.248  0.4947  0.1075  0.0251
  116OSM    H9S12123   4.178   1.075   7.211  0.0841  0.0637  1.1733
  116OSM    H9T12124   4.321   1.172   7.202 -0.4265  0.3176 -0.3267
  116OSM   C10S12125   4.281   1.075   7.399 -0.5425 -0.0473 -1.1259
  116OSM   H10S12126   4.385   1.061   7.437 -1.0394 -3.0746 -0.7555
  116OSM   H10T12127   4.234   0.981   7.436  1.5692 -0.2323  1.2520
  116OSM   C11S12128   4.217   1.186   7.467  0.2511  0.3722 -0.1588
  116OSM   H11S12129   4.129   1.217   7.406  0.2223  0.3598 -0.1230
  116OSM   H11T12130   4.286   1.273   7.458 -1.8601  2.0556 -0.7673
  116OSM   C12S12131   4.175   1.159   7.616 -0.3864 -0.7116  0.1201
  116OSM   H12S12132   4.125   1.060   7.621 -0.4447 -0.7033 -0.3265
  116OSM   H12T12133   4.101   1.236   7.649 -2.4022 -1.4642 -2.4950
  116OSM   C13S12134   4.299   1.166   7.707 -0.0734 -0.1272 -0.5071
  116OSM   H13S12135   4.341   1.267   7.691 -2.0130  0.8104  0.0879
  116OSM   H13T12136   4.374   1.087   7.685  0.1959 -0.2655  0.8404
  116OSM   C14S12137   4.249   1.148   7.850  0.0301  0.5971  0.2986
  116OSM   H14S12138   4.199   1.049   7.852  0.0129  0.4919 -2.9881
  116OSM   H14T12139   4.181   1.227   7.888 -0.4859 -0.5043  1.7183
  116OSM   C15S12140   4.367   1.148   7.944 -0.1621 -0.3753 -0.2085
  116OSM   H15S12141   4.385   1.257   7.955  2.4019 -0.7571 -0.2914
  116OSM   H15T12142   4.457   1.098   7.902 -1.1473 -3.0455  0.7656
  116OSM   C16S12143   4.322   1.097   8.083  0.6357 -0.2270  0.2501
  116OSM   H16S12144   4.309   0.991   8.051  0.7164  0.3158 -1.6405
  116OSM   H16T12145   4.231   1.155   8.109  1.0650  0.1426  0.9468
  116OSM   C17S12146   4.429   1.096   8.195 -0.1054  0.2725  1.2853
  116OSM   H17S12147   4.460   1.198   8.224 -1.0622  0.3396  2.1144
  116OSM   H17T12148   4.518   1.042   8.156 -1.4224 -1.4789  0.6230
  116OSM   C18S12149   4.378   1.020   8.311  0.9550  0.9618 -0.5256
  116OSM   H18S12150   4.323   1.087   8.380  1.6322  1.7058 -0.7073
  116OSM   H18T12151   4.466   0.980   8.367  0.0613 -1.5819 -0.8715
  116OSM   H18U12152   4.317   0.931   8.282 -1.7001  2.2774  0.8307
  116OSM    C1F12153   4.841   0.650   6.654 -0.2291  0.7907 -0.0926
  116OSM     OF12154   4.911   0.719   6.582 -0.0720  0.1158  0.4383
  116OSM    C2F12155   4.908   0.546   6.745  0.6891 -0.5262  0.1439
  116OSM    H2F12156   4.932   0.449   6.697  1.3605 -0.9337  1.2772
  116OSM    H2G12157   4.838   0.504   6.821  0.8072  1.5523  1.4468
  116OSM    C3F12158   5.029   0.599   6.827 -0.1261 -0.4877  0.0017
  116OSM    H3F12159   5.016   0.705   6.861 -0.6215 -0.1635 -1.1646
  116OSM    H3G12160   5.115   0.599   6.756  0.0052 -0.2346  0.1597
  116OSM    C4F12161   5.060   0.513   6.948 -0.2300  0.0272 -0.3043
  116OSM    H4F12162   5.083   0.406   6.930  1.8120  0.7175 -1.9392
  116OSM    H4G12163   4.963   0.506   7.003 -0.7579  1.1799 -1.0862
  116OSM    C5F12164   5.174   0.559   7.040 -0.2011  0.4123  0.0686
  116OSM    H5F12165   5.150   0.664   7.069 -1.3078 -0.2403  1.5600
  116OSM    H5G12166   5.263   0.558   6.974 -1.9255 -0.1718 -2.3061
  116OSM    C6F12167   5.203   0.476   7.170  0.8113  0.2907  0.0820
  116OSM    H6F12168   5.301   0.497   7.218 -0.4843 -1.1904  3.5941
  116OSM    H6G12169   5.213   0.371   7.136 -2.1222 -0.8095  2.3205
  116OSM    C7F12170   5.083   0.483   7.262 -0.3446  0.7176  0.3237
  116OSM    H7F12171   4.991   0.470   7.202  0.0071  1.0696 -0.2923
  116OSM    H7G12172   5.072   0.586   7.302 -1.1403  0.0581  1.8733
  116OSM    C8F12173   5.093   0.378   7.383  0.5152 -0.0149  0.5029
  116OSM    H8F12174   5.111   0.274   7.347 -2.2676  0.1018 -1.3812
  116OSM    H8G12175   4.990   0.379   7.424  1.0794  2.2484  1.9314
  116OSM    C9F12176   5.204   0.438   7.477  0.4954 -0.2781 -0.2801
  116OSM    H9F12177   5.299   0.454   7.424 -0.0258  0.6970 -0.9345
  116OSM   C10F12178   5.181   0.481   7.601 -0.0642  0.2768  1.3608
  116OSM   H10F12179   5.268   0.523   7.652 -1.3115  2.7609  1.5041
  116OSM   C11F12180   5.052   0.487   7.680  0.2439  0.1283  0.4372
  116OSM   H11F12181   4.960   0.455   7.627  0.9226 -0.6033 -0.3172
  116OSM   H11G12182   5.048   0.594   7.709 -0.3253  0.4495 -0.8323
  116OSM   C12F12183   5.064   0.416   7.822 -0.3263  0.0036 -0.2073
  116OSM   H12F12184   5.078   0.309   7.797 -1.9549 -1.0294  3.0011
  116OSM   H12G12185   4.973   0.417   7.885  0.6457  1.3118  1.1990
  116OSM   C13F12186   5.182   0.447   7.917  0.2889 -0.2572  0.5369
  116OSM   H13F12187   5.191   0.558   7.909 -0.5840 -0.1764  0.6378
  116OSM   H13G12188   5.270   0.389   7.884 -0.6315 -1.2864 -0.1368
  116OSM   C14F12189   5.167   0.391   8.060 -0.2817 -0.0664  0.6091
  116OSM   H14F12190   5.262   0.384   8.118  0.3838 -3.2464 -0.7744
  116OSM   H14G12191   5.139   0.286   8.040 -1.1754  0.6173 -1.8905
  116OSM   C15F12192   5.061   0.459   8.142  0.5479  0.1512  0.4249
  116OSM   H15F12193   4.958   0.449   8.101  0.0777  0.2802  1.5422
  116OSM   H15G12194   5.092   0.565   8.153 -2.3577  1.6636 -4.3448
  116OSM   C16F12195   5.055   0.413   8.287  0.0770  0.1049  0.1560
  116OSM   H16F12196   5.152   0.399   8.338 -0.1107  1.4159  0.9004
  116OSM   H16G12197   5.017   0.309   8.278 -1.3602  0.8864 -4.4164
  116OSM   C17F12198   4.946   0.496   8.364  0.3971  0.0825 -1.3960
  116OSM   H17F12199   4.843   0.477   8.327  0.5240  0.1563 -1.7915
  116OSM   H17G12200   4.969   0.602   8.339 -1.7256  0.6467 -1.0519
  116OSM   C18F12201   4.967   0.480   8.519  0.7405  0.2560  0.3102
  116OSM   H18F12202   4.955   0.373   8.543  0.6107 -0.0035 -0.8964
  116OSM   H18G12203   4.899   0.542   8.582 -1.5681 -2.4041  0.5395
  116OSM   H18H12204   5.069   0.514   8.547  0.3796  1.3445  0.3449
  117OSM      N12205   3.619   3.215   6.356  0.0637 -0.4134  0.4679
  117OSM    C1512206   3.589   3.146   6.483  0.1166  0.1339 -0.0903
  117OSM   H15A12207   3.666   3.148   6.558 -0.7443  0.4428  0.8010
  117OSM   H15B12208   3.568   3.042   6.459 -1.9152 -0.0434  2.2114
  117OSM   H15C12209   3.498   3.186   6.525 -1.8181 -0.8516 -3.1761
  117OSM    C1412210   3.663   3.354   6.383 -0.0378  0.1441  0.1200
  117OSM   H14A12211   3.594   3.405   6.447 -0.9960 -1.5160  0.4467
  117OSM   H14B12212   3.666   3.406   6.289  0.1103  0.3420  0.2334
  117OSM   H14C12213   3.762   3.362   6.427  0.2229 -1.2801 -0.1735
  117OSM    C1312214   3.741   3.154   6.295  0.1938 -0.3748  0.0036
  117OSM   H13A12215   3.785   3.217   6.220  0.0040 -1.0677 -0.6964
  117OSM   H13B12216   3.711   3.060   6.252 -0.8779  0.1529 -0.4215
  117OSM   H13C12217   3.816   3.129   6.368 -0.7290  1.0328  1.4639
  117OSM    C1212218   3.504   3.205   6.256 -0.5827  0.5405 -0.4582
  117OSM   H12A12219   3.540   3.215   6.155  0.4138  1.7510  0.0037
  117OSM   H12B12220   3.426   3.274   6.286  0.1604  1.0120  0.4406
  117OSM    C1112221   3.438   3.065   6.244  0.1349  1.1007 -0.8007
  117OSM   H11A12222   3.509   2.988   6.207  0.3514  0.7744  0.2544
  117OSM   H11B12223   3.361   3.064   6.164  1.0320 -0.7144 -1.6639
  117OSM      P12224   3.225   3.074   6.401 -0.4470 -0.1302  0.1216
  117OSM    O1312225   3.236   3.201   6.479  0.6911 -0.4485  0.1131
  117OSM    O1412226   3.143   3.076   6.277 -0.1469 -0.2362 -0.3312
  117OSM    O1112227   3.168   2.972   6.497 -0.3751 -0.1621 -0.4997
  117OSM    O1212228   3.370   3.020   6.364  0.1264 -0.1210 -0.0646
  117OSM    C1S12229   3.246   2.903   6.598  0.0928 -0.0899 -0.3962
  117OSM    H1S12230   3.344   2.949   6.620 -0.4310  1.0567 -0.4254
  117OSM    H1T12231   3.265   2.799   6.565 -0.2529  0.0050 -0.9033
  117OSM     NF12232   3.240   2.860   6.851  0.2999  0.0200 -0.1907
  117OSM    HNF12233   3.249   2.767   6.886 -3.8058 -1.1118 -1.9292
  117OSM    C2S12234   3.158   2.880   6.732  0.6458  0.1829  0.5453
  117OSM    H2S12235   3.094   2.970   6.738 -0.4729 -0.4882 -0.9882
  117OSM    C3S12236   3.067   2.762   6.695 -0.7119  1.0461 -0.4090
  117OSM    H3S12237   3.132   2.673   6.677 -0.9329  0.7344  0.3462
  117OSM     O312238   3.000   2.776   6.573 -0.4605 -0.3330  0.3440
  117OSM    HO312239   3.057   2.838   6.526 -2.4242  0.4389 -1.0879
  117OSM    C4S12240   2.974   2.722   6.809 -0.0232  0.2924 -0.0841
  117OSM    H4S12241   3.011   2.646   6.878  0.7351  1.0497  0.3583
  117OSM    C5S12242   2.845   2.758   6.813 -0.1878  0.4131  0.5079
  117OSM    H5S12243   2.797   2.821   6.737  2.4312  3.9731  1.6644
  117OSM    C6S12244   2.743   2.704   6.917 -0.8078 -0.3472 -0.6796
  117OSM    H6S12245   2.803   2.664   7.001 -1.0969  0.9246  0.1333
  117OSM    H6T12246   2.684   2.621   6.873 -0.3424  0.3966 -2.7614
  117OSM    C7S12247   2.640   2.811   6.970  0.6869  0.2188  0.4002
  117OSM    H7S12248   2.576   2.847   6.887  1.7239 -2.6219 -1.7142
  117OSM    H7T12249   2.683   2.899   7.022  1.8289  0.9366 -1.7080
  117OSM    C8S12250   2.548   2.741   7.071  0.1022  0.1477 -0.1683
  117OSM    H8S12251   2.523   2.639   7.035 -3.2368  0.5945  0.6774
  117OSM    H8T12252   2.458   2.801   7.097 -1.1497 -2.3898  1.6070
  117OSM    C9S12253   2.624   2.724   7.209  0.0193  0.1824  0.3629
  117OSM    H9S12254   2.630   2.826   7.253 -0.0211  0.5148 -0.4059
  117OSM    H9T12255   2.730   2.692   7.202  0.9655  2.5253  3.0226
  117OSM   C10S12256   2.545   2.636   7.302 -0.0091  0.3816  0.0569
  117OSM   H10S12257   2.554   2.533   7.263  3.0532  0.8336 -0.5779
  117OSM   H10T12258   2.439   2.668   7.310 -0.0579 -0.0259  1.1855
  117OSM   C11S12259   2.599   2.642   7.448  0.5139 -0.4150  0.1985
  117OSM   H11S12260   2.521   2.607   7.520  1.4405 -1.0124  0.9257
  117OSM   H11T12261   2.616   2.747   7.481 -0.0056 -0.6466  1.2503
  117OSM   C12S12262   2.735   2.563   7.453 -0.0747 -0.1982  0.0594
  117OSM   H12S12263   2.793   2.599   7.365  0.2217  1.8693  1.0730
  117OSM   H12T12264   2.702   2.457   7.443 -1.4544  0.1365  0.9984
  117OSM   C13S12265   2.815   2.586   7.581 -0.4933 -0.1908  0.7074
  117OSM   H13S12266   2.753   2.563   7.670  0.6062  2.8483  2.3406
  117OSM   H13T12267   2.827   2.695   7.568 -1.2025 -0.2740 -0.7682
  117OSM   C14S12268   2.947   2.510   7.592 -0.2404  0.1865 -0.2414
  117OSM   H14S12269   2.989   2.496   7.490 -0.8526  0.6312 -0.5548
  117OSM   H14T12270   2.936   2.408   7.635 -0.1818 -0.1585 -1.0444
  117OSM   C15S12271   3.044   2.585   7.677  0.1813  0.7376 -0.2905
  117OSM   H15S12272   3.004   2.604   7.779 -0.5265  2.2248 -0.8197
  117OSM   H15T12273   3.063   2.689   7.641 -0.3672  1.2833  0.9472
  117OSM   C16S12274   3.172   2.504   7.695  1.2788 -0.8824 -0.1872
  117OSM   H16S12275   3.214   2.498   7.592  0.7168 -0.8359 -0.4200
  117OSM   H16T12276   3.140   2.401   7.722 -0.7913 -0.5631 -1.2979
  117OSM   C17S12277   3.271   2.565   7.787 -0.6519  1.1595  0.3622
  117OSM   H17S12278   3.232   2.554   7.891 -1.0848  1.5523  0.2365
  117OSM   H17T12279   3.270   2.673   7.762 -3.4164  1.8960  3.2920
  117OSM   C18S12280   3.417   2.509   7.772  0.3441  0.2856 -0.1007
  117OSM   H18S12281   3.482   2.558   7.848 -0.0956 -0.0211  0.4719
  117OSM   H18T12282   3.461   2.525   7.671  0.8373  1.5574  0.3008
  117OSM   H18U12283   3.423   2.401   7.797  1.3563 -0.0951 -1.9039
  117OSM    C1F12284   3.310   2.966   6.898 -0.4714 -0.4122  0.2760
  117OSM     OF12285   3.304   3.082   6.860 -0.2573 -0.1696 -0.6314
  117OSM    C2F12286   3.404   2.931   7.009  0.4905  0.7127 -0.2817
  117OSM    H2F12287   3.455   2.834   6.989 -1.4387 -0.2163 -0.7692
  117OSM    H2G12288   3.342   2.930   7.101 -0.3922  0.3537 -0.8792
  117OSM    C3F12289   3.520   3.027   7.021  0.1149  0.1288  0.2505
  117OSM    H3F12290   3.487   3.130   7.047 -0.0549  0.2719 -0.5094
  117OSM    H3G12291   3.575   3.027   6.925  2.5892  0.7120  1.6365
  117OSM    C4F12292   3.614   2.996   7.136  0.5454 -0.4431 -0.2131
  117OSM    H4F12293   3.635   2.887   7.132  3.7576  0.0318  1.6113
  117OSM    H4G12294   3.567   3.006   7.236  1.5744 -1.4943  0.3897
  117OSM    C5F12295   3.738   3.075   7.121  0.0121 -0.8768 -0.0936
  117OSM    H5F12296   3.719   3.185   7.120 -2.9436 -1.3562 -0.0940
  117OSM    H5G12297   3.800   3.050   7.031  2.9543  1.5761  1.1561
  117OSM    C6F12298   3.829   3.066   7.246 -0.0636 -0.4620  0.4147
  117OSM    H6F12299   3.855   2.961   7.272  1.2147  0.3266  2.3981
  117OSM    H6G12300   3.773   3.105   7.334  0.4525 -2.3678  1.6123
  117OSM    C7F12301   3.954   3.156   7.230  0.3074 -0.0737 -0.4191
  117OSM    H7F12302   3.921   3.258   7.200 -0.3166  0.2835  1.4016
  117OSM    H7G12303   4.010   3.120   7.142  0.5150  0.5328 -0.5360
  117OSM    C8F12304   4.038   3.151   7.364  0.2249  0.4391  0.3762
  117OSM    H8F12305   4.037   3.045   7.398  0.2796  0.2574 -0.1948
  117OSM    H8G12306   3.986   3.204   7.447  3.0844  0.8013  2.0215
  117OSM    C9F12307   4.178   3.209   7.347 -0.0144 -0.0982 -0.5301
  117OSM    H9F12308   4.185   3.296   7.280  1.1719 -0.6267 -1.1098
  117OSM   C10F12309   4.292   3.154   7.393 -0.5297  0.0886  1.4080
  117OSM   H10F12310   4.383   3.214   7.384 -1.3256  0.9329 -1.3197
  117OSM   C11F12311   4.308   3.034   7.478  0.0933 -0.0202  0.2660
  117OSM   H11F12312   4.395   2.966   7.468  0.6187  0.6319  0.3735
  117OSM   H11G12313   4.226   2.961   7.460  0.4178 -0.0256 -1.2133
  117OSM   C12F12314   4.285   3.084   7.623 -0.6922 -0.2226  0.4133
  117OSM   H12F12315   4.284   2.997   7.693 -0.0863 -0.7902 -0.2708
  117OSM   H12G12316   4.185   3.132   7.633 -0.8853 -0.6024  0.3166
  117OSM   C13F12317   4.404   3.172   7.659 -0.0606 -0.2703 -0.1571
  117OSM   H13F12318   4.403   3.264   7.598 -0.3151 -1.1923 -1.5786
  117OSM   H13G12319   4.489   3.117   7.612 -0.1802 -0.3216 -0.3149
  117OSM   C14F12320   4.428   3.177   7.811 -0.4732  0.0157  0.6137
  117OSM   H14F12321   4.484   3.271   7.831  0.0960  0.2626 -1.9341
  117OSM   H14G12322   4.491   3.092   7.847 -0.7224 -0.3304  0.2340
  117OSM   C15F12323   4.303   3.183   7.906  0.5729  0.7992 -0.2180
  117OSM   H15F12324   4.231   3.104   7.875 -0.0978  1.9671 -1.6635
  117OSM   H15G12325   4.262   3.285   7.891  0.7060  1.1370  1.6601
  117OSM   C16F12326   4.352   3.165   8.050  0.2085  0.5990 -0.0909
  117OSM   H16F12327   4.430   3.235   8.087  2.4141 -1.8567  0.0094
  117OSM   H16G12328   4.407   3.069   8.044 -0.6700  0.1008 -0.2201
  117OSM   C17F12329   4.247   3.138   8.154  0.0370 -0.0123 -0.8330
  117OSM   H17F12330   4.196   3.235   8.176 -0.0018 -0.4867  1.2699
  117OSM   H17G12331   4.175   3.078   8.095  2.3404 -2.2616 -1.4441
  117OSM   C18F12332   4.300   3.064   8.280 -0.0051  0.3949 -0.0890
  117OSM   H18F12333   4.365   3.129   8.342 -0.1747  1.8467 -1.4086
  117OSM   H18G12334   4.361   2.979   8.241 -2.1946 -0.8203 -0.9223
  117OSM   H18H12335   4.225   3.018   8.348 -1.1124 -2.3098 -3.0289
  118OSM      N12336   6.061   5.172   5.806  0.0485  0.6603  0.0077
  118OSM    C1512337   5.945   5.082   5.791  0.0838  0.4454  0.3652
  118OSM   H15A12338   5.952   5.001   5.862  4.1064 -1.2748 -1.8041
  118OSM   H15B12339   5.944   5.024   5.700 -1.9531 -1.4294  1.5449
  118OSM   H15C12340   5.853   5.138   5.786 -0.4277 -0.4047  0.1621
  118OSM    C1412341   6.185   5.089   5.802 -0.2328 -0.2928 -0.1708
  118OSM   H14A12342   6.267   5.158   5.785  0.0322 -0.4461  0.4901
  118OSM   H14B12343   6.169   5.033   5.711 -1.2309 -0.1127 -0.1131
  118OSM   H14C12344   6.187   5.023   5.888  2.4091  0.3829  0.3173
  118OSM    C1312345   6.067   5.254   5.686  0.3922  0.5583 -0.2406
  118OSM   H13A12346   6.057   5.191   5.598  0.4563  0.1916  0.0104
  118OSM   H13B12347   6.166   5.297   5.681  0.8036 -0.1118  1.5472
  118OSM   H13C12348   5.985   5.324   5.678 -0.4451 -0.8040 -5.3977
  118OSM    C1212349   6.050   5.255   5.928 -0.0670  0.1474  0.8332
  118OSM   H12A12350   5.947   5.287   5.929 -0.7957 -2.1265 -0.1429
  118OSM   H12B12351   6.110   5.345   5.917 -0.0506  0.0464  0.1284
  118OSM    C1112352   6.090   5.200   6.067  0.3198 -0.2139  0.3724
  118OSM   H11A12353   6.094   5.284   6.140 -0.4762  2.0954 -2.1158
  118OSM   H11B12354   6.189   5.152   6.064 -0.1033 -1.0498 -0.5074
  118OSM      P12355   5.850   5.142   6.158  0.1908  0.3367 -0.3078
  118OSM    O1312356   5.806   5.270   6.098  0.0097 -0.2781 -0.8977
  118OSM    O1412357   5.762   5.026   6.145 -0.5121 -0.1911 -0.4154
  118OSM    O1112358   5.871   5.159   6.311  0.6052 -0.4487  0.1769
  118OSM    O1212359   5.987   5.102   6.100 -0.0035 -0.2632 -0.0776
  118OSM    C1S12360   5.921   5.036   6.372  0.0550  0.0433  0.6670
  118OSM    H1S12361   6.019   5.008   6.329 -0.1538  0.3052  0.0180
  118OSM    H1T12362   5.844   4.957   6.360 -0.7210  1.0573 -1.2090
  118OSM     NF12363   6.004   4.910   6.550 -0.2091  0.6391  0.1548
  118OSM    HNF12364   5.952   4.857   6.616 -0.6906  0.3983 -0.4201
  118OSM    C2S12365   5.945   5.041   6.517 -0.2209 -0.3340 -0.1251
  118OSM    H2S12366   6.020   5.119   6.544  1.3719 -2.4635  1.8581
  118OSM    C3S12367   5.811   5.056   6.592  0.9794  0.7893  0.6103
  118OSM    H3S12368   5.763   4.956   6.590 -1.7455  2.0614 -0.3719
  118OSM     O312369   5.708   5.140   6.527 -0.0041 -0.0933  0.0826
  118OSM    HO312370   5.754   5.160   6.445 -0.0333  2.6180  0.6827
  118OSM    C4S12371   5.831   5.093   6.736 -0.6096 -0.1167  0.8221
  118OSM    H4S12372   5.863   5.006   6.796  1.1167  0.0385  0.1441
  118OSM    C5S12373   5.834   5.205   6.799  1.0534  0.1861 -0.0152
  118OSM    H5S12374   5.823   5.297   6.740  3.4492  0.5740  0.0948
  118OSM    C6S12375   5.865   5.224   6.944 -0.3785  0.2490 -0.2291
  118OSM    H6S12376   5.941   5.305   6.950 -0.6835  0.5934 -0.9552
  118OSM    H6T12377   5.915   5.134   6.986 -0.5561  1.0235  1.6652
  118OSM    C7S12378   5.742   5.259   7.025  0.3290  0.4937  0.3639
  118OSM    H7S12379   5.656   5.191   7.007  0.8630 -0.5196  1.5621
  118OSM    H7T12380   5.714   5.359   6.986  0.8183  0.3392 -0.3808
  118OSM    C8S12381   5.763   5.260   7.175  0.2251 -0.1786 -0.0362
  118OSM    H8S12382   5.852   5.325   7.192 -0.6817  1.9162 -2.9402
  118OSM    H8T12383   5.780   5.158   7.217  1.6504 -0.3703 -1.0564
  118OSM    C9S12384   5.641   5.321   7.249 -0.8060  0.4019  0.1153
  118OSM    H9S12385   5.554   5.264   7.212  1.7098 -2.5790 -1.3920
  118OSM    H9T12386   5.632   5.429   7.224  0.3125  1.1221  2.5996
  118OSM   C10S12387   5.674   5.313   7.404  0.2081  0.3076  0.0959
  118OSM   H10S12388   5.767   5.370   7.422  0.3563 -0.4313  1.8048
  118OSM   H10T12389   5.687   5.206   7.430  0.1563  0.5476  1.1222
  118OSM   C11S12390   5.570   5.379   7.498 -0.1391  0.1867  0.9192
  118OSM   H11S12391   5.464   5.357   7.472 -0.5533  1.6506  1.3387
  118OSM   H11T12392   5.591   5.486   7.474  2.4740 -0.6913 -1.0449
  118OSM   C12S12393   5.602   5.347   7.643 -0.0370  0.2174  1.0471
  118OSM   H12S12394   5.701   5.395   7.660  0.6074 -0.0305 -1.7753
  118OSM   H12T12395   5.618   5.239   7.662  0.9620  0.1131 -0.2490
  118OSM   C13S12396   5.507   5.403   7.751  0.6950 -0.7077  0.4920
  118OSM   H13S12397   5.402   5.373   7.728  0.6224  0.1102 -0.2675
  118OSM   H13T12398   5.513   5.514   7.755 -1.7830 -0.4958 -0.8411
  118OSM   C14S12399   5.557   5.350   7.893 -0.6735 -0.3088 -0.2242
  118OSM   H14S12400   5.667   5.353   7.902 -0.8610 -1.0514  2.7234
  118OSM   H14T12401   5.510   5.249   7.889  0.3444 -0.8428  1.0418
  118OSM   C15S12402   5.487   5.431   8.006 -0.0052  0.3043  0.3198
  118OSM   H15S12403   5.378   5.441   7.991  0.1671  0.3557 -0.9076
  118OSM   H15T12404   5.531   5.530   7.984 -0.3584  0.1137 -1.2978
  118OSM   C16S12405   5.525   5.376   8.146  0.7166 -0.8776 -0.5422
  118OSM   H16S12406   5.636   5.383   8.148  0.7928 -1.6947  4.9379
  118OSM   H16T12407   5.488   5.272   8.146 -2.0679  0.0659  0.4629
  118OSM   C17S12408   5.458   5.451   8.267  0.0791  0.2749 -0.0472
  118OSM   H17S12409   5.352   5.417   8.267 -0.2967  1.3620 -2.1666
  118OSM   H17T12410   5.467   5.560   8.244 -1.9949  0.8775  1.7903
  118OSM   C18S12411   5.524   5.411   8.397  0.0554 -0.8841  0.4877
  118OSM   H18S12412   5.635   5.407   8.400  0.2166  2.8843  1.5653
  118OSM   H18T12413   5.478   5.317   8.433  0.4394 -1.6369 -0.9213
  118OSM   H18U12414   5.505   5.489   8.474 -0.2578 -0.1932 -0.2835
  118OSM    C1F12415   6.137   4.891   6.529 -0.9775  0.1520  0.3585
  118OSM     OF12416   6.207   4.972   6.476  0.2023  0.5686 -0.2713
  118OSM    C2F12417   6.202   4.772   6.594 -0.6799 -0.4102 -0.3864
  118OSM    H2F12418   6.299   4.755   6.543  0.0378 -0.7624  1.0727
  118OSM    H2G12419   6.146   4.681   6.566 -2.6868  1.1104 -1.3899
  118OSM    C3F12420   6.215   4.800   6.742 -0.0158 -0.7441 -0.5148
  118OSM    H3F12421   6.261   4.708   6.784  0.1188 -0.1721  0.6014
  118OSM    H3G12422   6.113   4.809   6.784  0.8214 -1.7961  1.8065
  118OSM    C4F12423   6.313   4.915   6.782  0.0604 -0.1169 -0.8996
  118OSM    H4F12424   6.277   5.016   6.754  0.2388 -0.4320 -2.2769
  118OSM    H4G12425   6.406   4.905   6.723  0.7947  1.1287  0.0487
  118OSM    C5F12426   6.355   4.909   6.929  0.0772  0.2455 -0.3516
  118OSM    H5F12427   6.445   4.965   6.961 -0.2267  1.0819 -0.9222
  118OSM    H5G12428   6.391   4.805   6.936  0.4928  0.3806 -0.4493
  118OSM    C6F12429   6.238   4.948   7.022  0.0954 -0.4202 -0.4420
  118OSM    H6F12430   6.152   4.889   6.984  0.2884 -1.4686  0.7329
  118OSM    H6G12431   6.205   5.053   7.013  2.4838  0.3485 -0.6518
  118OSM    C7F12432   6.269   4.912   7.169  0.4960 -1.1150 -0.6430
  118OSM    H7F12433   6.336   4.993   7.204  1.2091 -2.0525  0.1710
  118OSM    H7G12434   6.319   4.813   7.175 -1.8166 -2.2145  1.8561
  118OSM    C8F12435   6.140   4.921   7.255 -0.3342 -0.1897 -0.3499
  118OSM    H8F12436   6.156   4.864   7.349 -2.8200 -0.3058  0.0364
  118OSM    H8G12437   6.061   4.854   7.214 -0.0415 -0.6352 -0.1834
  118OSM    C9F12438   6.066   5.054   7.281  0.3544 -0.6683  0.1391
  118OSM    H9F12439   6.038   5.111   7.192  2.0025 -1.6318 -1.0276
  118OSM   C10F12440   6.050   5.113   7.402 -0.0807  0.4304 -0.5044
  118OSM   H10F12441   6.015   5.216   7.412  0.2813  0.5505 -0.4669
  118OSM   C11F12442   6.104   5.059   7.529 -0.4242 -0.4152 -0.2529
  118OSM   H11F12443   6.208   5.098   7.534 -1.2545  1.6600  1.4796
  118OSM   H11G12444   6.106   4.948   7.526  4.3453 -0.3966 -1.2768
  118OSM   C12F12445   6.026   5.114   7.649  0.3927 -0.7360  0.1529
  118OSM   H12F12446   5.919   5.086   7.637  0.5843 -1.5046  0.2073
  118OSM   H12G12447   6.037   5.225   7.643  1.8110 -0.9335 -1.1892
  118OSM   C13F12448   6.075   5.070   7.782 -0.3261 -0.0670  0.5197
  118OSM   H13F12449   6.179   5.031   7.790 -1.3616 -3.2622 -0.5894
  118OSM   H13G12450   6.018   4.979   7.808  1.7331 -0.9632  2.0417
  118OSM   C14F12451   6.035   5.175   7.888  0.5365 -0.1252 -0.5963
  118OSM   H14F12452   5.925   5.176   7.872 -0.0455 -2.4272  2.7978
  118OSM   H14G12453   6.071   5.273   7.852 -0.3406  0.5254  0.2663
  118OSM   C15F12454   6.067   5.138   8.034  0.4229 -0.2961 -0.3845
  118OSM   H15F12455   6.170   5.095   8.029 -0.0234 -1.2978 -1.4710
  118OSM   H15G12456   6.003   5.052   8.062 -0.3915  0.8113  1.2057
  118OSM   C16F12457   6.045   5.257   8.130 -0.1070 -0.2811  0.5453
  118OSM   H16F12458   5.936   5.255   8.151 -0.4160 -1.3268 -1.0764
  118OSM   H16G12459   6.067   5.353   8.079 -0.9473  0.1539  0.9831
  118OSM   C17F12460   6.137   5.251   8.247 -0.1024 -0.1602 -0.4945
  118OSM   H17F12461   6.239   5.234   8.205  0.9561 -0.5378  2.1606
  118OSM   H17G12462   6.120   5.161   8.308  0.7478  0.8790  1.3078
  118OSM   C18F12463   6.147   5.389   8.326  0.5437  0.5206  0.2211
  118OSM   H18F12464   6.050   5.429   8.364  1.6790  0.1909  3.5945
  118OSM   H18G12465   6.198   5.463   8.260  0.0435  1.4580  0.8680
  118OSM   H18H12466   6.209   5.382   8.418 -1.6901 -2.3300  1.6055
  119OSM      N12467   0.709   4.411   5.853 -0.3121 -0.0448  0.3248
  119OSM    C1512468   0.643   4.326   5.760  0.0647  0.2165  0.1948
  119OSM   H15A12469   0.595   4.246   5.814  0.3064 -1.0498 -1.4477
  119OSM   H15B12470   0.708   4.272   5.693  1.8017 -0.1292  2.1151
  119OSM   H15C12471   0.561   4.374   5.709 -0.9378 -1.2349  0.3966
  119OSM    C1412472   0.795   4.325   5.943 -0.5621  0.2043  1.4942
  119OSM   H14A12473   0.849   4.373   6.022  0.5898  1.7288 -0.1757
  119OSM   H14B12474   0.854   4.273   5.868 -0.9382  3.4332 -1.1875
  119OSM   H14C12475   0.738   4.250   5.995 -1.2231  0.9271  1.8223
  119OSM    C1312476   0.799   4.509   5.779  0.5422 -0.0784 -0.0223
  119OSM   H13A12477   0.863   4.568   5.842  2.6460 -0.9357 -1.2808
  119OSM   H13B12478   0.739   4.577   5.720 -0.3093 -0.7684  0.0431
  119OSM   H13C12479   0.862   4.446   5.717  2.2388  1.2436  0.3045
  119OSM    C1212480   0.615   4.482   5.946 -0.1054 -0.2323 -0.7546
  119OSM   H12A12481   0.674   4.551   6.005  0.3811 -0.3239 -1.1343
  119OSM   H12B12482   0.561   4.410   6.006  1.7374 -2.5270 -1.7337
  119OSM    C1112483   0.488   4.548   5.887  0.1562  0.0405  0.5793
  119OSM   H11A12484   0.519   4.619   5.807 -1.8661  1.3752  0.9266
  119OSM   H11B12485   0.438   4.617   5.959 -2.3927 -1.4392  0.2790
  119OSM      P12486   0.320   4.352   5.916 -0.3083 -0.5656 -0.1926
  119OSM    O1312487   0.180   4.346   5.872  0.6066  0.5681 -0.0106
  119OSM    O1412488   0.391   4.226   5.931  0.0990  0.4218  0.4758
  119OSM    O1112489   0.312   4.413   6.063  0.1019  0.0006  0.2834
  119OSM    O1212490   0.398   4.453   5.828  0.7694 -0.1656  0.1118
  119OSM    C1S12491   0.239   4.343   6.169  0.1634 -0.0797  0.1170
  119OSM    H1S12492   0.257   4.234   6.155 -0.9065 -0.3634  0.8294
  119OSM    H1T12493   0.130   4.356   6.151  0.0867 -0.9006 -0.0340
  119OSM     NF12494   0.234   4.274   6.409  0.0662  0.6337 -0.0315
  119OSM    HNF12495   0.152   4.308   6.455 -1.1536  0.2658 -1.8801
  119OSM    C2S12496   0.295   4.363   6.312 -0.1799 -0.4159 -0.4068
  119OSM    H2S12497   0.405   4.344   6.308 -0.4496 -1.6198 -3.0500
  119OSM    C3S12498   0.285   4.515   6.345  1.1619  0.0787  0.8370
  119OSM    H3S12499   0.177   4.541   6.342  1.3629  0.7377 -2.7327
  119OSM     O312500   0.346   4.600   6.247 -0.4018  0.5410 -0.3252
  119OSM    HO312501   0.342   4.541   6.171  1.5227 -0.5004  0.3415
  119OSM    C4S12502   0.343   4.544   6.480 -0.1001  0.4722 -0.9269
  119OSM    H4S12503   0.444   4.505   6.502 -0.4161  0.2300  0.1318
  119OSM    C5S12504   0.274   4.616   6.570  0.1991  0.7269  0.8064
  119OSM    H5S12505   0.168   4.645   6.556  0.0776 -0.2426 -0.3472
  119OSM    C6S12506   0.334   4.634   6.704 -0.2925 -0.8501  0.4173
  119OSM    H6S12507   0.435   4.674   6.681 -0.6589 -0.7729 -1.1531
  119OSM    H6T12508   0.362   4.539   6.754  1.3343 -0.1214  0.9352
  119OSM    C7S12509   0.252   4.734   6.792  0.2867  0.1054 -0.2714
  119OSM    H7S12510   0.152   4.695   6.820  0.8402 -1.7768 -0.8154
  119OSM    H7T12511   0.251   4.837   6.750  1.3841 -0.0425 -0.6917
  119OSM    C8S12512   0.316   4.759   6.936  0.2889  0.5743 -0.2214
  119OSM    H8S12513   0.284   4.864   6.953  1.5596  1.1138 -1.1217
  119OSM    H8T12514   0.427   4.748   6.933  0.0365 -3.0110  0.9228
  119OSM    C9S12515   0.251   4.680   7.061  0.9297 -0.0804 -0.2537
  119OSM    H9S12516   0.258   4.573   7.032 -0.1862  0.3550 -2.2028
  119OSM    H9T12517   0.143   4.703   7.055  1.2995  1.5935 -0.8268
  119OSM   C10S12518   0.313   4.713   7.196 -0.0023 -0.3240 -0.0145
  119OSM   H10S12519   0.422   4.713   7.179 -0.3709 -0.5367 -2.5841
  119OSM   H10T12520   0.297   4.629   7.266  0.2443  2.4704  3.5314
  119OSM   C11S12521   0.270   4.856   7.248  0.1080  0.5821 -0.8199
  119OSM   H11S12522   0.159   4.864   7.250  0.1106  0.2476  1.7632
  119OSM   H11T12523   0.309   4.920   7.165  0.2806  3.0748  1.1056
  119OSM   C12S12524   0.338   4.890   7.379 -0.2015  0.2882 -0.0928
  119OSM   H12S12525   0.315   4.998   7.390 -1.1831  0.0043  0.6108
  119OSM   H12T12526   0.448   4.877   7.367  0.2746  3.1818  0.7117
  119OSM   C13S12527   0.275   4.811   7.494 -1.2522 -0.5611 -0.2099
  119OSM   H13S12528   0.273   4.702   7.472 -2.4717 -1.0656  2.1940
  119OSM   H13T12529   0.170   4.845   7.506 -0.9350  0.3616  0.0533
  119OSM   C14S12530   0.353   4.840   7.625 -0.3644  0.2060 -0.7367
  119OSM   H14S12531   0.331   4.945   7.654 -3.8271 -0.4182 -0.9121
  119OSM   H14T12532   0.463   4.836   7.613 -0.1574  0.9245  0.9017
  119OSM   C15S12533   0.298   4.751   7.737 -0.1246  0.2695  0.3556
  119OSM   H15S12534   0.332   4.647   7.714  2.1398  0.7006  1.6468
  119OSM   H15T12535   0.188   4.759   7.749 -0.2439  1.4572 -1.2953
  119OSM   C16S12536   0.356   4.796   7.875 -0.3396  0.1743 -1.1874
  119OSM   H16S12537   0.428   4.878   7.856  0.6807 -0.2082  0.9318
  119OSM   H16T12538   0.404   4.708   7.921 -0.6141 -0.0220 -1.2731
  119OSM   C17S12539   0.251   4.844   7.976  0.3653  0.6163 -0.2217
  119OSM   H17S12540   0.170   4.893   7.918  1.3436 -2.4409 -4.3980
  119OSM   H17T12541   0.304   4.916   8.042 -2.2280  2.2041  0.1811
  119OSM   C18S12542   0.195   4.741   8.074  0.1358  0.2415  0.2273
  119OSM   H18S12543   0.270   4.735   8.155  1.0325  0.2760 -0.5988
  119OSM   H18T12544   0.174   4.641   8.028 -0.5568  1.1925 -1.6023
  119OSM   H18U12545   0.098   4.773   8.118  1.2228  0.4558  2.4968
  119OSM    C1F12546   0.255   4.142   6.409  0.2407 -0.5320 -0.0719
  119OSM     OF12547   0.347   4.093   6.349  0.3856  0.2022  0.0389
  119OSM    C2F12548   0.149   4.055   6.470 -0.2767 -0.2077  0.3210
  119OSM    H2F12549   0.103   3.997   6.387  0.6607 -0.5488  0.0339
  119OSM    H2G12550   0.067   4.120   6.508 -0.9600  0.0036 -1.4657
  119OSM    C3F12551   0.193   3.962   6.579  0.0452  0.2092 -0.1133
  119OSM    H3F12552   0.276   3.894   6.548 -0.5241 -0.5623  0.0283
  119OSM    H3G12553   0.116   3.881   6.585 -0.0883  0.4133  1.0750
  119OSM    C4F12554   0.225   4.023   6.719  0.5937  0.1951  0.7295
  119OSM    H4F12555   0.310   4.092   6.704  0.3144  0.1409 -1.2766
  119OSM    H4G12556   0.259   3.947   6.793 -1.8729 -0.5768  1.1258
  119OSM    C5F12557   0.107   4.095   6.776  0.6215 -0.3858  0.0234
  119OSM    H5F12558   0.021   4.030   6.801  1.1513 -1.1145 -0.0345
  119OSM    H5G12559   0.076   4.172   6.702  1.1001 -0.1167  0.1031
  119OSM    C6F12560   0.130   4.172   6.907 -0.4938  0.1993  0.2799
  119OSM    H6F12561   0.032   4.219   6.932  0.0020  1.6325 -0.4560
  119OSM    H6G12562   0.204   4.253   6.889 -1.8057  1.4994  0.6323
  119OSM    C7F12563   0.173   4.087   7.024 -0.5720 -0.7409 -0.7336
  119OSM    H7F12564   0.263   4.029   6.994  0.9694  1.1436  0.1126
  119OSM    H7G12565   0.098   4.018   7.069 -0.4463  0.2695  1.0958
  119OSM    C8F12566   0.224   4.183   7.137  0.2981 -0.0594 -0.2844
  119OSM    H8F12567   0.322   4.222   7.104  0.9592 -2.6700 -1.5644
  119OSM    H8G12568   0.249   4.115   7.222 -0.4055 -0.1362 -0.1366
  119OSM    C9F12569   0.120   4.294   7.169 -0.5163 -0.2160  0.0553
  119OSM    H9F12570   0.073   4.353   7.088 -0.5061  0.3091  0.4299
  119OSM   C10F12571   0.080   4.311   7.295  0.1588  0.0974 -0.0953
  119OSM   H10F12572   0.006   4.388   7.318 -1.7634 -1.2119 -1.6886
  119OSM   C11F12573   0.127   4.237   7.425 -0.5483  0.5082 -0.1728
  119OSM   H11F12574   0.181   4.144   7.398 -1.3197 -0.2126  0.7188
  119OSM   H11G12575   0.033   4.208   7.477  0.1150 -2.2924 -0.4337
  119OSM   C12F12576   0.211   4.315   7.525  0.3151  0.0402 -0.4284
  119OSM   H12F12577   0.147   4.405   7.541 -1.2374 -0.8601 -1.4923
  119OSM   H12G12578   0.314   4.331   7.486  0.8204 -1.5516  0.2198
  119OSM   C13F12579   0.219   4.235   7.654 -0.0737  0.0812 -0.2834
  119OSM   H13F12580   0.298   4.156   7.656 -0.7639 -0.6972 -2.3548
  119OSM   H13G12581   0.123   4.180   7.669 -0.4861  0.3243 -1.9377
  119OSM   C14F12582   0.257   4.337   7.765 -0.5280 -0.5179 -0.0902
  119OSM   H14F12583   0.165   4.389   7.800  0.8617  2.1887 -0.3647
  119OSM   H14G12584   0.318   4.422   7.727  2.2398 -1.8990  1.1661
  119OSM   C15F12585   0.323   4.266   7.880  0.6999 -0.0548  0.2277
  119OSM   H15F12586   0.428   4.237   7.858  0.4188 -2.2691  1.7198
  119OSM   H15G12587   0.266   4.173   7.897  2.3905 -1.2940 -0.6674
  119OSM   C16F12588   0.326   4.347   8.011 -0.0394 -0.0085 -0.4440
  119OSM   H16F12589   0.222   4.386   8.025  0.9713  2.2392  1.0748
  119OSM   H16G12590   0.397   4.432   7.997  0.3341  0.0410  1.5930
  119OSM   C17F12591   0.374   4.263   8.134  0.2736  0.2094  0.4326
  119OSM   H17F12592   0.301   4.180   8.149  0.9953 -0.8821 -1.7564
  119OSM   H17G12593   0.359   4.328   8.223  0.6435  0.9582 -0.0488
  119OSM   C18F12594   0.514   4.208   8.135  0.4278 -0.4959 -0.0142
  119OSM   H18F12595   0.537   4.175   8.239 -4.0224 -0.3631  1.1068
  119OSM   H18G12596   0.588   4.289   8.117 -0.0600 -0.2778 -1.0529
  119OSM   H18H12597   0.529   4.125   8.062 -1.0475 -0.5201 -0.2938
  120OSM      N12598   4.693   1.893   6.651 -0.3455 -0.1248  0.1320
  120OSM    C1512599   4.665   1.794   6.762  0.4359 -0.2236  0.3926
  120OSM   H15A12600   4.747   1.723   6.765  1.1704  0.6343  0.5610
  120OSM   H15B12601   4.568   1.748   6.748  1.0084 -1.6566  1.0035
  120OSM   H15C12602   4.655   1.852   6.852 -0.3917  2.3606 -1.3272
  120OSM    C1412603   4.589   2.000   6.661 -0.6661 -0.1055 -0.8030
  120OSM   H14A12604   4.588   2.049   6.757  1.3341  1.2651 -1.4234
  120OSM   H14B12605   4.494   1.956   6.636 -0.2797 -2.3673  1.5717
  120OSM   H14C12606   4.612   2.084   6.597 -3.8844 -0.0057 -1.9006
  120OSM    C1312607   4.828   1.956   6.679 -0.4717  0.4111  0.4882
  120OSM   H13A12608   4.896   1.875   6.704 -0.7869 -0.2163 -0.6915
  120OSM   H13B12609   4.815   2.027   6.760  0.7368  1.1256  0.0825
  120OSM   H13C12610   4.859   1.998   6.585  1.6143 -1.3601  0.3353
  120OSM    C1212611   4.693   1.826   6.513 -1.3212 -0.2610 -0.3711
  120OSM   H12A12612   4.720   1.898   6.437  0.2570 -0.2002  0.2278
  120OSM   H12B12613   4.594   1.783   6.505  0.0563 -3.3631 -1.5362
  120OSM    C1112614   4.778   1.705   6.484 -0.2915 -0.2247 -0.0370
  120OSM   H11A12615   4.880   1.719   6.523 -0.9234  2.6887  0.6514
  120OSM   H11B12616   4.796   1.689   6.376  1.0236  0.0754  0.1372
  120OSM      P12617   4.690   1.454   6.460  0.0582  0.2807 -0.0430
  120OSM    O1312618   4.561   1.404   6.505 -0.5745 -0.2375  0.4616
  120OSM    O1412619   4.705   1.471   6.316 -0.4887 -0.1860 -0.3454
  120OSM    O1112620   4.803   1.349   6.500 -0.1872 -0.0521  0.2824
  120OSM    O1212621   4.718   1.585   6.540  0.1503 -0.3657  0.1325
  120OSM    C1S12622   4.878   1.371   6.620 -0.2003  0.7043  0.1794
  120OSM    H1S12623   4.897   1.475   6.653  0.4655 -0.0594  2.3178
  120OSM    H1T12624   4.979   1.330   6.596 -0.6175  0.0941 -0.5414
  120OSM     NF12625   4.903   1.311   6.857  0.2254 -0.0930 -0.5922
  120OSM    HNF12626   4.982   1.257   6.888 -1.3422 -0.0598  3.8364
  120OSM    C2S12627   4.820   1.287   6.735  0.4069 -0.6531  0.1350
  120OSM    H2S12628   4.720   1.331   6.755  0.9381  0.3168  0.7360
  120OSM    C3S12629   4.801   1.136   6.701 -0.0030  0.5322  0.1598
  120OSM    H3S12630   4.900   1.098   6.670 -0.0916 -1.7100  2.4374
  120OSM     O312631   4.713   1.107   6.600 -0.1354 -0.2644  0.4072
  120OSM    HO312632   4.699   1.195   6.563 -1.7500 -1.1161 -1.0259
  120OSM    C4S12633   4.756   1.055   6.823  0.6205 -0.8415  0.4314
  120OSM    H4S12634   4.656   1.087   6.854  0.2143 -0.5126 -1.1372
  120OSM    C5S12635   4.812   0.951   6.874 -0.5874  0.0200 -0.0753
  120OSM    H5S12636   4.892   0.895   6.824 -1.0540 -1.0737  0.3932
  120OSM    C6S12637   4.758   0.875   6.993  0.0742 -0.3674  0.3840
  120OSM    H6S12638   4.723   0.784   6.940 -0.9361  0.2662 -0.0528
  120OSM    H6T12639   4.667   0.925   7.031  1.3024  1.4956  0.9723
  120OSM    C7S12640   4.855   0.829   7.105  0.1935  0.3308 -0.1258
  120OSM    H7S12641   4.913   0.744   7.065  2.2026  0.1334  3.0324
  120OSM    H7T12642   4.786   0.801   7.187 -0.4150  4.5901  0.9660
  120OSM    C8S12643   4.950   0.938   7.164  0.6993  0.1516 -0.1641
  120OSM    H8S12644   4.880   1.016   7.201 -0.6798 -0.8034 -0.7343
  120OSM    H8T12645   5.019   0.974   7.084  0.0161  0.0581 -0.8022
  120OSM    C9S12646   5.034   0.870   7.269 -0.2977 -0.6854 -0.3915
  120OSM    H9S12647   5.102   0.796   7.223  1.3310 -0.1893  1.1563
  120OSM    H9T12648   4.971   0.812   7.339  0.1914  0.2350  0.8508
  120OSM   C10S12649   5.127   0.954   7.354  0.2953  0.4800 -0.5343
  120OSM   H10S12650   5.055   1.018   7.410 -1.6235 -1.4931 -0.7157
  120OSM   H10T12651   5.200   1.010   7.291  3.9339 -2.3209  1.0307
  120OSM   C11S12652   5.214   0.885   7.461 -0.5709  0.1655  0.8215
  120OSM   H11S12653   5.255   0.788   7.424 -2.9919 -0.9956  1.0921
  120OSM   H11T12654   5.150   0.845   7.543  0.5786 -0.9366  1.1852
  120OSM   C12S12655   5.324   0.976   7.535  0.0983 -0.1100 -0.2596
  120OSM   H12S12656   5.271   1.063   7.580  0.5227 -0.6074  1.2467
  120OSM   H12T12657   5.397   1.009   7.458 -1.7336  0.5272 -1.7562
  120OSM   C13S12658   5.389   0.899   7.652 -0.8407 -0.3812 -0.2447
  120OSM   H13S12659   5.477   0.963   7.679 -1.8532  1.1425 -0.4747
  120OSM   H13T12660   5.432   0.802   7.618 -0.4955  0.3575 -1.9885
  120OSM   C14S12661   5.291   0.865   7.766  0.1378 -0.4802  0.4369
  120OSM   H14S12662   5.238   0.772   7.737 -1.2685  0.9263 -1.6393
  120OSM   H14T12663   5.224   0.950   7.789 -1.1743 -1.1363 -0.8782
  120OSM   C15S12664   5.376   0.830   7.888 -0.6085 -0.0110  0.3892
  120OSM   H15S12665   5.463   0.900   7.888  0.0573 -0.8107 -0.8032
  120OSM   H15T12666   5.420   0.731   7.864 -0.7610 -0.2448  1.0606
  120OSM   C16S12667   5.312   0.855   8.033  0.4439  0.1157  0.1827
  120OSM   H16S12668   5.214   0.805   8.043  0.6414 -0.5291 -1.0222
  120OSM   H16T12669   5.284   0.962   8.042  2.2204  0.8277 -2.1186
  120OSM   C17S12670   5.397   0.805   8.154  0.2024 -0.5225 -0.1625
  120OSM   H17S12671   5.500   0.837   8.130 -0.3344 -0.6587 -2.7742
  120OSM   H17T12672   5.391   0.694   8.155 -0.0370 -0.5154 -0.6135
  120OSM   C18S12673   5.343   0.862   8.287  0.5942 -0.3794  0.9229
  120OSM   H18S12674   5.420   0.848   8.365 -0.2339  1.3081  2.0748
  120OSM   H18T12675   5.245   0.816   8.314  0.2973  0.2977  1.0154
  120OSM   H18U12676   5.335   0.973   8.277  1.5608 -0.5278 -1.8516
  120OSM    C1F12677   4.917   1.422   6.917 -0.6937 -0.2448  0.1388
  120OSM     OF12678   4.828   1.509   6.903 -0.5367 -0.2926 -0.2541
  120OSM    C2F12679   5.043   1.444   6.996  0.7813 -0.4899 -0.0702
  120OSM    H2F12680   5.128   1.452   6.925  2.0576 -1.4835  1.3189
  120OSM    H2G12681   5.065   1.350   7.050  1.6567  0.9697  2.1911
  120OSM    C3F12682   5.042   1.577   7.068 -0.3633  0.4715 -0.1548
  120OSM    H3F12683   4.951   1.571   7.132 -1.1764 -1.3212 -1.4529
  120OSM    H3G12684   5.037   1.663   6.998 -1.6396  0.3047 -0.2701
  120OSM    C4F12685   5.162   1.605   7.150  0.1378  0.6244  0.0960
  120OSM    H4F12686   5.151   1.702   7.203 -0.2021 -0.3764  1.9035
  120OSM    H4G12687   5.257   1.610   7.092 -1.1230  2.0429 -1.8904
  120OSM    C5F12688   5.180   1.493   7.246  0.5897  0.1884 -0.4991
  120OSM    H5F12689   5.214   1.400   7.197  2.0731 -2.0136  4.4187
  120OSM    H5G12690   5.081   1.480   7.296  0.7669  0.1186 -0.1652
  120OSM    C6F12691   5.278   1.535   7.352  0.7053 -0.5686  0.3322
  120OSM    H6F12692   5.242   1.629   7.398 -1.4604 -2.2004  2.0605
  120OSM    H6G12693   5.375   1.554   7.301  1.2685 -1.0072  1.2326
  120OSM    C7F12694   5.319   1.434   7.456 -0.0891 -0.0295  0.7018
  120OSM    H7F12695   5.419   1.463   7.497  0.7333  1.8702 -2.4860
  120OSM    H7G12696   5.341   1.336   7.410 -2.5775 -0.2486 -0.0904
  120OSM    C8F12697   5.220   1.441   7.570 -0.2909  0.4051  0.3469
  120OSM    H8F12698   5.117   1.427   7.532 -0.0554  1.7591 -0.8194
  120OSM    H8G12699   5.209   1.534   7.628  0.7072  0.3308  0.6790
  120OSM    C9F12700   5.253   1.337   7.676 -0.9854 -0.9581 -0.0548
  120OSM    H9F12701   5.188   1.249   7.671 -3.6768  0.9559  0.4749
  120OSM   C10F12702   5.346   1.345   7.773 -0.1808 -1.0551  0.7504
  120OSM   H10F12703   5.348   1.266   7.849 -1.0030 -0.6864  1.1562
  120OSM   C11F12704   5.440   1.457   7.808 -0.6491  0.0080 -0.3441
  120OSM   H11F12705   5.418   1.473   7.916 -1.4453 -0.7946 -0.3780
  120OSM   H11G12706   5.417   1.547   7.747 -0.4887 -0.2317 -0.7549
  120OSM   C12F12707   5.588   1.419   7.811  0.2535 -0.4579 -0.8694
  120OSM   H12F12708   5.601   1.341   7.889 -2.0808 -1.7876 -1.7796
  120OSM   H12G12709   5.653   1.505   7.841 -0.5533 -0.3004  0.4961
  120OSM   C13F12710   5.648   1.365   7.680  0.3857 -0.2811 -0.4349
  120OSM   H13F12711   5.563   1.336   7.615 -0.8106 -1.6939  1.7392
  120OSM   H13G12712   5.720   1.282   7.692 -0.3078 -1.0823 -1.6749
  120OSM   C14F12713   5.722   1.471   7.602  0.0544  0.5658  0.4685
  120OSM   H14F12714   5.828   1.484   7.633  0.4175 -0.4463 -0.3254
  120OSM   H14G12715   5.669   1.568   7.600 -1.1452 -0.1043 -3.1628
  120OSM   C15F12716   5.727   1.436   7.451 -0.5102 -0.1850  0.6951
  120OSM   H15F12717   5.619   1.426   7.427 -0.4982  0.1505  0.4984
  120OSM   H15G12718   5.778   1.340   7.427 -0.7432 -0.0589 -0.3325
  120OSM   C16F12719   5.776   1.538   7.350  0.4994  0.5728  0.6593
  120OSM   H16F12720   5.887   1.544   7.357  0.5139  1.0129  0.0018
  120OSM   H16G12721   5.733   1.635   7.383 -1.5867 -0.1710  0.2132
  120OSM   C17F12722   5.762   1.514   7.195 -0.8950  0.5401 -0.4492
  120OSM   H17F12723   5.809   1.415   7.179 -0.5958  0.6362 -0.1958
  120OSM   H17G12724   5.830   1.586   7.144  0.9382 -1.0121 -0.2484
  120OSM   C18F12725   5.622   1.527   7.134  0.9696  0.3335 -0.7983
  120OSM   H18F12726   5.575   1.618   7.178 -2.9367 -1.2830 -1.4224
  120OSM   H18G12727   5.559   1.442   7.167 -2.3400  3.1758  0.5760
  120OSM   H18H12728   5.614   1.521   7.024 -3.4711  0.1576 -0.5475
  121OSM      N12729   6.088   3.104   6.011 -0.0086 -0.3922  0.4922
  121OSM    C1512730   5.953   3.136   5.960 -0.7718  0.1398  0.3417
  121OSM   H15A12731   5.938   3.087   5.865  0.1203 -0.7780  0.6761
  121OSM   H15B12732   5.936   3.242   5.945 -1.9955  0.0296  0.8287
  121OSM   H15C12733   5.875   3.109   6.030  0.5994 -0.9909  1.4474
  121OSM    C1412734   6.082   2.962   6.055 -0.2200  0.2137 -0.7441
  121OSM   H14A12735   5.991   2.936   6.107  0.7811 -2.1720 -0.1370
  121OSM   H14B12736   6.172   2.933   6.106 -1.3595 -1.7696  0.2071
  121OSM   H14C12737   6.077   2.898   5.967 -1.2870  0.5356 -0.9266
  121OSM    C1312738   6.178   3.120   5.899 -0.0903 -0.3682  0.5757
  121OSM   H13A12739   6.172   3.222   5.864  0.1714  0.1649  2.0558
  121OSM   H13B12740   6.160   3.062   5.809  0.1037 -2.5065  1.8979
  121OSM   H13C12741   6.280   3.092   5.919  0.7389  2.3562  0.3319
  121OSM    C1212742   6.118   3.201   6.124 -0.3806 -0.4519 -0.5009
  121OSM   H12A12743   6.037   3.203   6.196  0.3696 -2.6015  0.4413
  121OSM   H12B12744   6.125   3.301   6.085 -2.2413 -0.4303 -0.8225
  121OSM    C1112745   6.244   3.166   6.217  0.0570  0.0018 -0.4419
  121OSM   H11A12746   6.214   3.066   6.255  0.3546  0.2342  0.4079
  121OSM   H11B12747   6.237   3.231   6.307 -0.1162 -0.5639 -0.0434
  121OSM      P12748   6.442   3.316   6.127  0.0566  0.0122  0.2496
  121OSM    O1312749   6.534   3.306   6.005 -0.1280  0.7285  0.1355
  121OSM    O1412750   6.334   3.419   6.116  0.0609  0.6083  0.4636
  121OSM    O1112751   6.528   3.357   6.256  0.5079  0.5047  0.2025
  121OSM    O1212752   6.370   3.171   6.150  0.3586  0.7672 -0.0324
  121OSM    C1S12753   6.459   3.359   6.383  0.0242 -0.5678  0.1269
  121OSM    H1S12754   6.427   3.258   6.415  0.7129 -0.7149  0.3717
  121OSM    H1T12755   6.377   3.434   6.388  1.4173  1.0550 -0.6448
  121OSM     NF12756   6.473   3.365   6.629 -1.1830 -0.3846  0.2254
  121OSM    HNF12757   6.405   3.434   6.653  1.8388  1.8349  2.9274
  121OSM    C2S12758   6.547   3.400   6.502 -0.0319  0.1955 -0.5306
  121OSM    H2S12759   6.639   3.338   6.496 -1.5849 -2.5476  2.3212
  121OSM    C3S12760   6.589   3.551   6.489 -0.3347 -0.0668 -0.0864
  121OSM    H3S12761   6.493   3.608   6.493 -0.1819  0.3852 -2.4471
  121OSM     O312762   6.639   3.589   6.361  0.0892 -0.5463  0.4792
  121OSM    HO312763   6.619   3.515   6.304 -2.9041  1.8432 -1.7817
  121OSM    C4S12764   6.691   3.574   6.599  0.3728 -0.4893  0.8358
  121OSM    H4S12765   6.638   3.589   6.694  2.3459 -0.6505  1.9808
  121OSM    C5S12766   6.823   3.579   6.603  0.1784  0.8257 -0.1911
  121OSM    H5S12767   6.870   3.558   6.506  1.7821 -0.5819  0.8530
  121OSM    C6S12768   6.907   3.609   6.729 -0.4576  0.1153  0.3056
  121OSM    H6S12769   6.912   3.719   6.744 -1.1578  0.3709 -1.2715
  121OSM    H6T12770   7.008   3.568   6.709 -0.3917  0.9130 -1.0788
  121OSM    C7S12771   6.851   3.548   6.863  0.3031 -0.5777  0.7834
  121OSM    H7S12772   6.818   3.443   6.842 -0.2294 -0.7212  2.2990
  121OSM    H7T12773   6.756   3.605   6.874  3.0378  3.8523  2.2198
  121OSM    C8S12774   6.937   3.567   6.987 -0.3802  0.1622  0.1135
  121OSM    H8S12775   7.039   3.525   6.980 -0.6222 -0.1434 -1.8730
  121OSM    H8T12776   6.887   3.524   7.076 -0.2946  0.2736  0.2167
  121OSM    C9S12777   6.970   3.717   7.011 -0.0921  0.8036  0.0169
  121OSM    H9S12778   6.872   3.770   7.010 -0.4646  0.1465  0.9445
  121OSM    H9T12779   7.035   3.757   6.930  0.4820  0.5766  0.3641
  121OSM   C10S12780   7.037   3.739   7.144 -0.1560  0.6240  0.0960
  121OSM   H10S12781   7.093   3.836   7.143  2.0084 -0.5982 -0.8310
  121OSM   H10T12782   7.112   3.663   7.175  0.2397  0.4803 -1.1759
  121OSM   C11S12783   6.935   3.760   7.253 -0.1757 -0.0130 -0.1730
  121OSM   H11S12784   6.886   3.663   7.278 -2.3270  1.0052 -0.3738
  121OSM   H11T12785   6.865   3.838   7.216  0.7119  0.0982 -1.6663
  121OSM   C12S12786   6.992   3.800   7.391 -0.0768 -0.2321  0.6038
  121OSM   H12S12787   7.075   3.871   7.372 -0.7879  0.0993 -1.4196
  121OSM   H12T12788   7.035   3.710   7.441  0.5815  0.4146  1.2020
  121OSM   C13S12789   6.878   3.868   7.461  0.4749  0.0263 -0.1119
  121OSM   H13S12790   6.783   3.811   7.450  0.3888  0.3142 -0.8741
  121OSM   H13T12791   6.860   3.969   7.419  1.6564  0.7827  1.1410
  121OSM   C14S12792   6.889   3.885   7.610  1.1644  0.9253  0.3724
  121OSM   H14S12793   6.973   3.950   7.644  0.0636  2.6025 -0.0637
  121OSM   H14T12794   6.908   3.783   7.651  1.3503 -0.5915 -3.3262
  121OSM   C15S12795   6.760   3.949   7.672 -0.5228  0.0254 -0.4598
  121OSM   H15S12796   6.693   3.962   7.584 -0.1882  1.8794 -0.4602
  121OSM   H15T12797   6.762   4.046   7.726 -0.7048  0.1938 -0.7517
  121OSM   C16S12798   6.697   3.844   7.767  0.2220  0.2649 -0.3902
  121OSM   H16S12799   6.779   3.813   7.835  2.2877  0.3251 -2.7882
  121OSM   H16T12800   6.673   3.750   7.712  0.5882 -0.5069  0.7608
  121OSM   C17S12801   6.571   3.896   7.842  0.1759 -0.4205 -0.0029
  121OSM   H17S12802   6.525   3.962   7.765 -0.4580 -0.4791  0.3262
  121OSM   H17T12803   6.594   3.972   7.920 -2.1199  0.2773  0.0307
  121OSM   C18S12804   6.483   3.787   7.894 -0.3948  0.7226 -0.1403
  121OSM   H18S12805   6.380   3.828   7.904  0.3395  2.7034 -0.3923
  121OSM   H18T12806   6.520   3.750   7.991  1.2691  3.5382  0.3415
  121OSM   H18U12807   6.476   3.705   7.819  2.7957  1.1870 -1.0352
  121OSM    C1F12808   6.459   3.241   6.671  0.5042 -0.1447  0.4210
  121OSM     OF12809   6.510   3.148   6.616 -0.0146 -0.0672  0.1943
  121OSM    C2F12810   6.363   3.216   6.788 -1.2986 -0.0673 -0.3484
  121OSM    H2F12811   6.263   3.258   6.769 -1.0448  1.8142  2.1918
  121OSM    H2G12812   6.401   3.262   6.882 -1.1395  0.4328 -0.6615
  121OSM    C3F12813   6.332   3.065   6.820  0.1645  0.8359  0.3069
  121OSM    H3F12814   6.427   3.009   6.829 -0.8915 -0.6407  2.4843
  121OSM    H3G12815   6.270   3.031   6.734  0.0590  1.9756 -0.0816
  121OSM    C4F12816   6.245   3.021   6.937  0.6986 -0.5347  0.3628
  121OSM    H4F12817   6.210   2.916   6.932 -2.0544  0.2462  1.8597
  121OSM    H4G12818   6.160   3.092   6.928  0.9633 -0.3818 -0.9982
  121OSM    C5F12819   6.302   3.065   7.072  0.4219 -0.3501 -0.3348
  121OSM    H5F12820   6.314   3.176   7.071 -0.0539 -0.3027 -2.6344
  121OSM    H5G12821   6.400   3.013   7.081  0.9511  0.8409  0.9030
  121OSM    C6F12822   6.196   3.029   7.178  0.1118  0.2400 -0.5325
  121OSM    H6F12823   6.160   2.924   7.170  1.1998 -0.3892  2.0740
  121OSM    H6G12824   6.109   3.096   7.168 -2.0088 -2.2402  0.7028
  121OSM    C7F12825   6.254   3.035   7.318  0.2449 -0.9133 -0.3206
  121OSM    H7F12826   6.310   3.130   7.331 -0.2755 -0.7433  0.7608
  121OSM    H7G12827   6.316   2.943   7.325 -1.2937 -2.0027 -0.8340
  121OSM    C8F12828   6.147   3.034   7.424 -0.3465  0.6408 -0.3940
  121OSM    H8F12829   6.085   2.942   7.415 -0.8528  0.8206  1.1725
  121OSM    H8G12830   6.083   3.123   7.407 -2.2177 -0.8434 -1.3230
  121OSM    C9F12831   6.207   3.036   7.562 -0.6343 -0.1122  0.5468
  121OSM    H9F12832   6.295   2.971   7.574 -0.1300  0.8350  2.1397
  121OSM   C10F12833   6.172   3.108   7.670 -0.1761  0.4612  0.1677
  121OSM   H10F12834   6.226   3.095   7.764  0.1615 -1.5789 -0.2720
  121OSM   C11F12835   6.061   3.213   7.686  0.8884  0.5679 -0.5699
  121OSM   H11F12836   6.009   3.211   7.588  2.0008  0.5424 -1.1738
  121OSM   H11G12837   6.111   3.312   7.695  0.0141  0.7482  2.9012
  121OSM   C12F12838   5.967   3.208   7.809  0.0968 -0.0184  0.1496
  121OSM   H12F12839   5.925   3.106   7.820 -0.1416  0.0456 -0.1349
  121OSM   H12G12840   5.886   3.284   7.795 -1.5219 -1.5915  0.7230
  121OSM   C13F12841   6.035   3.255   7.931  0.0912  0.6836 -0.3072
  121OSM   H13F12842   6.055   3.363   7.914 -1.7473  1.3580  1.5726
  121OSM   H13G12843   6.135   3.209   7.946  0.2754  1.5275  1.1699
  121OSM   C14F12844   5.957   3.244   8.060 -0.5644 -0.2251 -0.0363
  121OSM   H14F12845   5.909   3.146   8.081 -2.1323  0.4226 -0.5487
  121OSM   H14G12846   5.880   3.323   8.057  0.6562  1.0077  0.4462
  121OSM   C15F12847   6.043   3.260   8.185 -0.6342  0.0240 -0.5114
  121OSM   H15F12848   6.132   3.325   8.169 -1.0875  0.4485 -1.3131
  121OSM   H15G12849   6.093   3.162   8.204 -0.8618  0.1287  0.6713
  121OSM   C16F12850   5.971   3.337   8.293  0.7310  0.5817 -0.2702
  121OSM   H16F12851   5.958   3.443   8.261  2.6930  1.1218  0.6308
  121OSM   H16G12852   6.044   3.356   8.375 -1.7025 -0.6175  2.2446
  121OSM   C17F12853   5.841   3.265   8.347 -0.0229 -0.2053 -0.0605
  121OSM   H17F12854   5.752   3.276   8.283  1.1486  2.5610 -1.3065
  121OSM   H17G12855   5.805   3.312   8.441  0.5261  1.6691 -0.7777
  121OSM   C18F12856   5.863   3.114   8.384  0.2406 -0.5200 -0.3117
  121OSM   H18F12857   5.905   3.054   8.300  2.7832  0.2397  0.3894
  121OSM   H18G12858   5.768   3.060   8.407  0.5611  0.2191  2.8424
  121OSM   H18H12859   5.944   3.102   8.459 -0.2735  0.2576  0.3694
  122OSM      N12860   5.048   4.941   6.187 -0.1102  0.0111 -0.4078
  122OSM    C1512861   5.072   4.797   6.224 -0.4207  0.4067 -0.0500
  122OSM   H15A12862   5.084   4.790   6.331 -1.9732  0.1852  0.1196
  122OSM   H15B12863   5.156   4.752   6.174  0.4664  0.2599  1.5431
  122OSM   H15C12864   4.987   4.731   6.212  1.9062 -2.4953 -1.3397
  122OSM    C1412865   5.027   4.950   6.045 -0.4347  0.5423 -0.9169
  122OSM   H14A12866   4.944   4.893   6.006  0.1928  0.3201 -1.9467
  122OSM   H14B12867   5.110   4.906   5.991  0.2612  0.4427  0.2119
  122OSM   H14C12868   5.027   5.053   6.014  1.8096  1.5173  2.0074
  122OSM    C1312869   4.929   4.991   6.268 -0.8068 -0.1104 -0.3277
  122OSM   H13A12870   4.922   5.097   6.251  1.6639  0.3988  1.4935
  122OSM   H13B12871   4.943   4.971   6.374  2.0031 -0.9055 -0.7906
  122OSM   H13C12872   4.838   4.938   6.247  0.7672 -2.7342 -0.7827
  122OSM    C1212873   5.178   5.028   6.214  0.1174 -0.0455 -0.4810
  122OSM   H12A12874   5.193   5.021   6.320 -0.6966  0.1193 -0.3529
  122OSM   H12B12875   5.150   5.132   6.201 -0.9364 -0.3950 -1.1081
  122OSM    C1112876   5.297   5.003   6.123 -0.9760  0.8175  0.1575
  122OSM   H11A12877   5.299   4.896   6.093 -0.1844  0.2053  2.2879
  122OSM   H11B12878   5.394   5.022   6.173  0.4300  1.6822 -2.7941
  122OSM      P12879   5.306   5.240   6.008  0.2344 -0.2302 -0.0002
  122OSM    O1312880   5.408   5.287   5.914 -0.7408  0.4511  0.1810
  122OSM    O1412881   5.174   5.291   5.971  0.1495  0.4567  0.1697
  122OSM    O1112882   5.327   5.277   6.156 -0.5128 -0.2145  0.0701
  122OSM    O1212883   5.296   5.080   6.005  0.3074 -0.4665 -0.5615
  122OSM    C1S12884   5.465   5.313   6.203  0.2363  0.7287  0.3212
  122OSM    H1S12885   5.509   5.386   6.132  0.0044  1.1555  0.6104
  122OSM    H1T12886   5.540   5.233   6.190 -0.3549  0.4243 -1.3679
  122OSM     NF12887   5.591   5.373   6.411  0.3876  0.5067 -0.2854
  122OSM    HNF12888   5.618   5.287   6.453 -0.6870  0.3588  0.1413
  122OSM    C2S12889   5.458   5.357   6.356 -0.6569 -0.6684 -0.2093
  122OSM    H2S12890   5.402   5.453   6.362  2.0911  0.9379  0.4953
  122OSM    C3S12891   5.382   5.253   6.438 -0.0243  0.0316  0.2339
  122OSM    H3S12892   5.430   5.156   6.416  0.4896  0.3733 -0.1644
  122OSM     O312893   5.244   5.240   6.400 -0.6664  0.0194 -0.2377
  122OSM    HO312894   5.257   5.269   6.309 -0.2927 -0.0776 -0.2140
  122OSM    C4S12895   5.397   5.285   6.579 -0.7889  0.7047 -0.2558
  122OSM    H4S12896   5.484   5.231   6.620  0.1497  1.5700 -1.0714
  122OSM    C5S12897   5.337   5.384   6.647  0.1595  0.8501  0.3831
  122OSM    H5S12898   5.273   5.450   6.587 -0.6919 -0.6402 -0.3785
  122OSM    C6S12899   5.358   5.416   6.792 -0.2382 -1.0622  0.3198
  122OSM    H6S12900   5.443   5.366   6.841  0.2951  1.4303  2.0263
  122OSM    H6T12901   5.271   5.378   6.850 -1.7194 -0.0152 -1.1256
  122OSM    C7S12902   5.381   5.570   6.806  0.5815  0.6348  0.0494
  122OSM    H7S12903   5.304   5.624   6.746  1.3282  0.7118 -0.8541
  122OSM    H7T12904   5.480   5.605   6.770  0.8380  1.3375  1.4045
  122OSM    C8S12905   5.376   5.618   6.947 -0.1515 -0.0760  0.1737
  122OSM    H8S12906   5.443   5.555   7.011  1.3556  0.7303 -0.5702
  122OSM    H8T12907   5.275   5.596   6.986 -0.3969  0.3899 -0.2032
  122OSM    C9S12908   5.405   5.769   6.958 -0.0213  0.3064 -0.6203
  122OSM    H9S12909   5.335   5.819   6.888  1.5540  2.2693 -0.8542
  122OSM    H9T12910   5.504   5.795   6.916  0.8180  1.5460  1.9989
  122OSM   C10S12911   5.379   5.836   7.094  0.4490  0.0047  1.0030
  122OSM   H10S12912   5.281   5.809   7.139 -0.1765  3.6346  2.0036
  122OSM   H10T12913   5.380   5.948   7.092  0.4496 -0.0054  0.3285
  122OSM   C11S12914   5.482   5.778   7.186  0.0237  0.0707 -0.5483
  122OSM   H11S12915   5.589   5.780   7.155 -0.0178 -2.0063 -0.9428
  122OSM   H11T12916   5.455   5.671   7.203 -0.2600  0.2474  0.1488
  122OSM   C12S12917   5.478   5.855   7.325  0.7633 -0.1990  0.9472
  122OSM   H12S12918   5.372   5.855   7.357  0.3317 -1.3729 -0.4070
  122OSM   H12T12919   5.501   5.963   7.310  3.4500 -0.6210  1.6700
  122OSM   C13S12920   5.572   5.795   7.423 -0.1514 -0.5543  0.8852
  122OSM   H13S12921   5.671   5.822   7.379  0.4118  1.3638  3.2382
  122OSM   H13T12922   5.566   5.685   7.414 -2.3418 -0.3194 -0.9415
  122OSM   C14S12923   5.555   5.842   7.564  0.1337 -0.5539 -0.5528
  122OSM   H14S12924   5.541   5.952   7.560  0.8438 -0.4273  0.3093
  122OSM   H14T12925   5.651   5.824   7.618 -0.8400 -2.4930  0.5812
  122OSM   C15S12926   5.444   5.762   7.642  0.3416 -0.3235 -0.2753
  122OSM   H15S12927   5.453   5.652   7.625 -2.1079 -1.0317  2.6010
  122OSM   H15T12928   5.346   5.790   7.597  0.7335  1.9908  0.2919
  122OSM   C16S12929   5.474   5.769   7.797 -0.0333  0.2938  0.0281
  122OSM   H16S12930   5.495   5.872   7.833 -2.0158  0.0559  1.9160
  122OSM   H16T12931   5.565   5.716   7.835 -1.5770 -0.6790  2.4611
  122OSM   C17S12932   5.351   5.715   7.872 -0.1372  0.2031  0.5251
  122OSM   H17S12933   5.334   5.611   7.837  0.2767 -0.8043  3.1821
  122OSM   H17T12934   5.262   5.771   7.835 -0.8596 -0.3460  1.3955
  122OSM   C18S12935   5.347   5.721   8.025  0.3839 -0.2862 -0.5576
  122OSM   H18S12936   5.438   5.683   8.076  0.8163 -4.0794 -3.9230
  122OSM   H18T12937   5.273   5.649   8.065 -1.3402  0.3845 -2.4206
  122OSM   H18U12938   5.350   5.828   8.056  2.2360 -1.0015  1.8842
  122OSM    C1F12939   5.671   5.470   6.382 -0.7721 -0.3170  0.0576
  122OSM     OF12940   5.648   5.572   6.323  0.4774 -0.0484  0.0179
  122OSM    C2F12941   5.790   5.467   6.460 -0.0035  0.6285  0.5477
  122OSM    H2F12942   5.823   5.361   6.455 -1.1258  0.3211 -0.6279
  122OSM    H2G12943   5.774   5.486   6.568  5.5365  0.1231  1.5935
  122OSM    C3F12944   5.905   5.546   6.395  0.6990  0.2031  1.1340
  122OSM    H3F12945   5.871   5.648   6.371 -3.9512 -2.0258 -2.6002
  122OSM    H3G12946   5.943   5.500   6.301 -1.4345 -0.2742  0.4700
  122OSM    C4F12947   6.027   5.576   6.488  0.1545  0.7583  0.1213
  122OSM    H4F12948   6.011   5.660   6.558  0.7497  2.2540 -1.5180
  122OSM    H4G12949   6.118   5.597   6.427  0.1724  2.4946  0.7331
  122OSM    C5F12950   6.061   5.449   6.582 -0.2795 -0.1549  0.8972
  122OSM    H5F12951   6.077   5.357   6.523  0.3889  0.6601 -0.2122
  122OSM    H5G12952   5.968   5.434   6.643  0.1349 -3.4491  0.7816
  122OSM    C6F12953   6.190   5.481   6.665 -0.1562  0.1818 -0.1605
  122OSM    H6F12954   6.175   5.571   6.729  0.7796  0.4570 -0.3168
  122OSM    H6G12955   6.278   5.497   6.599  0.7538  2.2015  1.4867
  122OSM    C7F12956   6.228   5.365   6.756  0.3160 -0.0263  0.7339
  122OSM    H7F12957   6.219   5.272   6.697 -2.7612  0.5901  0.1630
  122OSM    H7G12958   6.148   5.373   6.832  1.8778 -0.2256  2.4277
  122OSM    C8F12959   6.355   5.384   6.840 -0.2249  0.0885 -0.5074
  122OSM    H8F12960   6.344   5.484   6.888  0.2118  0.1597 -0.5531
  122OSM    H8G12961   6.446   5.403   6.779 -0.2060 -1.5279 -1.0034
  122OSM    C9F12962   6.383   5.277   6.935  0.7131  0.1703  0.1053
  122OSM    H9F12963   6.414   5.182   6.890 -2.2703 -1.7266  1.9111
  122OSM   C10F12964   6.365   5.283   7.067  0.2062 -0.7792 -0.2306
  122OSM   H10F12965   6.382   5.194   7.129 -1.5868  0.0186  1.4508
  122OSM   C11F12966   6.295   5.397   7.134  0.4996 -0.1782 -0.6247
  122OSM   H11F12967   6.194   5.371   7.173  0.5923  2.7058  1.6911
  122OSM   H11G12968   6.287   5.490   7.074 -0.6593  0.3146  0.2816
  122OSM   C12F12969   6.369   5.434   7.263 -0.5507 -0.1383 -0.1890
  122OSM   H12F12970   6.347   5.540   7.287 -0.6360  0.2672 -2.0181
  122OSM   H12G12971   6.478   5.441   7.241 -0.2944 -2.2012  0.2891
  122OSM   C13F12972   6.329   5.355   7.388 -0.1694 -0.2366  0.5990
  122OSM   H13F12973   6.336   5.245   7.378  3.4614 -0.0308  0.2637
  122OSM   H13G12974   6.225   5.381   7.416 -1.0996 -2.1094 -0.9444
  122OSM   C14F12975   6.421   5.389   7.507  0.4987  0.0143  0.3151
  122OSM   H14F12976   6.410   5.498   7.526 -1.4742 -0.4157  1.8898
  122OSM   H14G12977   6.529   5.375   7.486  0.6911  0.8876  0.7209
  122OSM   C15F12978   6.374   5.330   7.638  0.2775  0.5689  0.5199
  122OSM   H15F12979   6.350   5.222   7.630 -0.3749  0.8441 -1.6668
  122OSM   H15G12980   6.282   5.377   7.679 -1.1955  0.2501 -2.2752
  122OSM   C16F12981   6.480   5.326   7.750  0.2199 -0.3823  0.2345
  122OSM   H16F12982   6.508   5.428   7.783 -0.9544  0.1119 -0.2872
  122OSM   H16G12983   6.573   5.284   7.706 -0.5686 -1.1761 -0.6972
  122OSM   C17F12984   6.430   5.245   7.872  0.1828 -0.4202 -0.0233
  122OSM   H17F12985   6.419   5.141   7.833  1.9408 -0.3379 -0.8322
  122OSM   H17G12986   6.338   5.289   7.915  1.7377  0.8985  2.0930
  122OSM   C18F12987   6.531   5.241   7.984 -0.6082 -0.2375  0.1249
  122OSM   H18F12988   6.472   5.234   8.078 -2.0501  0.0815 -0.7289
  122OSM   H18G12989   6.592   5.334   7.991  0.0620 -0.7680  1.3818
  122OSM   H18H12990   6.597   5.153   7.993 -1.5936 -1.0622 -0.5798
  123OSM      N12991   3.720   0.856   6.221 -0.1676  0.5647 -0.2241
  123OSM    C1512992   3.594   0.924   6.191 -0.5988  0.3134  0.1131
  123OSM   H15A12993   3.559   0.987   6.272 -0.4390 -0.5245  0.8453
  123OSM   H15B12994   3.526   0.844   6.167  1.2022 -1.3238  0.2962
  123OSM   H15C12995   3.600   0.997   6.112 -0.6338 -0.0497 -0.2224
  123OSM    C1412996   3.716   0.747   6.327  0.0060 -0.8243  0.3192
  123OSM   H14A12997   3.814   0.706   6.345  0.6398  1.8471  3.4391
  123OSM   H14B12998   3.650   0.672   6.286  0.8919 -1.2305 -0.3753
  123OSM   H14C12999   3.673   0.783   6.419 -4.6327  0.6115 -2.2557
  123OSM    C1313000   3.768   0.783   6.093 -0.6483 -0.0262 -0.1610
  123OSM   H13A13001   3.859   0.725   6.096 -0.3746  0.3967 -0.2831
  123OSM   H13B13002   3.792   0.858   6.019  2.1088 -0.4222  0.2698
  123OSM   H13C13003   3.686   0.722   6.058 -0.7218  1.1674 -2.1888
  123OSM    C1213004   3.816   0.966   6.259 -0.4294 -0.1206 -0.5741
  123OSM   H12A13005   3.798   1.053   6.197 -0.6019  1.3887  1.5477
  123OSM   H12B13006   3.915   0.927   6.240 -1.3641 -1.4631 -2.8065
  123OSM    C1113007   3.822   1.027   6.403 -0.0721 -0.1524  0.4047
  123OSM   H11A13008   3.896   1.109   6.404 -3.1822  2.7646  1.9310
  123OSM   H11B13009   3.850   0.943   6.471  0.4049 -0.0410  0.3432
  123OSM      P13010   3.595   1.054   6.537  0.1721 -0.2610 -0.4844
  123OSM    O1313011   3.551   1.177   6.608 -0.4812 -0.2076  0.2615
  123OSM    O1413012   3.494   0.980   6.459  0.4448 -0.0426 -0.0744
  123OSM    O1113013   3.670   0.961   6.639 -0.3601 -0.4011 -0.0117
  123OSM    O1213014   3.698   1.091   6.430 -0.2255 -0.1191 -0.2703
  123OSM    C1S13015   3.763   1.002   6.736  0.3299 -0.6219  0.2922
  123OSM    H1S13016   3.820   1.091   6.701  1.3869 -1.6647 -0.6949
  123OSM    H1T13017   3.847   0.931   6.754  1.7514  0.5059 -1.6898
  123OSM     NF13018   3.807   1.088   6.962  0.0707 -0.2381 -0.2274
  123OSM    HNF13019   3.831   1.020   7.031  1.2435 -2.2360 -2.5601
  123OSM    C2S13020   3.707   1.031   6.879  0.1125  0.0193 -0.2496
  123OSM    H2S13021   3.625   1.105   6.868 -1.4592 -1.3965  1.5855
  123OSM    C3S13022   3.641   0.899   6.939  0.3498 -0.1113  0.0553
  123OSM    H3S13023   3.718   0.822   6.964  0.9093  0.0267 -1.2219
  123OSM     O313024   3.542   0.842   6.853  0.1511 -0.0557 -0.0530
  123OSM    HO313025   3.534   0.897   6.775  0.7308  2.1513  1.4111
  123OSM    C4S13026   3.573   0.937   7.075  0.0594  0.0718 -0.3117
  123OSM    H4S13027   3.636   0.926   7.164 -1.0560  0.8698  0.5784
  123OSM    C5S13028   3.455   1.002   7.080 -0.2762 -0.7402  0.3257
  123OSM    H5S13029   3.400   1.013   6.986  1.7616  0.6047 -0.7400
  123OSM    C6S13030   3.377   1.049   7.198 -0.6822  0.3147 -0.1500
  123OSM    H6S13031   3.271   1.016   7.190 -0.0053 -1.9879 -0.2206
  123OSM    H6T13032   3.374   1.160   7.197  1.5282  0.4577  2.3438
  123OSM    C7S13033   3.425   0.994   7.332  0.0412 -0.3133 -0.5753
  123OSM    H7S13034   3.534   1.010   7.339  0.2346 -0.2583 -3.1058
  123OSM    H7T13035   3.391   0.889   7.346 -2.7974  0.4612 -1.2441
  123OSM    C8S13036   3.369   1.082   7.449  0.2667 -0.3518  0.2502
  123OSM    H8S13037   3.261   1.082   7.425  0.5170  1.7440 -0.9222
  123OSM    H8T13038   3.406   1.186   7.443  1.0570 -0.6371  0.1583
  123OSM    C9S13039   3.398   1.034   7.593  0.3544 -0.1901 -0.3694
  123OSM    H9S13040   3.506   1.012   7.601  0.3826 -0.2981 -1.0000
  123OSM    H9T13041   3.347   0.937   7.613 -0.1951  0.5209  1.8516
  123OSM   C10S13042   3.361   1.139   7.702 -0.7297 -0.1830  0.3892
  123OSM   H10S13043   3.252   1.161   7.693 -0.5623  1.2417  1.6616
  123OSM   H10T13044   3.420   1.231   7.681 -0.0463 -1.0596 -1.6966
  123OSM   C11S13045   3.387   1.104   7.852 -0.0512 -0.7188 -0.0091
  123OSM   H11S13046   3.489   1.074   7.882  0.4448 -0.4179 -1.3527
  123OSM   H11T13047   3.330   1.011   7.873  0.2015 -0.5219  1.5546
  123OSM   C12S13048   3.324   1.216   7.934  0.3284  0.3539  0.1325
  123OSM   H12S13049   3.214   1.201   7.937  0.3421  0.3418  0.5510
  123OSM   H12T13050   3.335   1.313   7.882  1.9757  0.8660  1.3790
  123OSM   C13S13051   3.362   1.217   8.082 -0.4198 -0.7649 -0.5467
  123OSM   H13S13052   3.307   1.297   8.137 -0.0462 -0.8240 -0.0833
  123OSM   H13T13053   3.468   1.252   8.088 -0.4376 -0.8155  0.1433
  123OSM   C14S13054   3.344   1.082   8.143 -0.0514 -0.1895 -1.0342
  123OSM   H14S13055   3.408   1.087   8.234 -1.5788  1.2465 -0.0207
  123OSM   H14T13056   3.388   0.994   8.092 -0.8134 -1.6276  0.7298
  123OSM   C15S13057   3.202   1.044   8.186  0.2055  0.0335 -0.4054
  123OSM   H15S13058   3.145   1.029   8.091  0.3956  0.0521 -0.5230
  123OSM   H15T13059   3.165   1.130   8.247  0.2915 -1.4187  1.7353
  123OSM   C16S13060   3.188   0.921   8.269 -0.0919  0.0647  0.4143
  123OSM   H16S13061   3.272   0.918   8.342  0.6196 -0.0610 -0.3962
  123OSM   H16T13062   3.196   0.830   8.207  0.7125 -0.9741  2.0147
  123OSM   C17S13063   3.038   0.902   8.332  0.0747  0.1109  0.9269
  123OSM   H17S13064   2.985   0.895   8.234  0.4553  1.6735  0.6042
  123OSM   H17T13065   2.995   0.995   8.375  0.8889  0.5714  0.7564
  123OSM   C18S13066   3.016   0.773   8.401 -0.9290 -0.4583 -0.2144
  123OSM   H18S13067   3.072   0.684   8.364 -1.3815 -0.8015 -0.0852
  123OSM   H18T13068   2.906   0.753   8.402 -0.8145 -1.3962  3.3716
  123OSM   H18U13069   3.049   0.782   8.507 -0.1268  0.0799 -0.5115
  123OSM    C1F13070   3.857   1.206   6.942 -0.9417  0.6510 -1.2021
  123OSM     OF13071   3.818   1.273   6.846 -0.7955 -0.2618 -0.2237
  123OSM    C2F13072   3.949   1.256   7.046 -0.6002 -0.0358  0.1329
  123OSM    H2F13073   4.036   1.188   7.055  0.1120  0.6192 -1.5920
  123OSM    H2G13074   3.899   1.256   7.145  1.0606 -1.7482  0.9922
  123OSM    C3F13075   4.010   1.397   7.009  0.4051 -0.3446  0.4066
  123OSM    H3F13076   3.926   1.465   6.982  1.1736 -0.0260 -1.2437
  123OSM    H3G13077   4.083   1.390   6.925  0.3302 -1.2824  0.4090
  123OSM    C4F13078   4.069   1.444   7.141  0.9989 -0.3505  0.2188
  123OSM    H4F13079   4.147   1.381   7.189  2.3152  1.9765  1.2552
  123OSM    H4G13080   3.981   1.452   7.208  2.1203  1.0033  1.5763
  123OSM    C5F13081   4.129   1.585   7.116 -0.4163  0.0993 -0.6134
  123OSM    H5F13082   4.075   1.642   7.037 -2.2213  1.2736  1.4369
  123OSM    H5G13083   4.230   1.574   7.070 -0.2363 -2.4576  0.2916
  123OSM    C6F13084   4.128   1.662   7.248 -0.1570 -0.2252  0.3914
  123OSM    H6F13085   4.022   1.661   7.282 -0.2614  1.0690  0.1033
  123OSM    H6G13086   4.165   1.765   7.232  0.5301 -0.3145  1.3280
  123OSM    C7F13087   4.213   1.590   7.367  0.3171 -0.1764 -0.1995
  123OSM    H7F13088   4.312   1.569   7.322 -0.0643 -2.3314 -0.0505
  123OSM    H7G13089   4.169   1.490   7.383 -1.3930  0.4505 -0.8541
  123OSM    C8F13090   4.211   1.678   7.488  0.2387 -0.6988 -0.5870
  123OSM    H8F13091   4.221   1.780   7.444  0.4992 -0.7760 -0.7090
  123OSM    H8G13092   4.301   1.658   7.550  1.0855 -0.3669 -1.6809
  123OSM    C9F13093   4.079   1.670   7.567  0.0740 -0.0349 -0.1360
  123OSM    H9F13094   3.991   1.715   7.519 -0.6073 -1.1885  0.0245
  123OSM   C10F13095   4.074   1.618   7.691 -0.2910 -0.0534 -0.1767
  123OSM   H10F13096   3.977   1.619   7.743 -0.6301  0.2023 -0.8034
  123OSM   C11F13097   4.191   1.556   7.765  0.3024 -0.4438 -0.4482
  123OSM   H11F13098   4.264   1.505   7.698  1.3386 -1.3679  1.3500
  123OSM   H11G13099   4.161   1.470   7.828  1.0908 -0.0360  0.5110
  123OSM   C12F13100   4.260   1.660   7.847 -0.8454 -0.9055 -0.2652
  123OSM   H12F13101   4.190   1.697   7.926  1.0369 -0.7152  1.3607
  123OSM   H12G13102   4.295   1.742   7.780  2.1478 -1.1803  0.8562
  123OSM   C13F13103   4.385   1.599   7.917  0.2380  0.1811  0.4173
  123OSM   H13F13104   4.460   1.679   7.932 -1.0968  1.5898 -0.3777
  123OSM   H13G13105   4.425   1.519   7.850  0.2095  0.5373 -0.0230
  123OSM   C14F13106   4.360   1.545   8.056  0.1230 -0.3433  0.4517
  123OSM   H14F13107   4.314   1.445   8.044  0.2970 -0.2862 -0.6785
  123OSM   H14G13108   4.284   1.610   8.105  0.3594 -0.4841  1.0147
  123OSM   C15F13109   4.478   1.529   8.142 -0.9454 -0.4169 -0.9469
  123OSM   H15F13110   4.546   1.616   8.158 -1.5093 -0.2285  0.5233
  123OSM   H15G13111   4.552   1.459   8.098  1.1150  2.4090 -2.1361
  123OSM   C16F13112   4.432   1.473   8.284 -0.0232 -0.4222 -0.2273
  123OSM   H16F13113   4.377   1.377   8.281 -0.0907 -0.3482 -2.7771
  123OSM   H16G13114   4.361   1.551   8.320  2.1995  1.8097 -0.5133
  123OSM   C17F13115   4.533   1.462   8.400 -0.2896  0.2131 -0.2859
  123OSM   H17F13116   4.470   1.443   8.489 -2.3133  1.0082 -1.5331
  123OSM   H17G13117   4.579   1.561   8.422 -0.6597  0.5299 -0.9346
  123OSM   C18F13118   4.647   1.358   8.385  0.2151 -0.5854  0.0327
  123OSM   H18F13119   4.611   1.254   8.373  0.4336 -0.6371 -0.1797
  123OSM   H18G13120   4.710   1.356   8.477  0.9550 -0.1008 -0.4561
  123OSM   H18H13121   4.706   1.370   8.291 -0.2352  1.6387  0.0142
  124OSM      N13122   4.273   4.314   6.318 -0.3515  0.5182  0.5118
  124OSM    C1513123   4.350   4.393   6.429 -0.3349  0.1983 -0.2160
  124OSM   H15A13124   4.395   4.481   6.385  2.7344 -1.7154 -1.0750
  124OSM   H15B13125   4.418   4.330   6.484 -2.0230 -1.9764 -0.5773
  124OSM   H15C13126   4.276   4.436   6.495 -0.7697 -1.1718  0.2095
  124OSM    C1413127   4.367   4.228   6.245  0.6761 -0.0245 -0.2322
  124OSM   H14A13128   4.412   4.148   6.302  1.4551 -0.9888 -2.1496
  124OSM   H14B13129   4.453   4.285   6.212  0.2121  0.5095 -0.5347
  124OSM   H14C13130   4.331   4.180   6.155 -0.9916  0.5242  0.1305
  124OSM    C1313131   4.176   4.229   6.387 -0.2094 -0.2643  0.3814
  124OSM   H13A13132   4.100   4.292   6.431  0.3397 -0.1128  1.1302
  124OSM   H13B13133   4.221   4.173   6.468  0.4496  1.1135  0.9824
  124OSM   H13C13134   4.132   4.150   6.328  2.5248 -1.3665 -0.2446
  124OSM    C1213135   4.205   4.411   6.226 -0.4348  0.6716 -0.4076
  124OSM   H12A13136   4.158   4.359   6.144  1.0442 -0.3381 -0.6251
  124OSM   H12B13137   4.276   4.466   6.166 -2.5405  0.9804 -2.6985
  124OSM    C1113138   4.107   4.516   6.290 -0.4229 -0.5175  0.2551
  124OSM   H11A13139   4.028   4.464   6.349 -1.5618 -2.4652 -2.8780
  124OSM   H11B13140   4.055   4.567   6.206  3.2390 -0.6275 -2.2173
  124OSM      P13141   4.258   4.733   6.307  0.1469  0.3070  0.0191
  124OSM    O1313142   4.385   4.688   6.242 -0.7210 -0.2182 -0.2576
  124OSM    O1413143   4.175   4.828   6.231 -0.1052  0.6480 -0.1913
  124OSM    O1113144   4.296   4.806   6.438 -0.0713 -0.1792  0.7114
  124OSM    O1213145   4.169   4.617   6.369 -0.2023  0.8094 -0.4198
  124OSM    C1S13146   4.218   4.800   6.555  0.3421  0.2969  0.2454
  124OSM    H1S13147   4.114   4.760   6.549 -0.0794  1.4685 -0.6066
  124OSM    H1T13148   4.218   4.903   6.597  1.2658  0.7041 -0.7218
  124OSM     NF13149   4.196   4.716   6.788 -0.1904  0.3333 -0.0928
  124OSM    HNF13150   4.221   4.780   6.860 -1.9718  1.9881 -0.8933
  124OSM    C2S13151   4.281   4.714   6.668  0.2977 -0.3196  0.0977
  124OSM    H2S13152   4.279   4.606   6.639 -0.7602 -0.0448 -0.8639
  124OSM    C3S13153   4.429   4.759   6.698  0.1498  0.0701 -0.2737
  124OSM    H3S13154   4.429   4.864   6.735  0.4471  0.2983 -0.9290
  124OSM     O313155   4.524   4.741   6.590  0.4856 -0.5221 -0.2266
  124OSM    HO313156   4.478   4.707   6.513  1.6310 -1.7455 -0.3809
  124OSM    C4S13157   4.487   4.676   6.815 -0.3003  0.3171 -0.8146
  124OSM    H4S13158   4.482   4.722   6.915 -0.1325  2.6672 -1.8595
  124OSM    C5S13159   4.551   4.557   6.814 -0.2876  0.5781 -0.1691
  124OSM    H5S13160   4.563   4.498   6.722  2.9356  0.4756  0.2474
  124OSM    C6S13161   4.601   4.498   6.948 -0.1147  0.1155 -0.0949
  124OSM    H6S13162   4.701   4.451   6.934 -0.9476 -1.7447  0.0181
  124OSM    H6T13163   4.536   4.409   6.965 -0.6185  0.4974 -0.0374
  124OSM    C7S13164   4.593   4.568   7.083 -0.0315  0.3196 -1.0088
  124OSM    H7S13165   4.488   4.596   7.104  0.6512  0.9558  1.7200
  124OSM    H7T13166   4.653   4.661   7.096 -0.6984  0.7637 -1.1214
  124OSM    C8S13167   4.620   4.459   7.189  0.0918 -0.4019  0.4913
  124OSM    H8S13168   4.718   4.412   7.165  0.7165  1.5937 -0.9338
  124OSM    H8T13169   4.542   4.379   7.190  0.6661 -1.0004 -1.1078
  124OSM    C9S13170   4.624   4.510   7.335 -0.2908  0.0167  0.2093
  124OSM    H9S13171   4.530   4.565   7.358 -0.5329  0.3812 -1.6451
  124OSM    H9T13172   4.721   4.563   7.343 -1.3845  2.3434 -1.4803
  124OSM   C10S13173   4.631   4.398   7.445 -0.7688  0.2518 -0.6172
  124OSM   H10S13174   4.715   4.332   7.413  1.5432  2.9831 -0.4376
  124OSM   H10T13175   4.537   4.339   7.453  0.4010 -2.1203 -3.5357
  124OSM   C11S13176   4.666   4.453   7.583 -0.3268 -0.3020 -0.0846
  124OSM   H11S13177   4.642   4.561   7.591 -1.0840 -0.4899  0.1975
  124OSM   H11T13178   4.777   4.455   7.587 -0.4007 -0.1196  3.8813
  124OSM   C12S13179   4.604   4.384   7.698  0.5627 -1.0381 -0.4727
  124OSM   H12S13180   4.672   4.300   7.723  1.9534  0.2817  0.2088
  124OSM   H12T13181   4.503   4.336   7.691  1.3132 -2.8256  0.5335
  124OSM   C13S13182   4.606   4.463   7.832  0.3971 -0.7271 -0.5610
  124OSM   H13S13183   4.521   4.418   7.888 -0.6990  0.9224 -0.8750
  124OSM   H13T13184   4.580   4.569   7.811 -1.6874 -0.8819  1.1456
  124OSM   C14S13185   4.737   4.452   7.906  0.1189  0.3585 -0.5300
  124OSM   H14S13186   4.821   4.489   7.843  0.1377  1.1751 -0.0340
  124OSM   H14T13187   4.764   4.345   7.919 -2.0017 -0.3433 -1.7061
  124OSM   C15S13188   4.727   4.523   8.042 -0.0078  0.3995  0.2605
  124OSM   H15S13189   4.629   4.486   8.079 -0.1625 -1.4009 -1.8667
  124OSM   H15T13190   4.726   4.634   8.035  0.8331  0.2719 -2.1234
  124OSM   C16S13191   4.822   4.473   8.147  0.2553 -0.7193  0.1909
  124OSM   H16S13192   4.921   4.513   8.117 -0.2725  0.3957 -0.0802
  124OSM   H16T13193   4.843   4.364   8.136 -1.5765 -1.1081  0.4099
  124OSM   C17S13194   4.793   4.511   8.293 -0.0146 -0.2521 -0.1802
  124OSM   H17S13195   4.857   4.451   8.361  0.3355  0.9152  0.5263
  124OSM   H17T13196   4.691   4.478   8.324  0.3967 -1.7695 -0.3996
  124OSM   C18S13197   4.805   4.665   8.309  0.4501  0.1539  0.3898
  124OSM   H18S13198   4.734   4.713   8.238  0.8204  0.7096  0.3892
  124OSM   H18T13199   4.907   4.705   8.292  0.4598  0.8661  1.9842
  124OSM   H18U13200   4.778   4.705   8.409  0.1853 -2.8030  1.5355
  124OSM    C1F13201   4.082   4.649   6.803  1.0930 -0.3956 -0.1423
  124OSM     OF13202   4.054   4.556   6.724 -0.0719 -0.4342 -0.0725
  124OSM    C2F13203   4.000   4.682   6.924  0.3884 -0.2886 -0.5346
  124OSM    H2F13204   3.924   4.757   6.892  0.1098 -0.5741 -0.5447
  124OSM    H2G13205   4.073   4.732   6.991  0.3558  2.5067 -2.4996
  124OSM    C3F13206   3.933   4.557   6.995  0.3564 -0.4108  0.5596
  124OSM    H3F13207   4.010   4.478   7.003  2.8581  1.9900  1.0100
  124OSM    H3G13208   3.846   4.528   6.931 -0.1522 -0.3723  1.2312
  124OSM    C4F13209   3.885   4.587   7.136  0.2101  0.7225  0.1643
  124OSM    H4F13210   3.800   4.658   7.129  1.5203  2.3373  0.1629
  124OSM    H4G13211   3.966   4.644   7.186  1.7314  0.9752 -2.4794
  124OSM    C5F13212   3.850   4.454   7.215  0.1038  0.4898 -0.0686
  124OSM    H5F13213   3.942   4.394   7.195  0.6180  0.7630  1.4580
  124OSM    H5G13214   3.762   4.395   7.180 -1.0734  2.1709  0.0084
  124OSM    C6F13215   3.837   4.485   7.364  0.4379 -0.0668  0.0513
  124OSM    H6F13216   3.795   4.587   7.367  0.8272  0.0936  0.0530
  124OSM    H6G13217   3.942   4.491   7.400  0.3267 -0.1799  0.4019
  124OSM    C7F13218   3.753   4.389   7.450  0.0101 -1.3520  0.8164
  124OSM    H7F13219   3.757   4.415   7.558  1.5007  0.3911  0.3744
  124OSM    H7G13220   3.799   4.288   7.438  1.8293 -0.5461  0.8005
  124OSM    C8F13221   3.608   4.374   7.413  0.1779  0.4223 -0.2347
  124OSM    H8F13222   3.569   4.297   7.483  0.4177  0.8043  0.3188
  124OSM    H8G13223   3.588   4.334   7.311  1.9626 -4.5987  1.2348
  124OSM    C9F13224   3.533   4.506   7.424 -0.6883  0.5955 -0.4553
  124OSM    H9F13225   3.504   4.558   7.331  0.0558  0.4731 -0.7538
  124OSM   C10F13226   3.511   4.569   7.538 -0.3589  0.2874 -0.2600
  124OSM   H10F13227   3.482   4.675   7.527 -0.7096  0.3956  1.5796
  124OSM   C11F13228   3.545   4.530   7.675 -0.2728  0.8235  0.4864
  124OSM   H11F13229   3.600   4.613   7.724  0.7332 -1.0547  2.5850
  124OSM   H11G13230   3.595   4.434   7.696  0.9000  1.3630  0.1868
  124OSM   C12F13231   3.424   4.529   7.771 -0.6871 -0.1463  0.3201
  124OSM   H12F13232   3.369   4.433   7.771 -0.3736 -0.3264  0.4957
  124OSM   H12G13233   3.349   4.609   7.752 -1.3553 -0.9085 -0.2805
  124OSM   C13F13234   3.486   4.537   7.911  0.1314  0.2447 -0.3985
  124OSM   H13F13235   3.537   4.636   7.919  1.2529 -0.5163  2.2242
  124OSM   H13G13236   3.557   4.453   7.924 -1.6236 -1.5742 -2.1935
  124OSM   C14F13237   3.379   4.526   8.025  1.2110 -0.1945 -0.2354
  124OSM   H14F13238   3.340   4.424   8.010 -1.7430  1.2857 -3.4992
  124OSM   H14G13239   3.296   4.601   8.022  0.0745 -1.4494 -0.6794
  124OSM   C15F13240   3.447   4.529   8.157  0.1438  0.6908 -0.5242
  124OSM   H15F13241   3.518   4.614   8.159 -0.0770  0.8607  1.5859
  124OSM   H15G13242   3.514   4.441   8.156 -1.0263 -0.2303 -2.5960
  124OSM   C16F13243   3.370   4.559   8.282  0.1015 -0.0407 -0.3279
  124OSM   H16F13244   3.307   4.650   8.280  0.0486  0.0481  2.4541
  124OSM   H16G13245   3.448   4.563   8.361 -1.0377  0.2563  0.8172
  124OSM   C17F13246   3.277   4.443   8.318  0.2847  0.0035  0.1686
  124OSM   H17F13247   3.284   4.425   8.427 -2.2733  0.5959  0.4568
  124OSM   H17G13248   3.315   4.347   8.277 -0.4413  0.0518 -0.6339
  124OSM   C18F13249   3.132   4.478   8.271  0.1738 -0.2297 -0.0700
  124OSM   H18F13250   3.139   4.485   8.161 -0.0062  2.1882  0.0332
  124OSM   H18G13251   3.112   4.585   8.297 -1.3590 -1.2687  3.4105
  124OSM   H18H13252   3.054   4.408   8.309  1.1166 -1.3027 -0.0860
  125OSM      N13253   0.069   3.552   6.011 -0.1383  0.0102 -0.3428
  125OSM    C1513254   0.156   3.468   5.924  0.3701 -0.6357  0.4909
  125OSM   H15A13255   0.261   3.472   5.951  0.4306  0.9587  0.0289
  125OSM   H15B13256   0.152   3.498   5.821 -0.2505 -1.9948  0.1057
  125OSM   H15C13257   0.122   3.366   5.935  1.5582 -1.2335 -1.1473
  125OSM    C1413258   0.105   3.690   5.982  0.3787 -0.2818 -0.1474
  125OSM   H14A13259   0.039   3.759   6.033  0.1739 -0.7017  0.1577
  125OSM   H14B13260   0.112   3.726   5.880  3.0429  2.3266  0.8811
  125OSM   H14C13261   0.204   3.713   6.020  0.2280  0.9876 -0.5109
  125OSM    C1313262  -0.080   3.533   5.978 -0.2248  0.0988 -0.1706
  125OSM   H13A13263  -0.116   3.433   5.995  0.5846 -0.4044 -1.3754
  125OSM   H13B13264  -0.099   3.561   5.875  1.6421 -2.8129 -1.3646
  125OSM   H13C13265  -0.128   3.607   6.041 -1.2710 -1.7012  1.1665
  125OSM    C1213266   0.106   3.513   6.155 -0.0099  0.0188  0.5800
  125OSM   H12A13267   0.090   3.588   6.231  0.0717  2.0840 -1.3849
  125OSM   H12B13268   0.214   3.510   6.150 -0.0454 -2.1186  0.5934
  125OSM    C1113269   0.066   3.372   6.204 -0.1335 -0.6308 -0.1671
  125OSM   H11A13270  -0.041   3.343   6.196 -0.0611 -1.3470  1.3275
  125OSM   H11B13271   0.077   3.376   6.315  0.0969 -1.7785 -0.1447
  125OSM      P13272   0.301   3.258   6.186 -0.2879  0.1428  0.5309
  125OSM    O1313273   0.362   3.140   6.127 -0.1461 -0.3694 -0.4769
  125OSM    O1413274   0.363   3.386   6.149 -0.0584  0.0121 -0.5539
  125OSM    O1113275   0.313   3.245   6.341 -0.0803  0.2360 -0.5366
  125OSM    O1213276   0.142   3.264   6.154  0.2072 -0.1257  0.6493
  125OSM    C1S13277   0.232   3.155   6.415 -0.3712 -0.5127 -0.2853
  125OSM    H1S13278   0.232   3.052   6.374 -1.1644  0.0110 -1.6231
  125OSM    H1T13279   0.125   3.184   6.413  0.5347  3.0139 -2.0351
  125OSM     NF13280   0.219   3.047   6.643 -0.1671  0.8628  0.2483
  125OSM    HNF13281   0.157   3.066   6.719  2.4690  0.1827  2.6789
  125OSM    C2S13282   0.288   3.146   6.559  0.4091 -0.1344 -0.2452
  125OSM    H2S13283   0.395   3.118   6.558  0.5271  0.2272  1.1620
  125OSM    C3S13284   0.288   3.295   6.621  0.8294 -0.3252  0.4133
  125OSM    H3S13285   0.183   3.328   6.629  0.4062 -1.3572 -0.6582
  125OSM     O313286   0.360   3.398   6.547 -0.0037  0.6197 -0.6449
  125OSM    HO313287   0.365   3.357   6.460  0.1222 -0.8654  0.0506
  125OSM    C4S13288   0.333   3.292   6.766  0.3066 -0.1045  0.3202
  125OSM    H4S13289   0.253   3.269   6.838 -0.1696  0.0769 -0.1558
  125OSM    C5S13290   0.453   3.321   6.815 -0.1619 -0.1022 -0.0092
  125OSM    H5S13291   0.539   3.336   6.748 -0.4567  2.2153  0.0895
  125OSM    C6S13292   0.490   3.328   6.960  0.1376 -0.6692 -0.5156
  125OSM    H6S13293   0.575   3.259   6.978 -0.9848 -2.1172 -0.6116
  125OSM    H6T13294   0.407   3.291   7.024  0.5545 -0.0804  0.3716
  125OSM    C7S13295   0.531   3.463   7.009  0.8220 -0.0552 -0.3498
  125OSM    H7S13296   0.449   3.538   7.004  1.0611  0.2120 -0.3214
  125OSM    H7T13297   0.615   3.499   6.945  1.1396  2.2681  1.3202
  125OSM    C8S13298   0.592   3.452   7.148 -0.1404  0.1433 -0.4933
  125OSM    H8S13299   0.626   3.552   7.184  0.6999 -0.5031  0.5577
  125OSM    H8T13300   0.683   3.389   7.148  0.2809  0.7493 -0.9950
  125OSM    C9S13301   0.495   3.400   7.258  0.1012  0.1754 -0.1738
  125OSM    H9S13302   0.489   3.289   7.251  0.1289  0.1468  0.2039
  125OSM    H9T13303   0.398   3.451   7.240 -0.7009 -1.4327 -0.5004
  125OSM   C10S13304   0.527   3.452   7.407  0.4378 -0.1331 -0.2354
  125OSM   H10S13305   0.432   3.468   7.462  0.7912 -0.9384  0.6309
  125OSM   H10T13306   0.588   3.543   7.389  0.9795 -0.4140  0.1898
  125OSM   C11S13307   0.618   3.358   7.483  0.5488  0.1852  0.0493
  125OSM   H11S13308   0.722   3.396   7.474  0.5531  0.2889  0.5151
  125OSM   H11T13309   0.606   3.255   7.443  1.9475  0.1192 -0.2306
  125OSM   C12S13310   0.593   3.359   7.635 -0.1095 -0.0766  0.7215
  125OSM   H12S13311   0.503   3.296   7.654  0.9748 -1.8562  0.1364
  125OSM   H12T13312   0.587   3.462   7.675 -0.0048 -0.2385  1.1609
  125OSM   C13S13313   0.697   3.277   7.723  0.1786  0.4689  0.1283
  125OSM   H13S13314   0.800   3.318   7.714 -0.0118  0.4428 -2.2780
  125OSM   H13T13315   0.698   3.176   7.677 -3.3476 -0.2271  1.4540
  125OSM   C14S13316   0.652   3.263   7.870  0.0238 -0.0345  0.1613
  125OSM   H14S13317   0.567   3.192   7.869  0.2999 -0.3668 -1.0417
  125OSM   H14T13318   0.630   3.364   7.910  3.5601  0.5210  0.8280
  125OSM   C15S13319   0.775   3.213   7.959 -0.4194  0.1887  0.5888
  125OSM   H15S13320   0.859   3.286   7.966 -1.4135  1.4733 -0.4528
  125OSM   H15T13321   0.807   3.117   7.913  0.2467  0.4699  0.4556
  125OSM   C16S13322   0.737   3.189   8.109 -0.4887 -0.4128 -0.4892
  125OSM   H16S13323   0.824   3.142   8.160  0.0152  0.5734 -0.4375
  125OSM   H16T13324   0.662   3.108   8.114 -0.4691 -0.4610 -0.9427
  125OSM   C17S13325   0.696   3.315   8.195 -0.3359  1.3853 -0.6449
  125OSM   H17S13326   0.615   3.369   8.141  0.0679 -0.8418 -3.6016
  125OSM   H17T13327   0.779   3.389   8.196 -0.0098  1.0294  2.0621
  125OSM   C18S13328   0.676   3.277   8.336  0.1354  0.2182 -0.5263
  125OSM   H18S13329   0.659   3.362   8.407  0.7557  0.4418 -0.6453
  125OSM   H18T13330   0.765   3.217   8.364  0.4589  0.6649 -0.5922
  125OSM   H18U13331   0.587   3.212   8.348  1.3542 -1.2391  0.6757
  125OSM    C1F13332   0.235   2.912   6.635 -0.1126 -0.3078  0.3480
  125OSM     OF13333   0.280   2.855   6.543 -0.0655 -0.4640  0.5398
  125OSM    C2F13334   0.199   2.844   6.767 -0.0119  0.7628 -0.2418
  125OSM    H2F13335   0.099   2.876   6.806  0.0723  0.3675  0.3098
  125OSM    H2G13336   0.270   2.882   6.844  1.1397 -1.1318 -0.3550
  125OSM    C3F13337   0.196   2.695   6.762  0.1081 -0.1609  0.2615
  125OSM    H3F13338   0.298   2.660   6.737  0.0096 -0.1712 -0.1371
  125OSM    H3G13339   0.116   2.677   6.687  0.9413  0.8862 -0.8908
  125OSM    C4F13340   0.146   2.634   6.893  0.6166  0.1323  0.1802
  125OSM    H4F13341   0.118   2.529   6.873  0.3964 -0.1944  2.0501
  125OSM    H4G13342   0.050   2.683   6.923 -0.1942 -1.4762  0.2459
  125OSM    C5F13343   0.242   2.627   7.008 -0.4504  0.6511  0.3790
  125OSM    H5F13344   0.278   2.725   7.045  1.5408 -0.9372  2.7579
  125OSM    H5G13345   0.319   2.552   6.980  0.1900  0.4937  2.4570
  125OSM    C6F13346   0.172   2.562   7.132 -0.1184 -1.3448 -0.4793
  125OSM    H6F13347   0.183   2.453   7.112 -0.1583 -1.2502 -1.0095
  125OSM    H6G13348   0.069   2.604   7.135  0.1054 -0.4474 -3.8636
  125OSM    C7F13349   0.237   2.581   7.267 -0.1149  0.5715 -0.0147
  125OSM    H7F13350   0.209   2.682   7.303 -1.8396 -1.2623  4.0233
  125OSM    H7G13351   0.348   2.586   7.255  0.0183 -2.3156 -0.2490
  125OSM    C8F13352   0.197   2.476   7.371 -0.1300 -0.8379  0.4067
  125OSM    H8F13353   0.215   2.381   7.317  1.2980  0.2888 -1.1490
  125OSM    H8G13354   0.088   2.481   7.393  0.3839  2.7140  2.6070
  125OSM    C9F13355   0.279   2.489   7.498  0.1713 -0.8629  0.1260
  125OSM    H9F13356   0.376   2.437   7.498  0.0200 -1.1563  0.8949
  125OSM   C10F13357   0.237   2.545   7.612  0.3770 -0.0578 -0.3391
  125OSM   H10F13358   0.306   2.561   7.696 -1.8611  2.2806  1.1322
  125OSM   C11F13359   0.100   2.607   7.630  0.1929  0.2614  0.6241
  125OSM   H11F13360   0.028   2.542   7.575 -1.2505  1.0069  1.5726
  125OSM   H11G13361   0.088   2.705   7.581  0.7951 -0.8000 -1.7104
  125OSM   C12F13362   0.057   2.629   7.773  0.3395  0.6984  0.6181
  125OSM   H12F13363   0.073   2.545   7.843 -0.4296 -0.9108 -1.1076
  125OSM   H12G13364  -0.054   2.637   7.770  0.2191 -0.5768  1.6355
  125OSM   C13F13365   0.110   2.759   7.837 -0.1448  0.2918  0.0810
  125OSM   H13F13366   0.064   2.839   7.775  2.1470  1.6178  0.0317
  125OSM   H13G13367   0.217   2.762   7.807 -0.6110 -0.3790 -1.6994
  125OSM   C14F13368   0.090   2.771   7.985 -0.5164  0.4702 -0.9317
  125OSM   H14F13369   0.117   2.671   8.027 -4.4772  0.4877  1.9389
  125OSM   H14G13370  -0.017   2.779   8.017 -1.0588 -1.3294 -2.2061
  125OSM   C15F13371   0.157   2.883   8.060  0.0749 -0.2400  0.3633
  125OSM   H15F13372   0.265   2.877   8.033 -0.7138 -0.2359 -3.1494
  125OSM   H15G13373   0.140   2.865   8.168 -1.9064  2.1305  0.5057
  125OSM   C16F13374   0.115   3.025   8.031 -1.1873  0.1114  0.0032
  125OSM   H16F13375   0.007   3.033   8.059 -0.8482 -0.4727  1.5204
  125OSM   H16G13376   0.130   3.052   7.924  0.4146  1.0950  0.4697
  125OSM   C17F13377   0.183   3.129   8.118  0.1374  0.1495  0.3701
  125OSM   H17F13378   0.211   3.085   8.216  1.4709 -1.4368 -0.6961
  125OSM   H17G13379   0.111   3.212   8.133  0.3229  0.0342  2.0385
  125OSM   C18F13380   0.320   3.171   8.056 -0.1955 -0.5343  0.4371
  125OSM   H18F13381   0.328   3.192   7.947 -0.3376  0.7204  0.6631
  125OSM   H18G13382   0.397   3.093   8.076  1.5295  0.6609 -1.3394
  125OSM   H18H13383   0.359   3.264   8.101 -0.7503 -0.4188  0.6848
  126OSM      N13384   4.335   6.736   6.475 -0.7607  0.0262  0.9579
  126OSM    C1513385   4.227   6.646   6.428 -0.5323  0.2260 -0.6237
  126OSM   H15A13386   4.177   6.600   6.511  0.0147  0.2673 -0.2678
  126OSM   H15B13387   4.272   6.577   6.358 -1.6804 -1.2064  0.0275
  126OSM   H15C13388   4.161   6.701   6.362 -1.1031 -0.0584 -0.2892
  126OSM    C1413389   4.275   6.866   6.535  0.1127  0.3412 -0.4059
  126OSM   H14A13390   4.228   6.853   6.631  2.9916 -2.8202  0.7049
  126OSM   H14B13391   4.199   6.912   6.474  1.9082  2.3517 -1.1989
  126OSM   H14C13392   4.351   6.943   6.543  2.1128 -1.8789  3.4129
  126OSM    C1313393   4.421   6.672   6.576  0.5221 -0.1514 -0.0961
  126OSM   H13A13394   4.456   6.579   6.533  0.4897 -0.0055 -0.4384
  126OSM   H13B13395   4.366   6.650   6.666  1.3665 -0.0887  0.4430
  126OSM   H13C13396   4.501   6.737   6.609  0.9229  0.3478 -1.9917
  126OSM    C1213397   4.420   6.779   6.362  0.1266  1.0493  0.0019
  126OSM   H12A13398   4.351   6.829   6.295 -0.0179 -0.2616 -0.8421
  126OSM   H12B13399   4.444   6.694   6.299 -0.0849 -0.6838  2.1866
  126OSM    C1113400   4.556   6.851   6.386  0.1905  0.3203 -0.2643
  126OSM   H11A13401   4.585   6.896   6.288  1.3016  0.3419  0.0631
  126OSM   H11B13402   4.627   6.769   6.410  0.3117 -0.0609 -1.8428
  126OSM      P13403   4.639   7.062   6.513 -0.1039 -0.0034  0.2724
  126OSM    O1313404   4.767   6.996   6.542  0.2202  0.0898 -0.0678
  126OSM    O1413405   4.623   7.159   6.403 -0.5974 -0.6634  0.3889
  126OSM    O1113406   4.572   7.115   6.649  0.0154  0.1877 -0.4549
  126OSM    O1213407   4.530   6.948   6.487 -0.5291  0.8630  0.0364
  126OSM    C1S13408   4.465   7.048   6.727  0.0348 -0.2361 -0.4659
  126OSM    H1S13409   4.476   6.938   6.727 -0.5441 -0.2945 -0.8814
  126OSM    H1T13410   4.362   7.068   6.691 -1.0638 -1.0910  2.0887
  126OSM     NF13411   4.364   7.009   6.942  0.3287  0.2617 -0.1522
  126OSM    HNF13412   4.272   7.048   6.943  0.1675 -0.1186  0.5313
  126OSM    C2S13413   4.469   7.089   6.874 -0.3399 -0.8880  0.0002
  126OSM    H2S13414   4.569   7.053   6.905 -0.3867  0.4356  1.7792
  126OSM    C3S13415   4.470   7.242   6.908 -0.2303  0.1517  0.1225
  126OSM    H3S13416   4.364   7.272   6.897  0.0431  1.2269  0.3582
  126OSM     O313417   4.540   7.320   6.813  0.1166  0.0065  0.7866
  126OSM    HO313418   4.521   7.262   6.739 -2.9131  0.3354  1.2315
  126OSM    C4S13419   4.518   7.274   7.048 -0.3887  0.6136 -0.4302
  126OSM    H4S13420   4.436   7.272   7.121  0.3935  2.6904  0.5597
  126OSM    C5S13421   4.641   7.309   7.100 -0.1807  0.8189  0.1153
  126OSM    H5S13422   4.719   7.335   7.027  0.9569 -2.9971 -0.1256
  126OSM    C6S13423   4.664   7.341   7.249  0.0343 -0.2191  0.0310
  126OSM    H6S13424   4.768   7.375   7.267 -0.4381  0.4786  1.6083
  126OSM    H6T13425   4.652   7.252   7.315  0.2584 -0.0725  0.2702
  126OSM    C7S13426   4.569   7.444   7.315  0.0884  0.6500 -0.0246
  126OSM    H7S13427   4.463   7.414   7.307 -0.0234  0.9348  0.3818
  126OSM    H7T13428   4.574   7.536   7.254 -2.7198  1.8473  1.4658
  126OSM    C8S13429   4.609   7.472   7.462 -0.1371  0.8883 -0.1060
  126OSM    H8S13430   4.718   7.476   7.486 -0.3742 -0.9913  1.3762
  126OSM    H8T13431   4.580   7.380   7.517 -2.4438  0.4849 -1.9143
  126OSM    C9S13432   4.530   7.591   7.511  0.4558  1.1656  0.1180
  126OSM    H9S13433   4.447   7.607   7.439 -0.0131  1.6065  0.7540
  126OSM    H9T13434   4.582   7.688   7.500  0.8301  0.8969 -0.5115
  126OSM   C10S13435   4.487   7.578   7.663  0.0339 -0.3707  0.4122
  126OSM   H10S13436   4.421   7.489   7.671  0.4674 -0.7045  0.3131
  126OSM   H10T13437   4.431   7.669   7.692  1.0735  1.3166 -2.5802
  126OSM   C11S13438   4.596   7.568   7.770  0.9245 -0.3072  0.1143
  126OSM   H11S13439   4.641   7.669   7.785  0.4643  0.0462 -0.8526
  126OSM   H11T13440   4.675   7.500   7.732 -0.1452 -1.5082  0.0252
  126OSM   C12S13441   4.544   7.518   7.901 -0.4664 -0.2169  0.1636
  126OSM   H12S13442   4.468   7.440   7.877 -1.4306  0.6369  0.3989
  126OSM   H12T13443   4.494   7.596   7.963 -1.7827 -1.7857  1.1283
  126OSM   C13S13444   4.669   7.460   7.986 -0.4412 -0.2244 -0.5741
  126OSM   H13S13445   4.734   7.545   8.016 -1.8780  0.1537  1.5980
  126OSM   H13T13446   4.734   7.413   7.910  2.6499 -0.6919  2.2568
  126OSM   C14S13447   4.637   7.357   8.095  0.3117  0.3181 -0.2644
  126OSM   H14S13448   4.718   7.283   8.112 -2.2711 -2.4810  0.2454
  126OSM   H14T13449   4.547   7.301   8.060 -0.1387  1.3557 -0.7973
  126OSM   C15S13450   4.602   7.426   8.230 -0.9611 -0.0676 -0.5916
  126OSM   H15S13451   4.537   7.514   8.211  1.2625  1.3659 -1.7750
  126OSM   H15T13452   4.694   7.472   8.271 -0.1724 -0.4659 -1.8858
  126OSM   C16S13453   4.552   7.324   8.334 -0.9041  0.0226 -0.7465
  126OSM   H16S13454   4.567   7.369   8.435 -0.4484  0.5804 -1.0590
  126OSM   H16T13455   4.611   7.230   8.330 -2.2315 -0.8269 -0.6961
  126OSM   C17S13456   4.403   7.295   8.333  0.0899  1.0500 -0.4545
  126OSM   H17S13457   4.372   7.272   8.229  0.8289 -0.9755 -0.2502
  126OSM   H17T13458   4.338   7.378   8.367  2.3398  1.6286  2.6608
  126OSM   C18S13459   4.363   7.167   8.413  0.1062 -0.4816  0.1204
  126OSM   H18S13460   4.276   7.111   8.372 -1.1153  0.9702  0.7074
  126OSM   H18T13461   4.359   7.183   8.523  0.8444  1.5636 -0.1440
  126OSM   H18U13462   4.447   7.096   8.396  1.1466  0.4111  1.4589
  126OSM    C1F13463   4.384   6.874   6.961  0.1721  0.2876 -0.3215
  126OSM     OF13464   4.501   6.834   6.964  0.1930  0.3339 -0.3304
  126OSM    C2F13465   4.271   6.794   6.971 -0.1154 -0.2458 -0.0972
  126OSM    H2F13466   4.245   6.755   6.870  1.3577  1.2236 -1.0789
  126OSM    H2G13467   4.188   6.859   7.005 -0.6738 -1.3101  0.6100
  126OSM    C3F13468   4.288   6.671   7.072 -0.4809  0.4156  0.1296
  126OSM    H3F13469   4.380   6.612   7.052  0.6236  2.3796 -0.7961
  126OSM    H3G13470   4.198   6.609   7.052  0.0487 -1.0261  2.0850
  126OSM    C4F13471   4.282   6.718   7.219 -0.0223 -0.0737 -0.0863
  126OSM    H4F13472   4.178   6.753   7.231 -0.8578 -1.4911 -2.8070
  126OSM    H4G13473   4.354   6.800   7.242  1.0522 -0.8014 -0.7812
  126OSM    C5F13474   4.311   6.605   7.315 -0.2126 -0.0829 -0.1224
  126OSM    H5F13475   4.419   6.578   7.307  0.3404  1.5793  1.2988
  126OSM    H5G13476   4.269   6.512   7.273  0.1630 -1.2642  2.0063
  126OSM    C6F13477   4.282   6.647   7.462 -0.2319  0.3414  0.2813
  126OSM    H6F13478   4.181   6.687   7.482  0.2156  0.0358  3.4879
  126OSM    H6G13479   4.347   6.732   7.493 -0.2896  0.8727 -1.0446
  126OSM    C7F13480   4.305   6.534   7.568  0.2051  0.2370 -0.4225
  126OSM    H7F13481   4.406   6.491   7.550  0.2508  0.2060 -0.0913
  126OSM    H7G13482   4.233   6.450   7.554  1.1754 -0.6179 -0.2915
  126OSM    C8F13483   4.288   6.581   7.716 -0.3097  0.5409  1.0382
  126OSM    H8F13484   4.189   6.626   7.737 -0.3916  0.4514  0.8497
  126OSM    H8G13485   4.358   6.666   7.729  0.6020 -0.2833  1.6629
  126OSM    C9F13486   4.312   6.465   7.816  0.6673 -0.6261 -0.2779
  126OSM    H9F13487   4.328   6.361   7.781 -0.9980 -1.0080  0.0657
  126OSM   C10F13488   4.318   6.474   7.953  0.3968  0.6299  0.6537
  126OSM   H10F13489   4.322   6.379   8.009 -2.9994 -0.2723 -0.5201
  126OSM   C11F13490   4.304   6.598   8.044 -0.5705  0.0380  0.4066
  126OSM   H11F13491   4.196   6.622   8.051 -0.7546  0.0178 -1.8829
  126OSM   H11G13492   4.366   6.675   7.994 -0.0488 -1.4637 -1.2999
  126OSM   C12F13493   4.353   6.580   8.188 -0.6604  0.0617  0.6260
  126OSM   H12F13494   4.384   6.681   8.221 -1.3698 -0.0754  1.7313
  126OSM   H12G13495   4.447   6.522   8.204 -2.0731 -2.4952 -0.0003
  126OSM   C13F13496   4.236   6.541   8.281  0.1051  0.0671 -0.2292
  126OSM   H13F13497   4.200   6.437   8.263  0.7531 -0.7086  2.6511
  126OSM   H13G13498   4.153   6.610   8.257 -0.8347 -1.2009 -0.6787
  126OSM   C14F13499   4.251   6.565   8.435 -0.2755  0.0897 -0.1322
  126OSM   H14F13500   4.152   6.554   8.485 -0.0576 -1.9942 -0.1304
  126OSM   H14G13501   4.289   6.669   8.445 -1.2098  0.4613 -0.3579
  126OSM   C15F13502   4.342   6.456   8.484  0.1701 -0.5549 -0.1861
  126OSM   H15F13503   4.441   6.455   8.434  0.9957 -1.5818  1.4211
  126OSM   H15G13504   4.283   6.363   8.467  0.5935 -0.8295 -0.1928
  126OSM   C16F13505   4.394   6.470   8.632 -0.1165 -0.5637 -0.0154
  126OSM   H16F13506   4.453   6.564   8.631 -1.2455  0.1747  0.8772
  126OSM   H16G13507   4.470   6.391   8.646 -1.6045 -1.6515  2.1686
  126OSM   C17F13508   4.286   6.450   8.735  0.0561 -0.1100 -0.1912
  126OSM   H17F13509   4.232   6.354   8.720 -0.7767  0.1725  0.9968
  126OSM   H17G13510   4.212   6.532   8.731 -0.1989 -0.2336  1.5506
  126OSM   C18F13511   4.348   6.460   8.872  0.8544 -0.1643  0.0915
  126OSM   H18F13512   4.393   6.365   8.909  0.8168 -0.0583  0.4172
  126OSM   H18G13513   4.286   6.505   8.954  0.6062 -0.6755  0.1837
  126OSM   H18H13514   4.426   6.539   8.865  2.4285 -1.5448  1.6268
  127OSM      N13515   3.260   1.668   6.086 -0.0647 -0.4021  0.1120
  127OSM    C1513516   3.191   1.543   6.038  0.6623 -0.3950 -0.6976
  127OSM   H15A13517   3.153   1.559   5.938  0.2513  0.1514 -0.4561
  127OSM   H15B13518   3.104   1.518   6.097  0.2573 -0.4744 -1.3235
  127OSM   H15C13519   3.259   1.459   6.034  1.3089  0.0875  0.2064
  127OSM    C1413520   3.362   1.710   5.973  0.3515  0.2978  0.5544
  127OSM   H14A13521   3.312   1.742   5.883 -0.1713  0.4493  0.8997
  127OSM   H14B13522   3.423   1.626   5.943  0.0798  0.5725 -0.8093
  127OSM   H14C13523   3.419   1.797   6.005 -0.9491  0.6635  1.9061
  127OSM    C1313524   3.156   1.778   6.084  0.1986 -0.1381  0.2367
  127OSM   H13A13525   3.082   1.751   6.158 -0.1293  1.3539  0.4760
  127OSM   H13B13526   3.115   1.791   5.985 -0.0104 -0.3269  0.2997
  127OSM   H13C13527   3.209   1.868   6.113  1.3496 -0.4166 -0.9623
  127OSM    C1213528   3.327   1.650   6.222  0.1003 -0.5310 -0.2386
  127OSM   H12A13529   3.359   1.747   6.255  1.0923 -0.5591 -1.0750
  127OSM   H12B13530   3.406   1.579   6.201  1.3283  0.5592  0.6018
  127OSM    C1113531   3.247   1.589   6.341  0.0857  0.0117  0.3078
  127OSM   H11A13532   3.321   1.572   6.422  2.4541 -0.6728 -1.9105
  127OSM   H11B13533   3.208   1.487   6.320  1.2412  0.2093 -3.0969
  127OSM      P13534   3.160   1.803   6.465  0.0496  0.7341  0.5032
  127OSM    O1313535   3.280   1.805   6.545 -0.0936 -0.0342 -0.3485
  127OSM    O1413536   3.133   1.925   6.381 -0.7864 -0.1532  0.3064
  127OSM    O1113537   3.044   1.784   6.569 -0.3340  0.7045  0.2736
  127OSM    O1213538   3.138   1.665   6.386 -0.0628  0.1236 -0.1206
  127OSM    C1S13539   3.010   1.656   6.630 -0.2861 -0.8341  0.5084
  127OSM    H1S13540   3.070   1.570   6.594  1.9642  0.8500  0.1538
  127OSM    H1T13541   2.905   1.633   6.601  0.3614 -3.8251  0.3517
  127OSM     NF13542   2.994   1.521   6.841  0.0569 -0.2586  0.1061
  127OSM    HNF13543   2.901   1.516   6.877 -0.6762 -1.7964 -1.9149
  127OSM    C2S13544   3.018   1.655   6.791  1.5034 -0.1791 -0.1483
  127OSM    H2S13545   3.117   1.695   6.821 -0.2851  3.5177  1.1317
  127OSM    C3S13546   2.920   1.756   6.852 -0.7221  0.0914  0.6139
  127OSM    H3S13547   2.822   1.708   6.831  0.7262 -2.5350 -0.3589
  127OSM     O313548   2.912   1.884   6.792 -0.0744 -0.6767  0.3883
  127OSM    HO313549   2.963   1.873   6.712 -1.9678  0.1761 -0.9767
  127OSM    C4S13550   2.927   1.756   7.006 -0.7526  0.1605  1.3248
  127OSM    H4S13551   3.023   1.735   7.055  2.2499  2.4167 -3.2270
  127OSM    C5S13552   2.819   1.777   7.076  0.1061 -0.2072 -0.1792
  127OSM    H5S13553   2.727   1.800   7.020  0.9534 -1.2255 -2.0340
  127OSM    C6S13554   2.801   1.773   7.221  0.0552 -0.0739 -0.2002
  127OSM    H6S13555   2.766   1.669   7.238 -0.0084 -0.4158 -2.2853
  127OSM    H6T13556   2.719   1.847   7.241  2.1868  2.7085 -1.4375
  127OSM    C7S13557   2.915   1.808   7.317  0.1802 -0.1597 -0.1716
  127OSM    H7S13558   3.000   1.737   7.306  0.9677  0.8008 -0.4327
  127OSM    H7T13559   2.873   1.806   7.420 -2.2738  1.4540 -1.1001
  127OSM    C8S13560   2.976   1.952   7.298  0.3424 -0.2782  0.1998
  127OSM    H8S13561   2.895   2.015   7.342  0.8142  1.4814 -1.3656
  127OSM    H8T13562   2.997   1.991   7.196 -2.4336  1.9845  0.4410
  127OSM    C9S13563   3.110   1.960   7.379  0.2304  0.0225 -0.0018
  127OSM    H9S13564   3.181   1.912   7.308  0.9203  1.2904 -0.2081
  127OSM    H9T13565   3.126   1.904   7.474 -1.4762  1.2512  1.0358
  127OSM   C10S13566   3.148   2.098   7.430 -0.1865  0.0262 -0.6419
  127OSM   H10S13567   3.069   2.129   7.502  0.4239 -0.2309  0.1417
  127OSM   H10T13568   3.147   2.164   7.341 -1.0259  1.0599  0.1232
  127OSM   C11S13569   3.287   2.101   7.502 -0.6855  0.7553 -0.9053
  127OSM   H11S13570   3.327   2.204   7.498  3.1027 -0.5960  0.0375
  127OSM   H11T13571   3.364   2.047   7.443  0.5783  2.9130 -1.2544
  127OSM   C12S13572   3.277   2.082   7.653 -0.8900 -0.1517  0.4961
  127OSM   H12S13573   3.243   1.977   7.666  1.1326 -0.7350  1.1426
  127OSM   H12T13574   3.203   2.153   7.696  0.4905  1.3350  0.4787
  127OSM   C13S13575   3.413   2.099   7.722 -0.2991  0.1206  0.2394
  127OSM   H13S13576   3.441   2.204   7.698  0.3155  0.2011  1.2572
  127OSM   H13T13577   3.495   2.039   7.677  0.3997  0.7531  0.6407
  127OSM   C14S13578   3.405   2.080   7.877 -0.3381 -0.5442  0.2679
  127OSM   H14S13579   3.368   1.980   7.910 -2.2821  0.5399  1.5152
  127OSM   H14T13580   3.325   2.149   7.914  0.5566 -0.6576  2.5096
  127OSM   C15S13581   3.540   2.102   7.927 -0.0159  0.0322  0.1959
  127OSM   H15S13582   3.566   2.210   7.924 -1.1241  0.2661 -1.3823
  127OSM   H15T13583   3.613   2.060   7.855 -1.0444 -1.8033  0.1905
  127OSM   C16S13584   3.561   2.062   8.072  0.0074  0.8442 -0.2437
  127OSM   H16S13585   3.662   2.089   8.109  0.3001  0.0611 -0.4804
  127OSM   H16T13586   3.561   1.952   8.083 -0.6189  0.9592  1.1061
  127OSM   C17S13587   3.447   2.114   8.162  1.3158 -0.0114 -0.8155
  127OSM   H17S13588   3.349   2.084   8.118 -0.0809  1.6175  1.0983
  127OSM   H17T13589   3.447   2.224   8.173 -2.4313  0.0419 -0.6654
  127OSM   C18S13590   3.454   2.062   8.302  0.4771  0.4744  0.1176
  127OSM   H18S13591   3.453   1.951   8.310 -1.4931  0.3737 -1.0115
  127OSM   H18T13592   3.371   2.093   8.369 -1.1548 -0.6122 -1.3422
  127OSM   H18U13593   3.549   2.087   8.353  0.5216  0.0116  0.2689
  127OSM    C1F13594   3.079   1.418   6.819 -0.1127  0.4991  0.7033
  127OSM     OF13595   3.198   1.434   6.782  0.5821  0.7121  0.0284
  127OSM    C2F13596   3.033   1.281   6.842  0.6854  0.4676  0.1643
  127OSM    H2F13597   3.069   1.216   6.759  4.1023  0.2579  1.7181
  127OSM    H2G13598   2.922   1.285   6.846  0.6896  0.9311 -0.1395
  127OSM    C3F13599   3.089   1.238   6.980  0.1031 -0.5485 -0.2409
  127OSM    H3F13600   3.199   1.237   6.992  0.0568 -0.3399  0.2397
  127OSM    H3G13601   3.044   1.138   7.002  1.0857 -0.7517  0.9211
  127OSM    C4F13602   3.033   1.323   7.094 -1.4068  0.2096 -0.3007
  127OSM    H4F13603   2.922   1.327   7.095 -1.4018  0.5054 -0.6905
  127OSM    H4G13604   3.082   1.422   7.092  1.0591 -0.9402  1.3178
  127OSM    C5F13605   3.082   1.268   7.240 -0.0388  0.1083  0.2479
  127OSM    H5F13606   3.192   1.266   7.258  0.1502  0.6531 -0.8511
  127OSM    H5G13607   3.045   1.163   7.249  1.0809 -0.0797  3.3447
  127OSM    C6F13608   3.022   1.346   7.351 -0.2814  0.1361  0.5517
  127OSM    H6F13609   3.036   1.284   7.442  0.8787 -1.1741 -0.5134
  127OSM    H6G13610   2.913   1.363   7.338 -0.5949  1.2910  4.0185
  127OSM    C7F13611   3.083   1.478   7.385  0.1789 -0.1850 -0.3437
  127OSM    H7F13612   3.008   1.558   7.402  1.0361  0.2525  1.4802
  127OSM    H7G13613   3.141   1.511   7.296  1.7668 -1.2140  0.2822
  127OSM    C8F13614   3.186   1.469   7.496 -0.2463 -0.1528  0.0441
  127OSM    H8F13615   3.245   1.379   7.467  2.4077  2.5544 -3.3042
  127OSM    H8G13616   3.129   1.432   7.584  0.9165 -0.8408  0.5290
  127OSM    C9F13617   3.270   1.598   7.517  0.5548  0.4182 -0.3135
  127OSM    H9F13618   3.344   1.624   7.441  1.7098  0.7375  0.8908
  127OSM   C10F13619   3.241   1.676   7.624 -0.0552  0.6533 -0.3306
  127OSM   H10F13620   3.312   1.759   7.636 -0.0763  0.4757  1.2010
  127OSM   C11F13621   3.149   1.641   7.737 -0.9346 -0.6170 -0.4565
  127OSM   H11F13622   3.195   1.566   7.804  0.4048  2.1467  1.8224
  127OSM   H11G13623   3.047   1.609   7.706 -1.0927  0.6404 -1.2679
  127OSM   C12F13624   3.154   1.760   7.830 -0.3702  0.0728  0.5880
  127OSM   H12F13625   3.100   1.847   7.787 -1.9430 -0.6236  1.1083
  127OSM   H12G13626   3.259   1.790   7.850 -0.2362 -0.2651  0.3967
  127OSM   C13F13627   3.074   1.726   7.955 -1.6293  0.3223  0.1993
  127OSM   H13F13628   3.137   1.663   8.022 -1.5638  0.8427  0.6335
  127OSM   H13G13629   2.994   1.657   7.920  0.0618 -0.5137 -2.1254
  127OSM   C14F13630   3.031   1.847   8.040 -0.0486  0.2762  0.2334
  127OSM   H14F13631   2.963   1.908   7.978  0.9858  1.9902  0.7494
  127OSM   H14G13632   3.125   1.903   8.060  0.0152  0.2158  0.1056
  127OSM   C15F13633   2.958   1.796   8.164 -0.3640  0.3417 -0.2603
  127OSM   H15F13634   3.012   1.707   8.202 -1.6195  0.3884  1.6912
  127OSM   H15G13635   2.858   1.754   8.140  0.2819 -0.2700 -1.9852
  127OSM   C16F13636   2.943   1.903   8.273  0.0381  0.5448 -1.1778
  127OSM   H16F13637   3.041   1.947   8.301 -1.4104  2.0503  1.7264
  127OSM   H16G13638   2.905   1.857   8.366  0.0250  4.5946  0.9293
  127OSM   C17F13639   2.833   1.999   8.234  0.2156 -0.2738  0.3448
  127OSM   H17F13640   2.739   1.944   8.215 -0.5168  1.5044 -1.3039
  127OSM   H17G13641   2.847   2.040   8.132 -0.4134 -1.5469 -0.2535
  127OSM   C18F13642   2.793   2.109   8.332  0.1005 -0.9658  0.2165
  127OSM   H18F13643   2.884   2.170   8.348 -0.2137 -0.4601  0.0823
  127OSM   H18G13644   2.738   2.072   8.421 -2.2380  0.9107 -0.3968
  127OSM   H18H13645   2.721   2.178   8.284 -0.3324 -0.7331  1.1889
  128OSM      N13646   2.559   4.868   5.967 -0.0763 -0.1076  0.0183
  128OSM    C1513647   2.432   4.835   5.902  0.0837  0.1673 -0.1863
  128OSM   H15A13648   2.372   4.788   5.979  2.8508 -2.8746  0.2186
  128OSM   H15B13649   2.453   4.767   5.821 -4.8624 -1.8408  0.0100
  128OSM   H15C13650   2.374   4.915   5.858 -3.2766 -1.5600  0.9288
  128OSM    C1413651   2.513   4.957   6.089  0.2003  0.1649  0.1265
  128OSM   H14A13652   2.439   4.909   6.152  2.5685 -1.2474  1.9274
  128OSM   H14B13653   2.481   5.052   6.049 -2.8300 -0.2946  1.3039
  128OSM   H14C13654   2.601   4.961   6.152  2.7283 -0.8859 -3.1617
  128OSM    C1313655   2.619   4.753   6.029 -0.0542  0.4839 -0.3513
  128OSM   H13A13656   2.717   4.777   6.069  0.0022 -0.8722  0.3484
  128OSM   H13B13657   2.631   4.684   5.947 -0.7289  2.5961 -2.2627
  128OSM   H13C13658   2.562   4.705   6.107  0.1883  1.3245  0.3597
  128OSM    C1213659   2.646   4.947   5.867  0.0972  0.1292  0.7117
  128OSM   H12A13660   2.580   5.021   5.823 -0.4838 -0.9597 -0.2935
  128OSM   H12B13661   2.666   4.887   5.780 -2.6843 -0.5879  0.5084
  128OSM    C1113662   2.776   5.002   5.918  0.3101  0.3856  0.0358
  128OSM   H11A13663   2.762   5.092   5.981  0.9348  0.3980  0.1607
  128OSM   H11B13664   2.838   5.034   5.830  0.3595 -0.3617 -0.2042
  128OSM      P13665   2.983   4.946   6.079 -0.0106 -0.8114  0.5056
  128OSM    O1313666   3.058   4.821   6.106 -0.0789 -0.2112 -0.3827
  128OSM    O1413667   3.052   5.053   6.007  0.1471  0.3248  0.4867
  128OSM    O1113668   2.918   5.006   6.216 -0.1188  0.2783  0.8332
  128OSM    O1213669   2.856   4.908   5.997  0.1054 -0.4722 -0.1368
  128OSM    C1S13670   2.914   4.911   6.331 -0.4058  0.4424  0.4694
  128OSM    H1S13671   3.012   4.869   6.359 -0.6332  0.3900  1.1890
  128OSM    H1T13672   2.857   4.822   6.299  1.1069  0.2890 -1.9229
  128OSM     NF13673   2.856   4.883   6.571  0.5998  0.3822  0.2244
  128OSM    HNF13674   2.765   4.851   6.596  0.6854 -1.1134 -1.2845
  128OSM    C2S13675   2.848   4.979   6.458 -1.1684  0.2429 -0.4183
  128OSM    H2S13676   2.915   5.065   6.480  0.3764 -1.0217 -0.0769
  128OSM    C3S13677   2.712   5.044   6.434 -0.4206  0.0554 -0.2733
  128OSM    H3S13678   2.639   4.962   6.417 -0.4514 -0.3305  1.5767
  128OSM     O313679   2.717   5.134   6.327  0.0169 -0.3349 -0.8038
  128OSM    HO313680   2.794   5.101   6.282  0.1100 -1.2130 -0.0260
  128OSM    C4S13681   2.670   5.107   6.565  0.2881 -0.5569 -0.0801
  128OSM    H4S13682   2.595   5.040   6.609 -0.3762 -0.2084 -0.6648
  128OSM    C5S13683   2.707   5.224   6.613  0.4020 -0.1572  0.2936
  128OSM    H5S13684   2.778   5.283   6.553  0.5818  0.6984  1.3123
  128OSM    C6S13685   2.646   5.281   6.740 -0.3835 -0.5915 -0.3073
  128OSM    H6S13686   2.631   5.390   6.729 -0.2714 -0.4553  0.8909
  128OSM    H6T13687   2.718   5.260   6.822  0.9490 -0.1254 -1.3380
  128OSM    C7S13688   2.528   5.208   6.811  0.6356 -0.1084  0.2727
  128OSM    H7S13689   2.561   5.111   6.854  0.2292  0.9878  3.1724
  128OSM    H7T13690   2.453   5.180   6.733  0.0064 -2.9243  1.8430
  128OSM    C8S13691   2.474   5.288   6.932  0.6114  0.0670  0.2845
  128OSM    H8S13692   2.409   5.361   6.879 -0.6801 -1.7197 -0.6228
  128OSM    H8T13693   2.550   5.344   6.991  2.1846 -0.8459 -0.8522
  128OSM    C9S13694   2.373   5.208   7.013 -0.0884 -0.0584  0.4420
  128OSM    H9S13695   2.327   5.134   6.944  0.9982 -0.3193 -0.0125
  128OSM    H9T13696   2.296   5.285   7.035  0.6485  0.8852 -0.2285
  128OSM   C10S13697   2.425   5.138   7.137  0.0881 -0.9694 -0.4150
  128OSM   H10S13698   2.506   5.070   7.104  2.6171  0.9697  1.5947
  128OSM   H10T13699   2.349   5.074   7.188 -0.1102  1.2909  2.2835
  128OSM   C11S13700   2.476   5.233   7.245  0.4997 -0.4786 -0.1197
  128OSM   H11S13701   2.407   5.319   7.242 -0.0963 -1.0086 -2.2839
  128OSM   H11T13702   2.577   5.259   7.207  0.9304 -2.0380 -0.0775
  128OSM   C12S13703   2.484   5.170   7.383  0.6890 -0.2256 -0.4410
  128OSM   H12S13704   2.543   5.075   7.385 -0.6402 -1.0536 -0.3913
  128OSM   H12T13705   2.382   5.144   7.416  1.3417 -0.7398  1.2544
  128OSM   C13S13706   2.555   5.278   7.471  0.4287  0.9058  0.0446
  128OSM   H13S13707   2.478   5.358   7.473 -2.4820 -1.7071 -2.6372
  128OSM   H13T13708   2.642   5.314   7.412  0.5852  0.3467 -0.0706
  128OSM   C14S13709   2.576   5.250   7.616  0.2577 -0.1333 -0.4568
  128OSM   H14S13710   2.679   5.260   7.656 -0.4096  3.0310  0.6050
  128OSM   H14T13711   2.556   5.141   7.625  0.1300 -0.2020 -1.5028
  128OSM   C15S13712   2.481   5.322   7.714 -0.0333 -0.1246  0.1726
  128OSM   H15S13713   2.379   5.328   7.671 -0.6496  0.0314  1.6142
  128OSM   H15T13714   2.518   5.424   7.735  2.8256 -0.9931 -0.4227
  128OSM   C16S13715   2.467   5.240   7.846 -0.3974  0.6108 -0.0296
  128OSM   H16S13716   2.442   5.133   7.829 -1.2975  0.7646  0.3143
  128OSM   H16T13717   2.395   5.277   7.922 -0.7709 -2.1504  1.0243
  128OSM   C17S13718   2.598   5.230   7.914 -0.0818 -0.3814  0.2302
  128OSM   H17S13719   2.631   5.334   7.936  2.1874 -0.9498 -0.3579
  128OSM   H17T13720   2.684   5.188   7.857 -0.2422 -0.9091  0.3733
  128OSM   C18S13721   2.598   5.139   8.043  0.4119 -0.2552  0.3557
  128OSM   H18S13722   2.702   5.126   8.080  0.3900  0.1569  0.5687
  128OSM   H18T13723   2.554   5.039   8.024 -0.3342 -0.2653  2.0734
  128OSM   H18U13724   2.533   5.179   8.124 -0.7088  1.1812 -1.2167
  128OSM    C1F13725   2.965   4.842   6.635  0.1881  0.0555  0.1352
  128OSM     OF13726   3.076   4.890   6.613 -0.3296  0.4020  0.2807
  128OSM    C2F13727   2.940   4.750   6.752 -0.5073  0.3352 -0.1144
  128OSM    H2F13728   2.869   4.668   6.726 -1.8759  1.1905  0.8588
  128OSM    H2G13729   2.887   4.801   6.836 -0.6409  1.9934 -1.1763
  128OSM    C3F13730   3.071   4.693   6.807 -0.8392 -0.3731 -0.3242
  128OSM    H3F13731   3.149   4.769   6.829 -0.2856 -0.9418 -0.3259
  128OSM    H3G13732   3.103   4.621   6.729 -1.5703  0.7413 -1.6892
  128OSM    C4F13733   3.054   4.604   6.939  0.2883  0.2855 -0.2581
  128OSM    H4F13734   3.141   4.536   6.945 -1.4270 -2.0422 -0.9830
  128OSM    H4G13735   2.963   4.540   6.935  0.8811 -0.5263 -1.0021
  128OSM    C5F13736   3.049   4.694   7.066  0.0392 -0.3735 -0.0512
  128OSM    H5F13737   2.941   4.722   7.067  0.2404  0.4436 -0.5058
  128OSM    H5G13738   3.112   4.785   7.057 -1.2555  0.6503  0.9063
  128OSM    C6F13739   3.088   4.615   7.187  0.3624  0.8012  0.0241
  128OSM    H6F13740   3.188   4.568   7.179  0.9491  1.9810  0.3417
  128OSM    H6G13741   3.016   4.530   7.194  0.7420  0.2700 -2.2447
  128OSM    C7F13742   3.078   4.702   7.307  0.0228 -0.0845  0.8404
  128OSM    H7F13743   2.991   4.769   7.298  0.8798  1.1872  1.7379
  128OSM    H7G13744   3.162   4.775   7.314  2.2652 -2.6654  2.0866
  128OSM    C8F13745   3.054   4.638   7.442 -0.4314  0.6739  0.8684
  128OSM    H8F13746   3.137   4.566   7.458 -3.8162 -3.3993  1.0732
  128OSM    H8G13747   2.958   4.582   7.443  1.2380 -2.4075 -0.9430
  128OSM    C9F13748   3.054   4.749   7.546  0.4988  0.5495 -0.1688
  128OSM    H9F13749   3.128   4.829   7.527  0.7790 -0.4320 -3.5757
  128OSM   C10F13750   2.990   4.744   7.661  0.1661 -0.3530 -0.0635
  128OSM   H10F13751   3.002   4.830   7.730 -2.6706  0.9760 -1.1599
  128OSM   C11F13752   2.913   4.627   7.713  0.5064 -0.6730 -0.4269
  128OSM   H11F13753   2.953   4.536   7.665  1.9327 -1.1961  1.6801
  128OSM   H11G13754   2.805   4.645   7.692  0.9217  1.6121 -0.7231
  128OSM   C12F13755   2.936   4.614   7.868  0.6001 -0.0181 -0.7467
  128OSM   H12F13756   2.931   4.711   7.924 -0.2345  0.2847 -1.3399
  128OSM   H12G13757   3.032   4.561   7.885  0.1755 -0.8218 -0.8388
  128OSM   C13F13758   2.819   4.535   7.931 -0.5707  0.5663  0.6531
  128OSM   H13F13759   2.799   4.438   7.880 -0.1548 -0.8199  3.0409
  128OSM   H13G13760   2.723   4.589   7.916 -1.4212 -1.5176 -1.7861
  128OSM   C14F13761   2.834   4.500   8.081 -0.2686  0.3599 -0.2891
  128OSM   H14F13762   2.853   4.590   8.144 -1.2382  1.2333 -1.2192
  128OSM   H14G13763   2.932   4.449   8.083 -0.6691 -0.3892  3.1390
  128OSM   C15F13764   2.725   4.415   8.150  0.1562  0.6106  0.2601
  128OSM   H15F13765   2.716   4.314   8.104  1.0037  0.3419  0.6767
  128OSM   H15G13766   2.623   4.455   8.131 -1.0408 -1.7790  1.4321
  128OSM   C16F13767   2.748   4.395   8.302  0.2264  0.1450 -0.3724
  128OSM   H16F13768   2.745   4.496   8.348 -0.5326  0.0041 -0.0949
  128OSM   H16G13769   2.844   4.342   8.319 -0.1082 -0.2205  0.4145
  128OSM   C17F13770   2.639   4.311   8.371  0.9072 -0.4135 -0.3605
  128OSM   H17F13771   2.541   4.355   8.341  0.9548 -0.3680 -0.4486
  128OSM   H17G13772   2.649   4.343   8.476 -0.8079  1.2298 -0.6610
  128OSM   C18F13773   2.643   4.159   8.348 -0.1845  0.1191 -0.1260
  128OSM   H18F13774   2.739   4.122   8.390 -0.8621  0.5429  1.8642
  128OSM   H18G13775   2.639   4.142   8.239 -2.9061 -2.2353  0.2599
  128OSM   H18H13776   2.551   4.115   8.393 -0.7864  2.1959  0.7314
  129OSM      N13777   1.181   6.538   5.921 -0.1681 -0.7267 -0.0197
  129OSM    C1513778   1.330   6.538   5.870  0.0780 -1.2897 -0.3455
  129OSM   H15A13779   1.329   6.508   5.766 -2.3500 -0.3846 -0.6083
  129OSM   H15B13780   1.387   6.476   5.938 -0.1986  0.0253  1.1135
  129OSM   H15C13781   1.373   6.636   5.883 -0.5708 -1.0901  0.3282
  129OSM    C1413782   1.114   6.619   5.822 -0.3636 -0.5776  0.0407
  129OSM   H14A13783   1.132   6.580   5.723  0.3069  0.0273 -0.0867
  129OSM   H14B13784   1.164   6.715   5.816  0.1893 -0.9173 -0.8204
  129OSM   H14C13785   1.010   6.631   5.846 -0.5726 -0.3959 -0.9333
  129OSM    C1313786   1.133   6.400   5.907  0.2069 -0.5419  0.0316
  129OSM   H13A13787   1.192   6.335   5.970  1.7529  0.5146 -0.3075
  129OSM   H13B13788   1.132   6.360   5.807 -0.5448 -0.0111 -0.1786
  129OSM   H13C13789   1.029   6.390   5.934  0.0437  1.1735  0.1088
  129OSM    C1213790   1.165   6.591   6.061  0.8255 -0.9506  0.7575
  129OSM   H12A13791   1.060   6.587   6.085  0.4683  2.2211 -0.1265
  129OSM   H12B13792   1.191   6.695   6.068 -0.4982 -0.4087 -1.7339
  129OSM    C1113793   1.253   6.532   6.179 -0.3536  0.0717  0.1145
  129OSM   H11A13794   1.253   6.421   6.171  1.2690 -0.1156  2.1093
  129OSM   H11B13795   1.193   6.553   6.270 -0.2267 -0.6201  0.3644
  129OSM      P13796   1.435   6.727   6.223  0.3012 -0.1432 -0.3002
  129OSM    O1313797   1.579   6.708   6.248  0.0747 -0.1238 -0.6993
  129OSM    O1413798   1.399   6.816   6.103 -0.1135  0.5995  0.3342
  129OSM    O1113799   1.355   6.767   6.351  0.1837 -0.6256  0.4931
  129OSM    O1213800   1.384   6.580   6.188  0.3225 -0.2801 -0.7980
  129OSM    C1S13801   1.337   6.675   6.458 -0.0628  0.1897  0.8488
  129OSM    H1S13802   1.389   6.578   6.441 -0.6960 -0.2317  1.3346
  129OSM    H1T13803   1.235   6.633   6.465  1.0773 -2.9665 -0.4692
  129OSM     NF13804   1.385   6.617   6.687  0.2910  0.9724  0.9030
  129OSM    HNF13805   1.309   6.607   6.751  0.7048 -0.0025  1.2500
  129OSM    C2S13806   1.382   6.728   6.592 -0.9469 -0.4934  0.1245
  129OSM    H2S13807   1.487   6.765   6.596 -1.1353  0.1349 -0.5768
  129OSM    C3S13808   1.291   6.846   6.631  0.0323  0.6929 -0.4635
  129OSM    H3S13809   1.185   6.815   6.619  0.3647 -0.6515  0.0441
  129OSM     O313810   1.300   6.961   6.549 -0.6396  0.1930 -0.4193
  129OSM    HO313811   1.338   6.929   6.467 -2.0498 -1.4052 -0.4554
  129OSM    C4S13812   1.319   6.893   6.765 -0.1084  0.1700 -0.0473
  129OSM    H4S13813   1.413   6.948   6.773 -0.2627  0.4368 -0.0576
  129OSM    C5S13814   1.237   6.899   6.869 -0.3742 -0.1149  0.7578
  129OSM    H5S13815   1.143   6.842   6.858  0.5297 -1.3635 -0.6446
  129OSM    C6S13816   1.260   6.969   7.002  0.0798 -0.6721 -0.3131
  129OSM    H6S13817   1.176   7.040   7.019 -0.2110 -1.5612  2.2161
  129OSM    H6T13818   1.350   7.032   6.990 -0.6192  0.3485 -0.3155
  129OSM    C7S13819   1.281   6.882   7.130 -0.1131 -0.4765 -0.2731
  129OSM    H7S13820   1.342   6.791   7.113  1.3795  0.3756  0.3764
  129OSM    H7T13821   1.177   6.848   7.147 -0.5954  1.4224  0.7166
  129OSM    C8S13822   1.334   6.951   7.257  0.1644  0.1797 -0.1245
  129OSM    H8S13823   1.415   7.021   7.229 -1.5630  1.9988 -0.7377
  129OSM    H8T13824   1.375   6.871   7.322 -0.2132 -0.0513 -0.1702
  129OSM    C9S13825   1.227   7.036   7.333  0.4772 -0.1649  0.5684
  129OSM    H9S13826   1.132   6.986   7.360 -1.4848  1.9152 -2.3142
  129OSM    H9T13827   1.206   7.115   7.259  0.3050 -1.0007 -0.2788
  129OSM   C10S13828   1.273   7.109   7.459 -0.1080  0.1904 -0.3695
  129OSM   H10S13829   1.367   7.158   7.428  0.2817 -0.3833 -0.1203
  129OSM   H10T13830   1.289   7.045   7.549  0.2849 -0.9636 -1.2379
  129OSM   C11S13831   1.162   7.197   7.519  0.0928 -0.0794  0.0630
  129OSM   H11S13832   1.074   7.130   7.525 -0.3275  0.4931  0.3320
  129OSM   H11T13833   1.128   7.276   7.448  0.8889  1.1278  0.9951
  129OSM   C12S13834   1.184   7.270   7.658 -0.5743 -0.1899 -0.3128
  129OSM   H12S13835   1.108   7.351   7.666 -0.0983  0.2013  0.3084
  129OSM   H12T13836   1.288   7.309   7.665  0.0562 -1.8251 -0.5933
  129OSM   C13S13837   1.163   7.169   7.769  0.1300 -0.2497  0.2903
  129OSM   H13S13838   1.246   7.096   7.761 -0.6038 -0.7495 -3.2769
  129OSM   H13T13839   1.071   7.111   7.747 -1.1809  2.6075 -2.0396
  129OSM   C14S13840   1.147   7.239   7.903  0.9275  0.5976 -0.6506
  129OSM   H14S13841   1.067   7.316   7.904 -0.7162 -1.0604  0.5469
  129OSM   H14T13842   1.236   7.292   7.942  1.4384 -0.3825 -0.4572
  129OSM   C15S13843   1.118   7.139   8.017 -0.5370 -0.2564 -0.3366
  129OSM   H15S13844   1.024   7.084   7.997 -1.0037  0.3079  0.2493
  129OSM   H15T13845   1.099   7.205   8.105 -0.0236 -0.2646 -0.2183
  129OSM   C16S13846   1.235   7.043   8.043  0.1236  0.1560 -0.1123
  129OSM   H16S13847   1.316   7.061   7.969 -0.1559 -1.1497 -0.7431
  129OSM   H16T13848   1.199   6.939   8.031  1.5253 -0.3594  0.1395
  129OSM   C17S13849   1.287   7.055   8.187  0.1429 -0.3451  0.2790
  129OSM   H17S13850   1.316   7.159   8.213 -1.8632  0.9619 -2.4143
  129OSM   H17T13851   1.382   6.996   8.186  1.2076  1.3256  0.5351
  129OSM   C18S13852   1.188   6.991   8.290 -0.0089 -0.1921  0.2645
  129OSM   H18S13853   1.233   6.980   8.391  0.0939  0.3802  0.2843
  129OSM   H18T13854   1.147   6.896   8.250 -3.2646  1.2229  0.0561
  129OSM   H18U13855   1.100   7.054   8.314  0.0841 -1.1996  3.6283
  129OSM    C1F13856   1.466   6.512   6.681  0.4287 -0.4393  0.7827
  129OSM     OF13857   1.561   6.516   6.594 -0.0130 -0.1660 -0.4573
  129OSM    C2F13858   1.415   6.392   6.754 -0.0530  0.4770 -0.7260
  129OSM    H2F13859   1.374   6.328   6.673  1.0527 -0.9768 -0.1663
  129OSM    H2G13860   1.326   6.422   6.815  1.7153  1.3414  1.5338
  129OSM    C3F13861   1.530   6.337   6.845  0.2307 -0.0335  0.2950
  129OSM    H3F13862   1.545   6.405   6.931 -2.8546 -0.1955  1.0003
  129OSM    H3G13863   1.629   6.333   6.794  1.1361 -3.8212  2.2465
  129OSM    C4F13864   1.493   6.205   6.914  0.0461 -0.4199  0.5850
  129OSM    H4F13865   1.473   6.124   6.841  0.2697 -0.1427  0.2208
  129OSM    H4G13866   1.406   6.226   6.980 -0.2440 -0.9973  0.3881
  129OSM    C5F13867   1.604   6.154   7.010  0.0658 -0.4349 -0.2944
  129OSM    H5F13868   1.556   6.072   7.066  1.2493 -0.8630  0.0933
  129OSM    H5G13869   1.634   6.230   7.085 -3.0067 -0.1493  0.7459
  129OSM    C6F13870   1.734   6.113   6.939 -0.1598 -0.2175 -0.1927
  129OSM    H6F13871   1.792   6.205   6.915  0.4797  0.1002  2.4291
  129OSM    H6G13872   1.703   6.057   6.848  0.8494  1.4682 -1.6254
  129OSM    C7F13873   1.822   6.017   7.024 -0.1017  0.3622 -0.2847
  129OSM    H7F13874   1.905   5.978   6.962 -1.6830  0.5271 -2.5573
  129OSM    H7G13875   1.758   5.933   7.057  0.5158  0.2080  0.5343
  129OSM    C8F13876   1.885   6.096   7.142 -0.0151  0.2443 -0.8497
  129OSM    H8F13877   1.806   6.161   7.186  1.6124  0.4616  1.9038
  129OSM    H8G13878   1.964   6.162   7.101 -0.7696  1.1245 -0.9154
  129OSM    C9F13879   1.953   6.011   7.242 -0.8765 -0.6631  0.0806
  129OSM    H9F13880   2.061   5.993   7.229 -0.5215  0.8743  0.6876
  129OSM   C10F13881   1.904   5.957   7.350  1.6082  0.4330 -0.6422
  129OSM   H10F13882   1.973   5.907   7.419  2.1059 -1.7155 -2.6337
  129OSM   C11F13883   1.761   5.966   7.398  0.0460 -0.3113 -0.5617
  129OSM   H11F13884   1.729   5.875   7.453  1.3432  0.2923  1.2492
  129OSM   H11G13885   1.689   5.969   7.313 -0.0730  0.8225 -0.4320
  129OSM   C12F13886   1.733   6.097   7.477  0.4091 -0.1058  0.4278
  129OSM   H12F13887   1.627   6.106   7.508 -0.7676 -2.8146 -2.5742
  129OSM   H12G13888   1.757   6.181   7.408  0.1267  0.6957  1.2954
  129OSM   C13F13889   1.817   6.116   7.602  1.0361  1.0231  0.2252
  129OSM   H13F13890   1.924   6.095   7.581  0.4965 -1.6716  0.0255
  129OSM   H13G13891   1.782   6.030   7.663  2.3122 -0.3028 -0.8752
  129OSM   C14F13892   1.788   6.248   7.680 -0.3278  0.2769  1.0331
  129OSM   H14F13893   1.678   6.256   7.697 -0.3763  0.7539  0.5274
  129OSM   H14G13894   1.807   6.336   7.615 -0.9779 -1.0125 -0.9512
  129OSM   C15F13895   1.872   6.248   7.816  0.4879 -0.4888  0.5022
  129OSM   H15F13896   1.975   6.249   7.774 -0.2547  1.8475 -1.3810
  129OSM   H15G13897   1.843   6.168   7.887  1.2030 -0.6567  0.6025
  129OSM   C16F13898   1.842   6.379   7.885  0.1184  0.2945  0.6825
  129OSM   H16F13899   1.738   6.412   7.863  0.2395 -1.3700 -2.9796
  129OSM   H16G13900   1.909   6.457   7.843  1.8925 -0.4269  2.1404
  129OSM   C17F13901   1.879   6.374   8.028  0.7135 -0.6982  0.1202
  129OSM   H17F13902   1.985   6.405   8.041  1.0629 -1.5891 -0.6008
  129OSM   H17G13903   1.868   6.267   8.055 -1.7396 -0.3469  0.6505
  129OSM   C18F13904   1.788   6.450   8.124  0.3769 -0.3299 -0.0640
  129OSM   H18F13905   1.815   6.429   8.229 -1.0803 -0.1597  0.3568
  129OSM   H18G13906   1.682   6.420   8.112  0.0748  0.8610 -0.4851
  129OSM   H18H13907   1.791   6.558   8.099 -2.0241 -0.2409 -0.0887
  130OSM      N13908   1.474   3.754   6.112 -0.2151  0.0713  0.3594
  130OSM    C1513909   1.341   3.725   6.169 -0.3313  0.0176  0.0182
  130OSM   H15A13910   1.268   3.712   6.090  0.1302 -0.0183 -0.4032
  130OSM   H15B13911   1.305   3.806   6.231 -1.8328 -1.7850  1.5892
  130OSM   H15C13912   1.347   3.636   6.231  2.5916 -1.2332 -1.9579
  130OSM    C1413913   1.570   3.780   6.225  0.4213  0.7034  0.3499
  130OSM   H14A13914   1.561   3.695   6.291  0.0351  2.1654  2.2126
  130OSM   H14B13915   1.547   3.864   6.288  0.6877 -1.1616  3.0281
  130OSM   H14C13916   1.675   3.787   6.199  0.3962 -0.8831 -0.2195
  130OSM    C1313917   1.515   3.629   6.032  0.0716  0.3647 -0.0042
  130OSM   H13A13918   1.520   3.547   6.103 -0.5892  0.6621  0.3875
  130OSM   H13B13919   1.618   3.645   6.002  0.1501 -2.5617 -1.4724
  130OSM   H13C13920   1.452   3.597   5.951  1.2095  0.5852 -0.9812
  130OSM    C1213921   1.470   3.875   6.013  0.4660 -0.1616  0.7050
  130OSM   H12A13922   1.437   3.838   5.918 -1.8671  0.1422  1.3494
  130OSM   H12B13923   1.574   3.904   6.009  1.0195 -2.3043 -0.8697
  130OSM    C1113924   1.394   4.001   6.056 -0.1489  0.1058 -0.3556
  130OSM   H11A13925   1.285   3.985   6.069 -0.2759  1.9082  1.0543
  130OSM   H11B13926   1.400   4.071   5.969 -1.5714 -1.5455 -1.8288
  130OSM      P13927   1.520   4.191   6.180 -0.2847  0.3868 -0.0234
  130OSM    O1313928   1.656   4.190   6.126  0.2214 -0.0024  0.2450
  130OSM    O1413929   1.436   4.297   6.128 -0.3880 -0.4134  0.0464
  130OSM    O1113930   1.528   4.212   6.330 -0.0071 -0.1298 -0.1103
  130OSM    O1213931   1.453   4.054   6.176  0.3781 -0.1922  0.9312
  130OSM    C1S13932   1.406   4.189   6.406  0.4366  0.4308 -0.0930
  130OSM    H1S13933   1.366   4.089   6.382  1.2675  0.1159 -0.1944
  130OSM    H1T13934   1.325   4.264   6.395  1.7114  2.3141  2.5714
  130OSM     NF13935   1.317   4.158   6.624 -0.0914  0.0402  0.1524
  130OSM    HNF13936   1.257   4.236   6.640  0.3471  0.3424  0.3278
  130OSM    C2S13937   1.441   4.199   6.556  0.8586  0.2099  0.7205
  130OSM    H2S13938   1.519   4.121   6.571 -0.2064 -1.0801 -0.2486
  130OSM    C3S13939   1.500   4.334   6.602 -0.1802  0.0161 -0.1810
  130OSM    H3S13940   1.428   4.413   6.570 -0.2521 -0.3972 -1.0361
  130OSM     O313941   1.626   4.372   6.542 -0.1457 -0.1362 -0.1696
  130OSM    HO313942   1.647   4.292   6.494 -1.7193  1.3075 -3.3784
  130OSM    C4S13943   1.512   4.352   6.754  1.1170  0.5978 -0.5259
  130OSM    H4S13944   1.424   4.406   6.794  0.3243 -1.0811  0.0424
  130OSM    C5S13945   1.612   4.305   6.828 -0.4419  0.3715 -0.6783
  130OSM    H5S13946   1.691   4.248   6.777 -0.9048 -0.4204 -0.5151
  130OSM    C6S13947   1.618   4.323   6.982  0.4759 -0.1999  0.1979
  130OSM    H6S13948   1.606   4.432   7.004 -2.1050 -0.8618  2.3781
  130OSM    H6T13949   1.713   4.291   7.030  1.3655  2.1105  0.0358
  130OSM    C7S13950   1.494   4.277   7.060  0.1574  0.1147 -0.8110
  130OSM    H7S13951   1.483   4.168   7.040 -1.6919  0.4917 -2.0398
  130OSM    H7T13952   1.394   4.315   7.027 -0.2112  0.8223  1.0732
  130OSM    C8S13953   1.523   4.285   7.209 -0.3906  0.5530 -0.5566
  130OSM    H8S13954   1.424   4.305   7.255  0.3554  0.2274  1.1885
  130OSM    H8T13955   1.587   4.368   7.246 -1.6351  1.6295 -0.7710
  130OSM    C9S13956   1.567   4.153   7.276  0.0250 -0.1755  0.1764
  130OSM    H9S13957   1.650   4.103   7.220 -0.9722 -0.9247 -0.6549
  130OSM    H9T13958   1.487   4.077   7.275  0.6226 -0.8198 -1.6903
  130OSM   C10S13959   1.625   4.174   7.417 -0.7069  0.2135 -0.2895
  130OSM   H10S13960   1.703   4.253   7.415 -0.9241  0.4620  0.8773
  130OSM   H10T13961   1.678   4.082   7.450 -1.3260  0.1643  0.5765
  130OSM   C11S13962   1.504   4.205   7.515  0.2220  0.8591 -0.0269
  130OSM   H11S13963   1.427   4.125   7.503  1.0643 -0.1138  0.9471
  130OSM   H11T13964   1.459   4.299   7.475 -0.6030  1.6525  2.6842
  130OSM   C12S13965   1.537   4.201   7.667 -0.4946 -0.9081 -0.3670
  130OSM   H12S13966   1.609   4.283   7.685 -0.0598 -1.2084 -0.7525
  130OSM   H12T13967   1.600   4.111   7.686 -1.1852 -1.2452  0.3694
  130OSM   C13S13968   1.419   4.214   7.765 -0.1347 -0.4932  0.3730
  130OSM   H13S13969   1.347   4.134   7.738 -0.4087  0.2490 -1.1674
  130OSM   H13T13970   1.367   4.312   7.764 -1.3875 -1.1489  0.5266
  130OSM   C14S13971   1.474   4.195   7.908 -0.1855 -0.1676  0.2141
  130OSM   H14S13972   1.528   4.291   7.921 -0.5984  0.0362  0.4521
  130OSM   H14T13973   1.552   4.116   7.916  0.6299  0.7210  1.1165
  130OSM   C15S13974   1.362   4.167   8.009 -0.4566  1.0383 -0.4682
  130OSM   H15S13975   1.325   4.065   7.986 -0.4569  1.0590 -0.5617
  130OSM   H15T13976   1.272   4.231   7.994 -0.1512  2.1250  2.0693
  130OSM   C16S13977   1.389   4.185   8.163 -0.4298 -0.2172  0.2403
  130OSM   H16S13978   1.477   4.127   8.197  0.0611 -0.9650 -2.2259
  130OSM   H16T13979   1.301   4.157   8.225 -1.0763 -0.8419 -0.9532
  130OSM   C17S13980   1.436   4.327   8.207 -0.7980  0.1294 -0.5134
  130OSM   H17S13981   1.349   4.395   8.194  1.4998  2.9066 -1.7106
  130OSM   H17T13982   1.518   4.360   8.140  0.0957 -3.0235 -1.0722
  130OSM   C18S13983   1.480   4.330   8.356  0.3633 -0.7097  0.3491
  130OSM   H18S13984   1.383   4.323   8.411 -1.6948 -2.4981 -3.2944
  130OSM   H18T13985   1.528   4.429   8.371 -0.0914 -0.4320  0.0104
  130OSM   H18U13986   1.552   4.247   8.369 -0.9623 -2.1590 -1.3070
  130OSM    C1F13987   1.272   4.031   6.626  0.2213 -0.4788 -0.0503
  130OSM     OF13988   1.340   3.934   6.601 -0.2886 -0.0816  0.2514
  130OSM    C2F13989   1.120   4.017   6.639  0.0265  0.0758  0.4357
  130OSM    H2F13990   1.088   4.001   6.534  1.7128  0.2343 -0.1250
  130OSM    H2G13991   1.075   4.109   6.682 -2.5045 -1.0396  0.2687
  130OSM    C3F13992   1.069   3.898   6.730 -0.3668 -0.0004  0.1833
  130OSM    H3F13993   1.103   3.802   6.685 -2.5519  0.1381 -1.8121
  130OSM    H3G13994   0.959   3.896   6.717 -0.2775 -2.8372 -0.5957
  130OSM    C4F13995   1.130   3.885   6.867  0.3404  0.3633 -0.2858
  130OSM    H4F13996   1.240   3.879   6.850  0.7393  1.7751  1.6799
  130OSM    H4G13997   1.100   3.790   6.916  0.6495  0.2727 -0.2675
  130OSM    C5F13998   1.103   4.000   6.962 -0.5001  0.1935  0.8118
  130OSM    H5F13999   0.993   4.015   6.962 -0.3259  1.5052  1.7144
  130OSM    H5G14000   1.143   4.095   6.920  2.0668 -1.1889  0.0203
  130OSM    C6F14001   1.159   3.973   7.101 -0.0110  0.3096  0.8780
  130OSM    H6F14002   1.266   3.960   7.076 -0.3523 -1.2003  0.1187
  130OSM    H6G14003   1.122   3.873   7.135 -0.3968  0.4865  0.9789
  130OSM    C7F14004   1.121   4.078   7.201 -0.4999  0.5271 -0.2284
  130OSM    H7F14005   1.009   4.078   7.199 -0.4920 -0.2857 -1.0766
  130OSM    H7G14006   1.166   4.174   7.170  0.8011 -0.0927 -0.2900
  130OSM    C8F14007   1.174   4.048   7.343 -0.7129 -0.3076  0.0382
  130OSM    H8F14008   1.283   4.035   7.328 -0.4692  2.9034 -1.3575
  130OSM    H8G14009   1.136   3.953   7.387  1.3527 -0.9427  0.5517
  130OSM    C9F14010   1.144   4.164   7.438  0.5320  0.9086 -0.1678
  130OSM    H9F14011   1.220   4.244   7.435 -1.0347  2.3925 -0.6258
  130OSM   C10F14012   1.042   4.163   7.532 -0.3061  0.0502  0.0827
  130OSM   H10F14013   1.025   4.252   7.594  0.0246  1.2268 -1.4775
  130OSM   C11F14014   0.936   4.058   7.555 -0.1767  0.4744 -0.5754
  130OSM   H11F14015   0.935   3.979   7.477 -1.5355  1.2886 -1.4108
  130OSM   H11G14016   0.840   4.114   7.554 -0.5981 -0.2106  0.4148
  130OSM   C12F14017   0.944   3.990   7.697 -0.8450 -0.2438  0.9464
  130OSM   H12F14018   1.040   3.933   7.692 -1.4092 -1.1946  0.9125
  130OSM   H12G14019   0.861   3.918   7.707 -1.0592 -0.0423  0.6063
  130OSM   C13F14020   0.935   4.092   7.821 -0.1087  0.1672  0.4738
  130OSM   H13F14021   0.867   4.177   7.798  0.0226  0.5555  1.5263
  130OSM   H13G14022   1.042   4.122   7.825  0.3976 -1.5809  0.3006
  130OSM   C14F14023   0.899   4.036   7.953  0.1540 -0.0682 -0.2815
  130OSM   H14F14024   0.930   3.930   7.953 -0.3530 -0.2192 -1.3196
  130OSM   H14G14025   0.788   4.038   7.958  0.2111 -0.2943  1.8889
  130OSM   C15F14026   0.944   4.126   8.071  0.8891 -0.4865  0.4121
  130OSM   H15F14027   0.885   4.219   8.060 -0.7308 -1.6242 -0.7909
  130OSM   H15G14028   1.049   4.157   8.056  0.2451  2.1020  0.9907
  130OSM   C16F14029   0.921   4.074   8.213  0.0908  0.1331  0.5649
  130OSM   H16F14030   1.009   4.010   8.233 -0.0781 -0.6761 -1.2588
  130OSM   H16G14031   0.826   4.016   8.212  0.7096 -0.8686 -1.2755
  130OSM   C17F14032   0.918   4.196   8.305  0.3373  1.0920 -0.4917
  130OSM   H17F14033   0.897   4.156   8.406  0.3657  2.5078  0.0843
  130OSM   H17G14034   0.841   4.272   8.282  0.5561  1.8800  1.3043
  130OSM   C18F14035   1.047   4.283   8.311  0.5533  0.1031  0.0555
  130OSM   H18F14036   1.065   4.327   8.211 -1.2213 -0.7089 -0.6405
  130OSM   H18G14037   1.131   4.223   8.352 -1.6361 -0.8357  3.3084
  130OSM   H18H14038   1.031   4.367   8.382 -0.5567 -0.7935  0.8693
  131OSM      N14039   1.777   1.732   5.829  0.0986 -0.3319  0.1328
  131OSM    C1514040   1.687   1.756   5.708  0.1445 -0.1118 -0.3041
  131OSM   H15A14041   1.691   1.685   5.626 -2.5827  0.3271 -0.8671
  131OSM   H15B14042   1.717   1.851   5.667 -0.0473 -0.0721 -0.3512
  131OSM   H15C14043   1.581   1.754   5.728  0.7331  0.1953  2.9685
  131OSM    C1414044   1.922   1.760   5.800 -0.2885  0.0039 -0.1770
  131OSM   H14A14045   1.976   1.743   5.892 -2.1393 -0.2998  0.8810
  131OSM   H14B14046   1.936   1.862   5.768 -1.1784 -0.0650 -0.7913
  131OSM   H14C14047   1.963   1.690   5.729  2.1459  0.4642  0.7154
  131OSM    C1314048   1.738   1.833   5.932  0.1289 -0.1564 -0.9157
  131OSM   H13A14049   1.744   1.932   5.892 -1.2598 -0.1253 -1.0949
  131OSM   H13B14050   1.799   1.828   6.021  1.0360 -1.8215 -1.6063
  131OSM   H13C14051   1.631   1.828   5.951  0.0413  0.4146 -1.2694
  131OSM    C1214052   1.764   1.590   5.884 -0.2948 -0.2333 -0.5881
  131OSM   H12A14053   1.787   1.520   5.805 -0.9033  0.0337 -0.9986
  131OSM   H12B14054   1.662   1.567   5.911  0.4552 -0.0915  2.6074
  131OSM    C1114055   1.850   1.553   6.009 -0.1537  0.1347  0.4425
  131OSM   H11A14056   1.956   1.578   5.987 -0.0013 -1.1463 -0.2856
  131OSM   H11B14057   1.827   1.445   6.014  0.4591  0.0120  0.6333
  131OSM      P14058   1.670   1.561   6.192 -0.1622  0.0212  0.2811
  131OSM    O1314059   1.564   1.585   6.095 -0.7586 -0.0984  0.2017
  131OSM    O1414060   1.693   1.423   6.234  0.4650  0.5230 -0.3363
  131OSM    O1114061   1.658   1.657   6.316 -0.2387  0.4468 -0.5919
  131OSM    O1214062   1.798   1.619   6.124  0.0921  0.3240  0.8018
  131OSM    C1S14063   1.769   1.714   6.390  0.1905 -0.1608 -0.2890
  131OSM    H1S14064   1.802   1.809   6.344 -0.9913  0.1318 -0.5545
  131OSM    H1T14065   1.855   1.644   6.389 -0.9646 -1.6000 -0.4743
  131OSM     NF14066   1.847   1.763   6.627 -0.3249  0.0071  0.3406
  131OSM    HNF14067   1.868   1.687   6.688  1.5957 -0.1204 -0.4354
  131OSM    C2S14068   1.726   1.746   6.538 -0.3278  0.8547 -0.2327
  131OSM    H2S14069   1.664   1.838   6.547 -0.8677  0.2813  2.0787
  131OSM    C3S14070   1.635   1.626   6.590 -0.4895  0.0791  0.0617
  131OSM    H3S14071   1.695   1.534   6.577 -3.3112 -1.7087 -0.6781
  131OSM     O314072   1.508   1.605   6.526  0.0883 -0.9643 -0.1446
  131OSM    HO314073   1.520   1.652   6.443  1.0463  1.0140  1.0740
  131OSM    C4S14074   1.609   1.659   6.736 -0.9093  0.3077  0.7501
  131OSM    H4S14075   1.563   1.758   6.745  1.2345  1.1890  2.4365
  131OSM    C5S14076   1.640   1.573   6.835 -0.6909 -0.2589 -0.9035
  131OSM    H5S14077   1.683   1.475   6.809 -0.7167 -1.5626  3.5731
  131OSM    C6S14078   1.618   1.598   6.980 -0.4568 -0.3456 -0.2183
  131OSM    H6S14079   1.548   1.521   7.021 -1.0059 -1.3620 -2.9724
  131OSM    H6T14080   1.563   1.694   6.991  0.0605 -0.0468 -0.2483
  131OSM    C7S14081   1.744   1.614   7.064  0.2440  0.7876  0.6314
  131OSM    H7S14082   1.821   1.660   6.998 -1.1713  0.9073 -0.9637
  131OSM    H7T14083   1.782   1.517   7.101 -1.2400 -0.1222 -0.2150
  131OSM    C8S14084   1.728   1.709   7.197  0.0194  0.3879  0.1914
  131OSM    H8S14085   1.647   1.666   7.261  1.6126 -0.9717  1.3241
  131OSM    H8T14086   1.690   1.811   7.176  1.6106  1.2410  1.3664
  131OSM    C9S14087   1.860   1.722   7.274 -0.6915 -0.6412 -0.2182
  131OSM    H9S14088   1.924   1.784   7.207  0.8025 -0.5555  1.2397
  131OSM    H9T14089   1.907   1.623   7.291  0.5633  0.1131  0.8239
  131OSM   C10S14090   1.839   1.787   7.418 -0.6874  0.2403  0.1794
  131OSM   H10S14091   1.756   1.735   7.471  0.4107 -0.6911  1.0082
  131OSM   H10T14092   1.812   1.892   7.396 -0.0280  0.9785  2.7688
  131OSM   C11S14093   1.968   1.771   7.497 -0.0850 -0.2868 -0.0015
  131OSM   H11S14094   2.060   1.786   7.437 -1.8858 -0.6490 -2.9285
  131OSM   H11T14095   1.976   1.665   7.528  0.5483 -0.4272 -0.6414
  131OSM   C12S14096   1.979   1.859   7.616  0.2643  0.0443 -0.7191
  131OSM   H12S14097   1.881   1.847   7.666  0.5287 -1.8329 -0.6464
  131OSM   H12T14098   1.994   1.966   7.588  1.2359  0.1528  0.1923
  131OSM   C13S14099   2.089   1.804   7.708 -0.7101 -0.9152 -0.1439
  131OSM   H13S14100   2.186   1.823   7.656 -0.6023  0.2108  0.4392
  131OSM   H13T14101   2.069   1.695   7.712  0.9163 -1.1458  2.8946
  131OSM   C14S14102   2.092   1.862   7.851  0.3274  1.0745 -0.0081
  131OSM   H14S14103   2.008   1.835   7.917  0.0709  2.6836  0.3490
  131OSM   H14T14104   2.085   1.973   7.843  0.2228  1.0822  0.2081
  131OSM   C15S14105   2.230   1.833   7.921  0.6379 -0.3118 -0.1140
  131OSM   H15S14106   2.303   1.879   7.851 -0.3556 -1.1147 -1.6866
  131OSM   H15T14107   2.251   1.724   7.927 -0.7558 -0.5087  1.9103
  131OSM   C16S14108   2.240   1.899   8.064 -0.1517  0.0441  0.3711
  131OSM   H16S14109   2.169   1.858   8.138  0.7309  1.2383  1.9018
  131OSM   H16T14110   2.198   2.001   8.056 -1.5066 -0.3347  2.1791
  131OSM   C17S14111   2.385   1.915   8.109 -0.0396 -0.0782  0.5513
  131OSM   H17S14112   2.454   1.956   8.031 -0.4233  0.9459  0.7390
  131OSM   H17T14113   2.407   1.809   8.135 -0.1080 -0.4982 -1.0696
  131OSM   C18S14114   2.396   1.997   8.243  0.3663 -0.1740 -0.0432
  131OSM   H18S14115   2.492   1.974   8.295  0.1614  0.9044  0.8268
  131OSM   H18T14116   2.312   1.976   8.312  0.9819 -1.4051  0.3515
  131OSM   H18U14117   2.388   2.106   8.226 -1.8910 -0.5433 -1.6733
  131OSM    C1F14118   1.930   1.868   6.622  0.0584 -0.0182  0.1131
  131OSM     OF14119   1.903   1.955   6.549 -0.2139 -0.5542 -0.0578
  131OSM    C2F14120   2.050   1.877   6.711 -0.3556 -0.1467 -0.7779
  131OSM    H2F14121   2.141   1.842   6.658  0.6953  1.2050  0.1010
  131OSM    H2G14122   2.043   1.808   6.798  0.7123  0.1249 -0.4729
  131OSM    C3F14123   2.075   2.021   6.749  0.2982  0.2640 -0.0039
  131OSM    H3F14124   1.981   2.063   6.790  0.1574  0.1456 -0.2060
  131OSM    H3G14125   2.105   2.081   6.661 -0.1962  0.4530 -0.0455
  131OSM    C4F14126   2.177   2.037   6.862 -0.2991  0.0811 -0.0911
  131OSM    H4F14127   2.180   2.147   6.876  1.6428 -0.1537  1.5887
  131OSM    H4G14128   2.283   2.005   6.847  0.6470  3.1406 -0.3927
  131OSM    C5F14129   2.127   1.984   7.006  0.7131 -0.3763  1.2375
  131OSM    H5F14130   2.107   1.878   6.982  0.1258 -0.1359  0.6668
  131OSM    H5G14131   2.034   2.041   7.025  0.1977 -0.5822 -0.5590
  131OSM    C6F14132   2.221   2.012   7.114 -0.4393  0.9037  0.2240
  131OSM    H6F14133   2.150   2.018   7.199  0.6602 -0.9846  1.3213
  131OSM    H6G14134   2.280   2.106   7.107 -0.2924  0.9500  1.8405
  131OSM    C7F14135   2.316   1.891   7.151  0.5812 -0.2998  0.3967
  131OSM    H7F14136   2.378   1.862   7.063 -1.8368  0.6755 -1.6611
  131OSM    H7G14137   2.264   1.804   7.197 -0.6649  0.6824  0.8584
  131OSM    C8F14138   2.427   1.937   7.255 -0.1651 -0.0880  0.3925
  131OSM    H8F14139   2.481   2.023   7.212  1.7460 -1.5495 -0.2101
  131OSM    H8G14140   2.500   1.853   7.262 -1.0236 -0.9220 -0.5287
  131OSM    C9F14141   2.367   1.963   7.395  0.3161  0.1170  0.0503
  131OSM    H9F14142   2.289   1.890   7.420  2.6677 -2.1466  1.0338
  131OSM   C10F14143   2.400   2.062   7.489 -0.1518 -0.5551  0.3952
  131OSM   H10F14144   2.349   2.074   7.585 -1.8271  1.9393 -0.7517
  131OSM   C11F14145   2.499   2.174   7.456  0.5245  0.6935  0.1623
  131OSM   H11F14146   2.475   2.279   7.485  2.9501  1.1523  0.6333
  131OSM   H11G14147   2.512   2.174   7.346 -2.5645 -1.4397 -0.2637
  131OSM   C12F14148   2.636   2.142   7.525 -0.0426 -0.5710 -0.2165
  131OSM   H12F14149   2.705   2.219   7.485  1.8230 -2.5854 -0.9590
  131OSM   H12G14150   2.673   2.040   7.503  1.5858 -0.1249  0.3927
  131OSM   C13F14151   2.636   2.141   7.675 -0.2535 -0.0699 -0.0962
  131OSM   H13F14152   2.573   2.057   7.708  2.5561 -1.4836  1.8271
  131OSM   H13G14153   2.595   2.239   7.708  3.3107  1.0828  1.2392
  131OSM   C14F14154   2.767   2.116   7.743 -0.2011 -0.1247  0.9069
  131OSM   H14F14155   2.757   2.111   7.854  0.2856  1.3257  1.0274
  131OSM   H14G14156   2.840   2.198   7.724 -1.0506  0.4381 -0.0117
  131OSM   C15F14157   2.838   1.981   7.710  0.5198 -0.1999  0.1769
  131OSM   H15F14158   2.938   1.998   7.755  1.8049 -0.3887 -2.4947
  131OSM   H15G14159   2.864   1.961   7.604 -2.6005  2.5509 -1.2105
  131OSM   C16F14160   2.766   1.866   7.780  0.0704  0.0314 -0.1907
  131OSM   H16F14161   2.727   1.883   7.883  0.7707 -0.1066  0.1024
  131OSM   H16G14162   2.841   1.784   7.796  1.0932  0.4158 -2.8361
  131OSM   C17F14163   2.652   1.801   7.708 -0.1565 -0.2694 -0.1039
  131OSM   H17F14164   2.674   1.818   7.600  1.6202 -1.5042  0.0527
  131OSM   H17G14165   2.561   1.853   7.745  0.9748  1.3903  0.3621
  131OSM   C18F14166   2.653   1.650   7.727  0.1617  0.0487  0.1957
  131OSM   H18F14167   2.597   1.619   7.818 -2.2301  0.9602 -0.9287
  131OSM   H18G14168   2.753   1.605   7.746  0.5652  1.4367  1.4753
  131OSM   H18H14169   2.597   1.598   7.646 -0.8138 -0.6538  1.3002
  132OSM      N14170   3.874   6.299   5.856  0.6369 -0.1460 -0.0137
  132OSM    C1514171   3.849   6.429   5.781  0.1905 -0.8885  0.7638
  132OSM   H15A14172   3.939   6.440   5.722 -1.3752  0.0448 -1.5291
  132OSM   H15B14173   3.843   6.515   5.846  0.8818 -1.3593  1.4645
  132OSM   H15C14174   3.761   6.424   5.718 -0.2094 -0.7151  1.2999
  132OSM    C1414175   3.867   6.182   5.767 -0.5216 -0.1188 -0.6659
  132OSM   H14A14176   3.917   6.181   5.672 -1.1998 -2.0499 -1.0094
  132OSM   H14B14177   3.766   6.166   5.732 -0.3286 -0.6240 -0.9767
  132OSM   H14C14178   3.887   6.092   5.823 -0.6119  0.5065  0.3914
  132OSM    C1314179   4.012   6.300   5.913 -0.0816 -0.7256  0.1018
  132OSM   H13A14180   4.027   6.231   5.995  0.2021 -0.4892  0.2512
  132OSM   H13B14181   4.032   6.395   5.960 -2.1359  0.1876 -0.8089
  132OSM   H13C14182   4.085   6.276   5.836  0.1556 -0.4347  0.2334
  132OSM    C1214183   3.775   6.283   5.968 -0.1353  0.0991  0.3293
  132OSM   H12A14184   3.770   6.180   6.003  0.8108  0.8451  2.7663
  132OSM   H12B14185   3.674   6.296   5.933 -0.2841 -3.6138 -0.8820
  132OSM    C1114186   3.795   6.382   6.083 -0.0349  0.0157 -0.1010
  132OSM   H11A14187   3.705   6.361   6.144  0.1449 -1.9504 -0.4878
  132OSM   H11B14188   3.798   6.485   6.041  0.2857 -0.8751 -2.3273
  132OSM      P14189   3.925   6.416   6.313 -0.0743 -0.3405  0.2209
  132OSM    O1314190   4.004   6.312   6.382 -0.6002 -0.5892 -0.8454
  132OSM    O1414191   3.979   6.555   6.310 -0.2472 -0.4466 -0.4588
  132OSM    O1114192   3.778   6.426   6.365 -0.0628  0.1464  0.0060
  132OSM    O1214193   3.904   6.350   6.165  0.1149 -0.6691 -1.0290
  132OSM    C1S14194   3.693   6.312   6.402 -0.5597 -0.1464 -0.2948
  132OSM    H1S14195   3.748   6.221   6.369 -1.8353 -2.9568  4.7588
  132OSM    H1T14196   3.592   6.331   6.361  0.0574  1.0938 -1.3038
  132OSM     NF14197   3.611   6.172   6.598 -0.8586  0.7442  0.2648
  132OSM    HNF14198   3.528   6.177   6.653 -1.8447 -0.3233 -1.1010
  132OSM    C2S14199   3.675   6.296   6.555  0.1501 -0.2649  0.2336
  132OSM    H2S14200   3.780   6.294   6.591 -0.2616  0.1101  1.5135
  132OSM    C3S14201   3.604   6.420   6.621 -0.3403  0.4278  0.0892
  132OSM    H3S14202   3.494   6.410   6.626 -0.1017 -3.6417 -1.3361
  132OSM     O314203   3.631   6.546   6.561 -0.4078  0.1453 -0.2957
  132OSM    HO314204   3.675   6.522   6.479  0.3466 -2.6560  0.8563
  132OSM    C4S14205   3.645   6.424   6.771  0.4099  0.2038 -0.4034
  132OSM    H4S14206   3.751   6.447   6.787  0.8964 -3.2042  1.8674
  132OSM    C5S14207   3.559   6.435   6.873 -0.2795 -0.1109  0.1419
  132OSM    H5S14208   3.452   6.421   6.849 -0.3267 -1.7965  1.2403
  132OSM    C6S14209   3.589   6.436   7.021  0.5108  0.0092  1.1731
  132OSM    H6S14210   3.551   6.345   7.074 -1.9163  1.6037  2.2554
  132OSM    H6T14211   3.541   6.523   7.070 -2.2215 -0.8081  0.0766
  132OSM    C7S14212   3.740   6.441   7.064  0.7933 -0.7240  0.7375
  132OSM    H7S14213   3.790   6.519   7.003  1.3364 -0.4820  1.4931
  132OSM    H7T14214   3.796   6.348   7.043  0.5753 -0.9029  0.9466
  132OSM    C8S14215   3.760   6.469   7.213 -0.2791 -0.1915  0.3059
  132OSM    H8S14216   3.702   6.393   7.270 -0.4090 -1.1882 -1.1100
  132OSM    H8T14217   3.730   6.569   7.249  1.3049  0.6694 -0.7213
  132OSM    C9S14218   3.908   6.443   7.240 -0.0053  0.5077  0.8624
  132OSM    H9S14219   3.972   6.487   7.160 -1.8041 -0.6708 -1.2886
  132OSM    H9T14220   3.911   6.332   7.228  1.6853  0.7186 -0.9904
  132OSM   C10S14221   3.955   6.471   7.383  0.0796 -0.4368  0.1796
  132OSM   H10S14222   3.932   6.580   7.384  1.4901 -0.0974 -1.5392
  132OSM   H10T14223   4.065   6.453   7.389  0.2043 -0.5100 -2.0716
  132OSM   C11S14224   3.883   6.404   7.499  0.0260  0.1142 -0.0483
  132OSM   H11S14225   3.875   6.295   7.480 -0.2898 -0.1030  1.2552
  132OSM   H11T14226   3.779   6.442   7.506 -0.1980 -0.6440  0.7632
  132OSM   C12S14227   3.962   6.416   7.630 -0.1800 -0.4017 -0.0882
  132OSM   H12S14228   4.001   6.520   7.636  1.2694 -0.9470  0.3685
  132OSM   H12T14229   4.062   6.368   7.622  1.5309  2.9164  0.5514
  132OSM   C13S14230   3.880   6.380   7.745  0.3213  0.2564 -0.8720
  132OSM   H13S14231   3.868   6.269   7.745  1.7610  0.0508 -3.3553
  132OSM   H13T14232   3.783   6.424   7.717 -0.2270  1.1467  2.2580
  132OSM   C14S14233   3.923   6.443   7.873  0.4433 -0.1864 -0.1495
  132OSM   H14S14234   3.908   6.552   7.857  1.1288  0.1288  1.2721
  132OSM   H14T14235   4.030   6.433   7.902  0.1964 -1.0222  0.4723
  132OSM   C15S14236   3.842   6.397   7.993 -0.2770  0.2203 -0.6738
  132OSM   H15S14237   3.850   6.287   8.004 -1.4818  0.2132  0.3092
  132OSM   H15T14238   3.737   6.412   7.959 -0.5425 -0.4440 -0.1649
  132OSM   C16S14239   3.886   6.468   8.125 -0.7411  0.0063 -0.1804
  132OSM   H16S14240   3.863   6.575   8.110 -0.4357  0.0272 -0.5063
  132OSM   H16T14241   3.994   6.462   8.148 -0.8603 -0.3201  0.3167
  132OSM   C17S14242   3.806   6.407   8.245 -0.3197 -0.1849  0.1850
  132OSM   H17S14243   3.804   6.296   8.239 -0.1200 -0.1439 -0.6469
  132OSM   H17T14244   3.700   6.439   8.229 -1.0739 -2.5297  0.2425
  132OSM   C18S14245   3.861   6.446   8.378  0.0722 -0.0735  0.6168
  132OSM   H18S14246   3.787   6.417   8.455  0.1815 -1.5887  0.1577
  132OSM   H18T14247   3.873   6.555   8.393  2.4419 -0.0623 -1.1065
  132OSM   H18U14248   3.955   6.391   8.401  0.2279 -0.4243 -0.8200
  132OSM    C1F14249   3.653   6.048   6.562  0.4085 -0.1259 -0.4671
  132OSM     OF14250   3.759   6.030   6.508 -0.1805  0.2327  0.0816
  132OSM    C2F14251   3.559   5.936   6.590 -0.3250 -0.2181  0.1530
  132OSM    H2F14252   3.563   5.862   6.506 -1.3243  0.3226 -0.3724
  132OSM    H2G14253   3.456   5.976   6.599 -0.5709  0.0436 -3.0105
  132OSM    C3F14254   3.598   5.864   6.724  0.3307 -0.9977  0.8156
  132OSM    H3F14255   3.529   5.779   6.743 -0.9133  0.1427  1.4526
  132OSM    H3G14256   3.584   5.928   6.814  2.9980 -1.3877  1.5694
  132OSM    C4F14257   3.737   5.818   6.736 -1.0606 -0.7658  0.0154
  132OSM    H4F14258   3.802   5.903   6.765  1.2948 -3.4115  2.8818
  132OSM    H4G14259   3.776   5.769   6.645  2.8934 -0.1675  1.3147
  132OSM    C5F14260   3.756   5.730   6.858 -0.2290  0.1261  0.1369
  132OSM    H5F14261   3.703   5.634   6.841 -0.8455  0.6192 -0.8229
  132OSM    H5G14262   3.705   5.787   6.938 -0.8986 -1.2578  0.7121
  132OSM    C6F14263   3.903   5.687   6.876 -0.1143 -0.0257 -0.1316
  132OSM    H6F14264   3.961   5.776   6.907 -0.7732  0.4698 -0.3059
  132OSM    H6G14265   3.938   5.656   6.775  1.2669  0.7407  0.0980
  132OSM    C7F14266   3.923   5.569   6.969 -0.3772 -0.3294 -0.7760
  132OSM    H7F14267   4.025   5.527   6.973 -0.1871  0.3744  2.9391
  132OSM    H7G14268   3.863   5.486   6.927 -0.1028 -0.6268 -0.5778
  132OSM    C8F14269   3.860   5.599   7.108 -1.1242 -0.0424 -0.1282
  132OSM    H8F14270   3.823   5.501   7.144  1.4679 -2.7102 -4.2993
  132OSM    H8G14271   3.775   5.671   7.100  0.0355  1.4629  0.7843
  132OSM    C9F14272   3.968   5.655   7.205 -0.4429  0.0057  0.2890
  132OSM    H9F14273   4.034   5.729   7.158 -0.4757 -0.7836 -1.0020
  132OSM   C10F14274   3.997   5.604   7.323 -0.4849 -0.1038  0.1225
  132OSM   H10F14275   4.081   5.650   7.377 -0.7307  0.1019  0.3404
  132OSM   C11F14276   3.928   5.487   7.402 -0.7442 -0.0099  0.3643
  132OSM   H11F14277   3.944   5.392   7.348  1.8223  0.5722  0.0424
  132OSM   H11G14278   3.821   5.511   7.419 -0.8621  0.3825 -0.9269
  132OSM   C12F14279   3.982   5.471   7.548 -0.1794 -0.1031  0.3022
  132OSM   H12F14280   4.009   5.568   7.594  1.0197 -0.5110  0.4846
  132OSM   H12G14281   4.084   5.428   7.555 -0.5070 -0.8123  0.8387
  132OSM   C13F14282   3.888   5.387   7.635  0.4072 -0.0208 -0.6597
  132OSM   H13F14283   3.864   5.293   7.581 -1.0460 -0.1615  0.1850
  132OSM   H13G14284   3.788   5.431   7.660  0.8344  1.1175 -0.9341
  132OSM   C14F14285   3.960   5.349   7.764 -0.1636  0.0330 -0.4308
  132OSM   H14F14286   3.941   5.427   7.841  2.1251 -0.3984  0.6114
  132OSM   H14G14287   4.068   5.342   7.740  0.4074  1.6780  1.4964
  132OSM   C15F14288   3.917   5.209   7.805  0.8606  0.4669  0.2262
  132OSM   H15F14289   3.939   5.134   7.726 -0.8371  1.0121 -0.7915
  132OSM   H15G14290   3.807   5.197   7.812  1.0396 -1.5790  0.0893
  132OSM   C16F14291   3.976   5.166   7.938  0.0290 -0.2155  0.4713
  132OSM   H16F14292   4.086   5.170   7.928 -0.0476  0.1505 -0.2550
  132OSM   H16G14293   3.937   5.063   7.956 -0.7134 -0.2792 -1.3912
  132OSM   C17F14294   3.925   5.239   8.063 -0.7715  0.3513 -0.0770
  132OSM   H17F14295   3.822   5.280   8.058 -1.1910 -0.9383 -3.1055
  132OSM   H17G14296   3.996   5.322   8.080  1.3858 -1.6556  1.1318
  132OSM   C18F14297   3.930   5.158   8.199 -0.4231 -0.9358  0.7514
  132OSM   H18F14298   3.862   5.071   8.183  1.4374 -2.0803 -1.2721
  132OSM   H18G14299   3.908   5.225   8.284 -0.2458 -0.6878  0.6022
  132OSM   H18H14300   4.034   5.121   8.214 -0.7690 -1.4915  1.7915
  133SAPE     N14301   5.706   3.631  10.519  0.0899  0.0509  0.1002
  133SAPE   HN114302   5.624   3.689  10.496  0.1017 -0.1990 -0.5643
  133SAPE   HN214303   5.694   3.619  10.622 -0.8889 -1.3122 -0.1614
  133SAPE   HN314304   5.797   3.677  10.497 -0.0037  1.3124  2.2424
  133SAPE   C1214305   5.699   3.504  10.442 -0.1637 -0.2040  0.3384
  133SAPE  H12A14306   5.705   3.533  10.335  1.0831 -0.0093  0.4501
  133SAPE  H12B14307   5.599   3.460  10.459 -1.1406  1.0509 -1.9900
  133SAPE   C1114308   5.809   3.399  10.473  0.0563 -0.3681  0.1273
  133SAPE  H11A14309   5.906   3.450  10.454 -0.6633  0.9096 -0.2149
  133SAPE  H11B14310   5.795   3.321  10.395  0.2838  0.2811 -0.5786
  133SAPE     P14311   5.769   3.217  10.658  0.0085 -0.1147  0.0156
  133SAPE   O1314312   5.807   3.201  10.800 -0.8731 -0.4898 -0.5151
  133SAPE   O1414313   5.633   3.177  10.620  0.0921  0.3596 -0.4644
  133SAPE   O1214314   5.795   3.364  10.608  0.7408  0.0142 -0.2364
  133SAPE   O1114315   5.872   3.141  10.568  0.7238  0.5568 -0.0154
  133SAPE    C114316   6.012   3.171  10.580 -0.4222 -0.0090  0.2001
  133SAPE    HA14317   6.057   3.115  10.495 -3.5151  0.1898 -1.6246
  133SAPE    HB14318   6.031   3.280  10.568 -0.2173 -0.0763 -0.1052
  133SAPE    C214319   6.084   3.111  10.707 -0.2930 -0.1240  0.3712
  133SAPE    HS14320   6.032   3.155  10.796 -0.9175 -1.3455  0.6161
  133SAPE   O2114321   6.221   3.151  10.710 -0.8487  0.1681 -0.0549
  133SAPE   C2114322   6.241   3.273  10.759 -0.3362 -0.0647 -0.6599
  133SAPE   O2214323   6.161   3.356  10.796 -0.3283 -0.0515  0.2664
  133SAPE   C2214324   6.390   3.292  10.775 -0.3562 -0.2546 -0.5450
  133SAPE   H2R14325   6.411   3.377  10.843  0.4824 -0.7295 -0.2077
  133SAPE   H2S14326   6.412   3.205  10.841  0.2071  0.1142 -0.2486
  133SAPE    C314327   6.064   2.954  10.717  0.6723 -0.5561  0.0808
  133SAPE    HX14328   5.955   2.935  10.713  0.6539 -0.1282 -1.9027
  133SAPE    HY14329   6.100   2.923  10.817  2.0344  2.0532  0.4607
  133SAPE   O3114330   6.136   2.886  10.617  0.2537  0.1365  0.5705
  133SAPE   C3114331   6.268   2.859  10.627  0.1149 -0.3491 -0.0012
  133SAPE   O3214332   6.331   2.874  10.730 -0.2331 -0.8353  0.2288
  133SAPE   C3214333   6.327   2.818  10.497  0.0444  0.7118 -0.2387
  133SAPE   H2X14334   6.244   2.824  10.424  1.4649 -0.8785 -2.0539
  133SAPE   H2Y14335   6.359   2.712  10.487  3.1464  1.5457  0.0231
  133SAPE   C2314336   6.476   3.296  10.649  0.3307 -0.5367  0.0012
  133SAPE   H3R14337   6.438   3.219  10.578 -0.3189  1.5528 -1.9878
  133SAPE   H3S14338   6.582   3.267  10.670 -0.2095 -1.1857  1.8871
  133SAPE   C2414339   6.471   3.431  10.580 -0.2389  0.8375 -0.3172
  133SAPE   H4R14340   6.557   3.437  10.511  2.9545 -0.6808  3.3295
  133SAPE   H4S14341   6.500   3.498  10.664  0.9569  0.9847 -0.8407
  133SAPE   C2514342   6.345   3.486  10.516 -0.0716  0.1480  0.7764
  133SAPE   H5R14343   6.288   3.555  10.579  1.4770  2.6951 -0.5101
  133SAPE   C2614344   6.307   3.450  10.393 -0.9291  0.1794  0.3075
  133SAPE   H6R14345   6.224   3.502  10.342 -1.6048  0.0924  1.3074
  133SAPE   C2714346   6.379   3.345  10.308  0.1359 -0.6223 -0.1680
  133SAPE   H7R14347   6.363   3.250  10.364  1.5674  0.3317  1.9091
  133SAPE   H7S14348   6.488   3.363  10.321 -0.0316 -1.0233  2.1291
  133SAPE   C2814349   6.348   3.340  10.161 -0.2120 -0.2667  0.0699
  133SAPE   H8R14350   6.435   3.379  10.106 -1.2950  0.7003 -0.9969
  133SAPE   C2914351   6.255   3.275  10.090  0.6554  0.0642  0.0375
  133SAPE   H9R14352   6.262   3.276   9.980  0.7334 -0.3394  0.0388
  133SAPE  C21014353   6.132   3.201  10.143  0.4719  0.7334 -0.3972
  133SAPE  H10R14354   6.155   3.156  10.242  0.3321  0.4425 -0.4992
  133SAPE  H10S14355   6.121   3.115  10.074 -1.0305 -0.2988  1.1039
  133SAPE  C21114356   5.999   3.273  10.161 -0.2561  0.7466  0.4465
  133SAPE  H11R14357   5.982   3.297  10.267  0.8734  2.5058  0.2460
  133SAPE  C21214358   5.901   3.300  10.072 -0.3119 -0.3273 -0.2152
  133SAPE  H12R14359   5.811   3.356  10.101  0.9566  0.2005  2.9408
  133SAPE  C21314360   5.902   3.289   9.917  0.3732 -0.2829  0.2694
  133SAPE  H13R14361   5.809   3.338   9.881 -0.2150 -1.3932  0.2541
  133SAPE  H13S14362   5.897   3.184   9.881 -1.4883  0.7203 -2.6372
  133SAPE  C21414363   6.012   3.354   9.844 -0.6332 -0.3515 -0.0952
  133SAPE  H14R14364   6.074   3.423   9.903 -1.6094  0.0612  0.4645
  133SAPE  C21514365   6.031   3.337   9.709  0.5847  0.0606 -0.1308
  133SAPE  H15R14366   6.121   3.386   9.668 -0.0294  0.8256 -0.5898
  133SAPE  C21614367   5.960   3.251   9.603  0.5519  0.5699 -0.2785
  133SAPE  H16R14368   5.855   3.221   9.627  0.8268  0.4796  0.8664
  133SAPE  H16S14369   6.013   3.155   9.585 -0.2765 -0.1255  0.9061
  133SAPE  C21714370   5.943   3.335   9.474  0.1269 -0.1557 -0.1876
  133SAPE  H17R14371   6.044   3.365   9.438 -0.4790  0.9882 -0.9823
  133SAPE  H17S14372   5.895   3.427   9.514  0.5323  0.7473 -1.7367
  133SAPE  C21814373   5.854   3.275   9.361 -0.3520 -0.3537 -0.1041
  133SAPE  H18R14374   5.829   3.370   9.309 -0.8341  0.1964  1.0970
  133SAPE  H18S14375   5.757   3.237   9.400 -1.1942  2.4313  0.6200
  133SAPE  C21914376   5.906   3.167   9.268  0.2672  0.0663 -0.2896
  133SAPE  H19R14377   5.941   3.083   9.331 -2.5753 -1.4178 -0.6032
  133SAPE  H19S14378   5.998   3.212   9.226 -0.0714  3.1773  2.1148
  133SAPE  C22014379   5.816   3.127   9.152 -0.2677 -0.4070  0.1646
  133SAPE  H20R14380   5.852   3.044   9.088 -0.4917  0.8801 -1.6416
  133SAPE  H20S14381   5.802   3.215   9.086  1.7823 -0.4609 -0.3885
  133SAPE  H20T14382   5.718   3.094   9.192 -0.7436  1.5642  0.6810
  133SAPE   C3314383   6.438   2.908  10.443  0.3238 -0.1619 -0.8899
  133SAPE   H3X14384   6.538   2.868  10.470  0.1845 -1.6445 -2.4795
  133SAPE   H3Y14385   6.425   3.015  10.471  0.4457 -0.1777 -0.7721
  133SAPE   C3414386   6.444   2.912  10.290 -0.5112 -1.0335 -0.3471
  133SAPE   H4X14387   6.522   2.984  10.257 -2.0375  0.6738 -0.3242
  133SAPE   H4Y14388   6.343   2.944  10.256 -1.2695  0.2969  2.9544
  133SAPE   C3514389   6.461   2.772  10.220  0.0396 -0.6671  0.1524
  133SAPE   H5X14390   6.378   2.700  10.235 -0.0865 -0.4452  0.5139
  133SAPE   H5Y14391   6.550   2.718  10.260  1.1444  1.7380  1.0253
  133SAPE   C3614392   6.481   2.784  10.068 -0.0240  1.3430 -0.2530
  133SAPE   H6X14393   6.503   2.685  10.024 -2.6700  0.4662  0.2828
  133SAPE   H6Y14394   6.562   2.854  10.038 -1.3298  2.4842 -1.1687
  133SAPE   C3714395   6.352   2.832  10.008 -0.1818  0.5512  0.5879
  133SAPE   H7X14396   6.319   2.929  10.050 -1.2402  0.9815 -1.1745
  133SAPE   H7Y14397   6.283   2.748  10.034  1.3475 -0.9595 -0.0900
  133SAPE   C3814398   6.365   2.854   9.854  0.6321  0.2141 -0.4370
  133SAPE   H8X14399   6.362   2.761   9.792  0.1637 -0.8001  1.0842
  133SAPE   H8Y14400   6.458   2.902   9.817  0.7547 -0.7955 -1.4651
  133SAPE   C3914401   6.239   2.942   9.804 -0.0396 -0.3123 -0.8528
  133SAPE   H9X14402   6.265   3.045   9.834  0.5546 -0.2674 -1.5222
  133SAPE   H9Y14403   6.149   2.910   9.861  0.8314 -1.6694 -0.1862
  133SAPE  C31014404   6.204   2.937   9.655 -0.2390 -0.1702 -0.0698
  133SAPE  H10X14405   6.104   2.981   9.635  1.0621  2.5346 -0.9543
  133SAPE  H10Y14406   6.213   2.831   9.622  1.3176  0.3882 -1.5391
  133SAPE  C31114407   6.297   3.019   9.564 -0.2071 -0.0960 -0.5901
  133SAPE  H11X14408   6.402   2.990   9.583 -1.3595 -2.0710  3.2801
  133SAPE  H11Y14409   6.289   3.128   9.581  1.0237 -0.4569  2.5594
  133SAPE  C31214410   6.277   2.980   9.412  0.3986 -0.5881 -0.7768
  133SAPE  H12X14411   6.168   2.984   9.392  0.3358  2.1665 -0.0847
  133SAPE  H12Y14412   6.317   2.881   9.383  0.4917 -1.3524  1.7903
  133SAPE  C31314413   6.354   3.079   9.317  0.1873 -0.0592 -0.0745
  133SAPE  H13X14414   6.463   3.070   9.334 -0.1604 -1.9319  1.2103
  133SAPE  H13Y14415   6.330   3.183   9.349  0.8882  0.6592 -1.7840
  133SAPE  C31414416   6.318   3.054   9.168 -0.6576  0.8967 -0.3070
  133SAPE  H14X14417   6.217   3.011   9.158  0.2396 -1.6544  1.2095
  133SAPE  H14Y14418   6.386   2.968   9.147 -0.6712  0.8241 -0.0458
  133SAPE  C31514419   6.357   3.173   9.083 -0.0118  0.7323 -0.0038
  133SAPE  H15X14420   6.464   3.200   9.088 -0.1485  2.5640 -4.6259
  133SAPE  H15Y14421   6.295   3.257   9.121 -0.4662 -0.3494  1.7007
  133SAPE  C31614422   6.311   3.153   8.937 -0.2973  0.0057 -0.7437
  133SAPE  H16X14423   6.346   3.058   8.892 -0.4586 -0.8846  0.9285
  133SAPE  H16Y14424   6.359   3.235   8.880 -0.2969  2.7207  2.9046
  133SAPE  C31714425   6.158   3.164   8.918 -0.0747  0.4485 -0.2057
  133SAPE  H17X14426   6.120   3.267   8.935 -2.0408 -0.3691  0.5303
  133SAPE  H17Y14427   6.109   3.098   8.994 -2.4279  0.0288 -2.0206
  133SAPE  C31814428   6.103   3.124   8.778  0.0123 -0.3533 -0.3944
  133SAPE  H18X14429   5.993   3.136   8.784  0.1406  1.3143 -1.2370
  133SAPE  H18Y14430   6.135   3.020   8.752 -2.2957 -1.6664  1.7926
  133SAPE  H18Z14431   6.144   3.192   8.700 -1.0879 -0.7066 -1.2996
  134SAPE     N14432   2.753   3.814  10.865  0.2336 -0.0303  0.1176
  134SAPE   HN114433   2.822   3.868  10.809  0.6413  0.0270  0.6676
  134SAPE   HN214434   2.802   3.794  10.954 -0.2315  2.1193  0.8828
  134SAPE   HN314435   2.752   3.717  10.827  0.5531 -0.1426  0.3961
  134SAPE   C1214436   2.614   3.874  10.856 -0.5821  0.6631  0.3599
  134SAPE  H12A14437   2.611   3.981  10.827  0.0347  0.9869  1.4360
  134SAPE  H12B14438   2.570   3.872  10.959 -1.5317 -2.0902 -0.0600
  134SAPE   C1114439   2.533   3.793  10.757  0.2409 -0.3161  0.6397
  134SAPE  H11A14440   2.569   3.834  10.660 -1.6562  0.9074  0.4281
  134SAPE  H11B14441   2.426   3.818  10.769  0.0547  0.1630 -1.8143
  134SAPE     P14442   2.431   3.559  10.721 -0.0840  0.1721 -0.3270
  134SAPE   O1314443   2.473   3.415  10.719  0.4068 -0.1493  0.1735
  134SAPE   O1414444   2.303   3.594  10.796 -0.0477 -0.2141  0.6143
  134SAPE   O1214445   2.552   3.649  10.773  0.2484  0.0242 -0.6338
  134SAPE   O1114446   2.414   3.611  10.569  0.3677  0.4193  0.0418
  134SAPE    C114447   2.524   3.612  10.482 -0.1213 -0.0068  0.1114
  134SAPE    HA14448   2.554   3.719  10.478 -1.1612  0.4407  3.4273
  134SAPE    HB14449   2.612   3.551  10.512  2.1716  1.7140 -2.7939
  134SAPE    C214450   2.488   3.572  10.335 -0.9102 -0.5075 -0.0846
  134SAPE    HS14451   2.572   3.568  10.263 -0.9455 -2.0965 -0.0492
  134SAPE   O2114452   2.382   3.660  10.293 -0.0574  0.3204  0.4992
  134SAPE   C2114453   2.426   3.741  10.201  0.3447 -0.3472 -0.0596
  134SAPE   O2214454   2.548   3.757  10.176  0.2723  0.0249  0.1577
  134SAPE   C2214455   2.308   3.807  10.129  0.0523  0.2402 -0.0081
  134SAPE   H2R14456   2.212   3.780  10.179 -0.5216 -0.3620 -1.3981
  134SAPE   H2S14457   2.333   3.914  10.142 -0.8986  0.5176 -0.4349
  134SAPE    C314458   2.438   3.430  10.323 -0.3135 -0.2386 -0.1446
  134SAPE    HX14459   2.353   3.409  10.391  0.5515 -1.4836  0.5897
  134SAPE    HY14460   2.521   3.370  10.366 -2.8822 -1.6166  3.1379
  134SAPE   O3114461   2.401   3.394  10.188  0.5470 -0.3201 -0.6540
  134SAPE   C3114462   2.385   3.263  10.172 -0.5685  0.2396 -0.0193
  134SAPE   O3214463   2.409   3.185  10.266 -0.2278 -0.6833  0.0989
  134SAPE   C3214464   2.360   3.214  10.034 -0.2972  0.4979 -0.4286
  134SAPE   H2X14465   2.260   3.235   9.991  0.1953  0.6642 -1.4880
  134SAPE   H2Y14466   2.375   3.104  10.038 -2.1936  0.0930 -3.3228
  134SAPE   C2314467   2.314   3.767   9.985  0.5674  0.2249  0.4445
  134SAPE   H3R14468   2.407   3.811   9.944  0.0011 -0.4848 -1.6497
  134SAPE   H3S14469   2.218   3.809   9.947  0.3782 -0.2665  0.3861
  134SAPE   C2414470   2.320   3.617   9.959 -0.6072 -0.2627 -0.0095
  134SAPE   H4R14471   2.416   3.573   9.994 -0.8143  0.6896  1.8041
  134SAPE   H4S14472   2.322   3.613   9.848 -1.4429  0.4266 -0.0542
  134SAPE   C2514473   2.192   3.544   9.992  0.3266 -0.0295  0.0302
  134SAPE   H5R14474   2.181   3.490  10.087 -1.4075  0.1099 -0.0704
  134SAPE   C2614475   2.079   3.531   9.916  0.1544 -0.4944 -1.2803
  134SAPE   H6R14476   1.988   3.479   9.950  1.1444 -0.4201  1.5923
  134SAPE   C2714477   2.055   3.590   9.779  0.0645  0.9035 -0.7543
  134SAPE   H7R14478   2.140   3.657   9.755  2.2891 -1.4640  0.2897
  134SAPE   H7S14479   1.974   3.666   9.783  0.0139  0.8394 -0.5596
  134SAPE   C2814480   2.018   3.490   9.668 -0.0985 -0.1297  0.4639
  134SAPE   H8R14481   1.944   3.418   9.703 -1.0775  0.4127 -0.4463
  134SAPE   C2914482   2.091   3.479   9.557  0.2526  0.2676  0.5086
  134SAPE   H9R14483   2.050   3.413   9.480 -2.0540  1.6532  0.4905
  134SAPE  C21014484   2.216   3.562   9.522  0.1210  0.4297 -0.6747
  134SAPE  H10R14485   2.280   3.498   9.458 -0.3408  2.0405 -2.7903
  134SAPE  H10S14486   2.278   3.580   9.613 -1.0464  1.8359 -0.1337
  134SAPE  C21114487   2.180   3.695   9.460 -0.0776 -0.4662 -0.9348
  134SAPE  H11R14488   2.110   3.753   9.522  1.8698 -0.1121  1.0277
  134SAPE  C21214489   2.220   3.743   9.342  0.0513 -0.2732 -0.9692
  134SAPE  H12R14490   2.183   3.840   9.306  2.8514  1.0289 -0.4924
  134SAPE  C21314491   2.304   3.669   9.243  0.0073  0.9873 -0.5022
  134SAPE  H13R14492   2.385   3.621   9.302 -0.7561 -0.7087 -0.8116
  134SAPE  H13S14493   2.355   3.747   9.183  0.5321  1.3150  0.3605
  134SAPE  C21414494   2.251   3.562   9.153  0.9613 -0.0504  0.2921
  134SAPE  H14R14495   2.330   3.484   9.146 -1.3520 -2.2798 -1.9199
  134SAPE  C21514496   2.129   3.552   9.094  0.5445  0.7244  0.1221
  134SAPE  H15R14497   2.112   3.460   9.037 -0.9049  0.9121  0.2534
  134SAPE  C21614498   2.012   3.643   9.106  0.4350  0.2383 -0.0437
  134SAPE  H16R14499   2.036   3.737   9.159  0.6885 -0.5506  1.2432
  134SAPE  H16S14500   1.931   3.586   9.157 -0.7236  0.9086 -1.1028
  134SAPE  C21714501   1.963   3.686   8.964 -0.2091  0.1781 -0.1936
  134SAPE  H17R14502   1.859   3.726   8.965 -0.2804  0.0680 -1.6898
  134SAPE  H17S14503   1.962   3.596   8.898  1.2049  2.0726 -2.9014
  134SAPE  C21814504   2.056   3.792   8.893 -0.2350 -0.0369  0.9171
  134SAPE  H18R14505   2.160   3.753   8.890 -0.1925  0.1653 -0.5988
  134SAPE  H18S14506   2.069   3.885   8.952 -0.7831  1.4848 -1.3294
  134SAPE  C21914507   2.013   3.830   8.749 -0.8205 -0.3585  0.1677
  134SAPE  H19R14508   1.913   3.879   8.750  0.0065  1.3361  1.4132
  134SAPE  H19S14509   2.015   3.736   8.691  0.0554 -0.1906 -0.0737
  134SAPE  C22014510   2.117   3.928   8.690 -0.3816  0.0153  0.2734
  134SAPE  H20R14511   2.208   3.869   8.671  0.6833  0.9156  2.4176
  134SAPE  H20S14512   2.153   4.005   8.762 -0.0599  1.4850 -1.4302
  134SAPE  H20T14513   2.076   3.972   8.596 -0.5753  1.1688  0.8812
  134SAPE   C3314514   2.472   3.283   9.934  0.1934  0.0112 -0.0292
  134SAPE   H3X14515   2.571   3.280   9.984 -0.2551 -0.7573  0.8414
  134SAPE   H3Y14516   2.444   3.389   9.920  0.9920  0.3547  0.9447
  134SAPE   C3414517   2.482   3.206   9.798 -0.8379  0.2539 -1.1987
  134SAPE   H4X14518   2.498   3.097   9.814  0.0257  0.9244  3.0218
  134SAPE   H4Y14519   2.566   3.256   9.745 -1.5413 -0.3347 -2.9226
  134SAPE   C3514520   2.361   3.231   9.703 -0.1633 -0.0045 -0.0494
  134SAPE   H5X14521   2.369   3.336   9.669  2.9987  0.9808  3.3864
  134SAPE   H5Y14522   2.274   3.218   9.770  0.9352 -1.2843  1.1768
  134SAPE   C3614523   2.346   3.132   9.589  0.2857  0.1138 -0.0649
  134SAPE   H6X14524   2.261   3.144   9.519 -1.1339  1.6783  1.9008
  134SAPE   H6Y14525   2.329   3.036   9.642 -2.1816  2.1522  2.9763
  134SAPE   C3714526   2.463   3.125   9.481 -0.5281  0.7621  0.2721
  134SAPE   H7X14527   2.564   3.109   9.524  0.8474 -0.2286 -3.2005
  134SAPE   H7Y14528   2.459   3.228   9.439 -3.3057  0.6605  0.1679
  134SAPE   C3814529   2.442   3.028   9.365  0.1154 -0.2556  0.0224
  134SAPE   H8X14530   2.334   3.031   9.339 -0.9116 -0.0087  4.0165
  134SAPE   H8Y14531   2.465   2.929   9.410 -0.1307 -0.0098  0.6836
  134SAPE   C3914532   2.540   3.056   9.246  0.0973 -0.0076 -0.1607
  134SAPE   H9X14533   2.641   3.032   9.286  0.2417  1.4895  0.4211
  134SAPE   H9Y14534   2.536   3.165   9.225  2.0861 -0.2630 -2.0530
  134SAPE  C31014535   2.499   2.977   9.117  0.7230  0.3382 -0.1088
  134SAPE  H10X14536   2.392   2.984   9.087  1.5620  0.6487 -3.1186
  134SAPE  H10Y14537   2.512   2.873   9.154  1.4373  0.4415 -0.0717
  134SAPE  C31114538   2.593   3.012   8.996 -0.2864 -0.2493  0.1688
  134SAPE  H11X14539   2.695   3.038   9.032  0.0805 -0.6968 -0.5383
  134SAPE  H11Y14540   2.555   3.106   8.950  1.8454  0.5800  0.0440
  134SAPE  C31214541   2.598   2.897   8.899 -0.1327  0.5093  0.1519
  134SAPE  H12X14542   2.495   2.872   8.866  0.1061  1.0453 -1.0508
  134SAPE  H12Y14543   2.653   2.811   8.942  2.3182  2.4728  1.0925
  134SAPE  C31314544   2.674   2.941   8.777  0.0030 -0.0122 -0.1982
  134SAPE  H13X14545   2.780   2.966   8.800 -1.1237  1.4262  3.8012
  134SAPE  H13Y14546   2.637   3.029   8.720 -1.2655 -0.3958  0.0175
  134SAPE  C31414547   2.695   2.820   8.674 -0.4303  0.4993 -0.0948
  134SAPE  H14X14548   2.711   2.732   8.740  0.7476  0.7553 -0.0161
  134SAPE  H14Y14549   2.792   2.832   8.621  0.7687  0.3637  2.0302
  134SAPE  C31514550   2.568   2.798   8.588  0.4995 -0.1053 -0.0292
  134SAPE  H15X14551   2.536   2.892   8.540  0.3299  0.3892  1.0502
  134SAPE  H15Y14552   2.483   2.768   8.653 -0.4821  2.3243 -0.1749
  134SAPE  C31614553   2.582   2.695   8.478 -0.5084  0.0301  0.5015
  134SAPE  H16X14554   2.653   2.739   8.404 -0.3951  1.2147  1.2894
  134SAPE  H16Y14555   2.488   2.690   8.419 -1.9811 -0.2120  2.8037
  134SAPE  C31714556   2.625   2.561   8.526  0.4602  0.4207  0.7252
  134SAPE  H17X14557   2.552   2.539   8.607  0.4501  3.4288  1.6048
  134SAPE  H17Y14558   2.727   2.564   8.570  0.8627  0.4465 -0.2006
  134SAPE  C31814559   2.614   2.448   8.420 -0.1345 -0.7254  0.0394
  134SAPE  H18X14560   2.665   2.477   8.325  0.4190  0.3313  0.6478
  134SAPE  H18Y14561   2.514   2.407   8.395 -1.3890  2.7814 -0.9931
  134SAPE  H18Z14562   2.679   2.369   8.463  1.1811 -0.2631 -1.0463
  135SAPE     N14563   1.694   2.611  10.531 -0.6304 -0.3381 -0.1504
  135SAPE   HN114564   1.614   2.654  10.480 -0.3973 -0.1522 -0.3605
  135SAPE   HN214565   1.744   2.681  10.590  1.2325 -1.8826  0.1611
  135SAPE   HN314566   1.762   2.597  10.453  2.4624 -0.0877  2.3822
  135SAPE   C1214567   1.675   2.483  10.602 -0.4885  0.2621 -0.2371
  135SAPE  H12A14568   1.613   2.506  10.692  2.9672  2.8489  1.6093
  135SAPE  H12B14569   1.777   2.446  10.625 -0.8287 -0.7248 -0.2913
  135SAPE   C1114570   1.604   2.377  10.520 -0.4292  0.5670  0.0961
  135SAPE  H11A14571   1.565   2.292  10.579  0.9138  1.8620  2.9215
  135SAPE  H11B14572   1.683   2.343  10.450 -0.0436  0.5406  0.5417
  135SAPE     P14573   1.341   2.409  10.465  0.3824  0.5085  0.1330
  135SAPE   O1314574   1.309   2.404  10.613  0.1175 -0.3977  0.1068
  135SAPE   O1414575   1.267   2.503  10.379 -0.1059  0.1672  0.0649
  135SAPE   O1214576   1.498   2.431  10.441 -0.4421 -0.3341 -0.1297
  135SAPE   O1114577   1.312   2.262  10.403  0.0285 -0.4481 -0.1241
  135SAPE    C114578   1.173   2.217  10.417  0.9248 -0.1866 -0.0534
  135SAPE    HA14579   1.172   2.117  10.465  0.6532 -0.4346 -0.5630
  135SAPE    HB14580   1.113   2.285  10.481 -1.1696 -1.2828 -0.7829
  135SAPE    C214581   1.097   2.204  10.278 -0.6602 -0.1936 -0.7121
  135SAPE    HS14582   0.991   2.180  10.301 -0.0694 -2.0698  0.1384
  135SAPE   O2114583   1.154   2.091  10.198 -0.0229  0.2534  0.2612
  135SAPE   C2114584   1.116   1.972  10.236 -0.4917  0.0454 -0.7726
  135SAPE   O2214585   1.038   1.952  10.330  0.3092  0.6009 -0.4631
  135SAPE   C2214586   1.181   1.867  10.152 -0.4043 -0.7779 -0.2493
  135SAPE   H2R14587   1.126   1.866  10.055 -1.2415  3.1870  0.0997
  135SAPE   H2S14588   1.288   1.896  10.140 -0.9501  1.1268 -0.7774
  135SAPE    C314589   1.087   2.341  10.200  0.1156  0.2199  1.1600
  135SAPE    HX14590   1.186   2.390  10.202  0.8432 -1.0888 -1.5148
  135SAPE    HY14591   1.004   2.392  10.255 -0.2433  0.6243  0.2439
  135SAPE   O3114592   1.037   2.336  10.063 -0.3427 -0.1230  0.6416
  135SAPE   C3114593   0.986   2.451  10.023  0.1407  0.3415  0.3879
  135SAPE   O3214594   0.968   2.544  10.093  0.2819 -0.5097 -0.1126
  135SAPE   C3214595   0.949   2.451   9.872 -0.0098  0.1749  0.0047
  135SAPE   H2X14596   1.033   2.426   9.804 -0.2805 -3.3135  0.8809
  135SAPE   H2Y14597   0.928   2.558   9.852  1.1540  0.6005  0.9744
  135SAPE   C2314598   1.180   1.725  10.214 -0.0396  0.0092 -0.0723
  135SAPE   H3R14599   1.082   1.695  10.256  0.5354 -2.0807 -0.1820
  135SAPE   H3S14600   1.254   1.718  10.297 -0.3944  0.9235  0.3281
  135SAPE   C2414601   1.218   1.618  10.109 -0.1554  0.1409 -0.1126
  135SAPE   H4R14602   1.235   1.528  10.170 -0.6454  0.7719  0.9702
  135SAPE   H4S14603   1.320   1.655  10.087  0.9895 -2.0075  1.5456
  135SAPE   C2514604   1.123   1.609   9.989 -0.6932  0.0849  0.8002
  135SAPE   H5R14605   1.023   1.578  10.022 -1.8131  1.4981 -1.2067
  135SAPE   C2614606   1.139   1.648   9.859 -0.2248  0.9960  0.5565
  135SAPE   H6R14607   1.054   1.628   9.791 -0.9960 -0.0503  1.8030
  135SAPE   C2714608   1.266   1.697   9.794  0.2642  0.1154  0.3603
  135SAPE   H7R14609   1.297   1.785   9.855 -0.6767 -1.1896  2.7933
  135SAPE   H7S14610   1.252   1.725   9.688  0.4027  0.7075  0.4964
  135SAPE   C2814611   1.389   1.608   9.797  0.1432  0.3434  0.0448
  135SAPE   H8R14612   1.400   1.546   9.887  1.3131  1.6790  0.8312
  135SAPE   C2914613   1.491   1.604   9.714  0.8656  0.3744  0.4274
  135SAPE   H9R14614   1.572   1.530   9.720  0.7008  0.1873  0.3604
  135SAPE  C21014615   1.517   1.695   9.593 -0.1200 -0.1205 -0.3711
  135SAPE  H10R14616   1.554   1.791   9.634  0.1509 -0.9910  1.5043
  135SAPE  H10S14617   1.415   1.718   9.554 -0.4215 -4.1181 -2.1858
  135SAPE  C21114618   1.606   1.624   9.495 -0.3577  0.2715  0.2765
  135SAPE  H11R14619   1.561   1.529   9.463  1.5282  0.0110 -1.7319
  135SAPE  C21214620   1.729   1.653   9.449  0.2775 -0.4974  0.2261
  135SAPE  H12R14621   1.773   1.589   9.371 -0.8557  0.0123 -0.8458
  135SAPE  C21314622   1.792   1.787   9.484 -0.1005  0.5469 -0.3988
  135SAPE  H13R14623   1.758   1.827   9.582 -0.3637  0.7273 -0.5638
  135SAPE  H13S14624   1.762   1.863   9.408  0.9051  0.9485 -0.4060
  135SAPE  C21414625   1.941   1.777   9.496  0.0694 -0.3226 -1.0531
  135SAPE  H14R14626   1.983   1.813   9.401  2.0954  1.8894  0.6351
  135SAPE  C21514627   2.013   1.739   9.601 -0.1805 -0.2231 -0.7889
  135SAPE  H15R14628   2.122   1.727   9.594 -0.0536 -0.9645  1.8401
  135SAPE  C21614629   1.959   1.698   9.740 -0.1912 -0.1458  0.4672
  135SAPE  H16R14630   1.849   1.708   9.731  0.0522  0.5342 -2.3860
  135SAPE  H16S14631   1.992   1.760   9.826  2.7660 -1.5498  0.4128
  135SAPE  C21714632   1.995   1.549   9.774  0.4701  0.5556  0.0381
  135SAPE  H17R14633   2.104   1.537   9.787  0.6232  1.2815 -0.5329
  135SAPE  H17S14634   1.975   1.493   9.680  1.5777  0.2243 -0.0081
  135SAPE  C21814635   1.926   1.494   9.899  0.1373  0.2324 -0.3060
  135SAPE  H18R14636   1.901   1.388   9.881  0.2719 -0.1218  1.4474
  135SAPE  H18S14637   1.833   1.552   9.915  1.4136  1.9280  1.3609
  135SAPE  C21914638   2.024   1.502  10.015  0.4573 -0.2470  0.6907
  135SAPE  H19R14639   2.038   1.610  10.041 -0.3434 -0.2273  1.0427
  135SAPE  H19S14640   2.126   1.469   9.985 -0.5603 -1.3009 -1.6563
  135SAPE  C22014641   1.977   1.410  10.130  0.3490  0.4181  0.5808
  135SAPE  H20R14642   1.879   1.448  10.165  0.1439  1.4808 -1.0786
  135SAPE  H20S14643   2.053   1.420  10.210  0.0596  0.2503  0.8776
  135SAPE  H20T14644   1.964   1.301  10.110  3.2793 -0.2154  1.8050
  135SAPE   C3314645   0.828   2.361   9.838  0.3532  0.3737  0.1560
  135SAPE   H3X14646   0.739   2.390   9.897  1.5499  0.4564  1.9556
  135SAPE   H3Y14647   0.851   2.253   9.851 -0.4346  0.3871  1.7065
  135SAPE   C3414648   0.790   2.384   9.686  0.2010  0.3343 -0.0715
  135SAPE   H4X14649   0.785   2.490   9.654 -3.9872 -0.2269 -1.6171
  135SAPE   H4Y14650   0.688   2.344   9.670  0.2519  0.6277 -1.2067
  135SAPE   C3514651   0.884   2.319   9.588  0.9174 -0.1980 -0.5496
  135SAPE   H5X14652   0.884   2.211   9.613  0.8076 -0.3091 -1.0244
  135SAPE   H5Y14653   0.987   2.356   9.610 -0.1838  0.4742  4.0359
  135SAPE   C3614654   0.840   2.345   9.440 -0.9525  0.4265 -0.2856
  135SAPE   H6X14655   0.857   2.449   9.405 -0.1485  0.2939 -0.2893
  135SAPE   H6Y14656   0.729   2.335   9.433 -0.7625 -0.0006 -3.3133
  135SAPE   C3714657   0.900   2.250   9.346 -0.5072  0.2364 -0.5384
  135SAPE   H7X14658   0.906   2.150   9.393  1.0478 -0.0431 -1.2846
  135SAPE   H7Y14659   1.001   2.296   9.336 -1.5762  2.3485 -2.0303
  135SAPE   C3814660   0.827   2.223   9.205 -0.2150 -0.3016 -0.0012
  135SAPE   H8X14661   0.894   2.157   9.146 -0.0434 -1.1648  1.1602
  135SAPE   H8Y14662   0.817   2.325   9.161  0.6603 -0.5121 -0.7167
  135SAPE   C3914663   0.687   2.151   9.214  0.4528 -0.3851  0.3842
  135SAPE   H9X14664   0.636   2.220   9.285 -0.8793  1.1150 -1.9397
  135SAPE   H9Y14665   0.686   2.048   9.255 -0.0663 -0.8351 -0.7270
  135SAPE  C31014666   0.604   2.156   9.091 -0.4553  0.0677 -0.6248
  135SAPE  H10X14667   0.501   2.120   9.115 -0.2055  0.2735  0.7917
  135SAPE  H10Y14668   0.644   2.096   9.006 -1.0304  2.3281 -2.5369
  135SAPE  C31114669   0.584   2.302   9.039  0.3361  0.2875  0.0696
  135SAPE  H11X14670   0.678   2.354   9.009 -1.0584  1.0113 -3.2620
  135SAPE  H11Y14671   0.551   2.351   9.133  1.4264 -0.8548  1.0516
  135SAPE  C31214672   0.471   2.324   8.939  0.3201  0.0008  1.7124
  135SAPE  H12X14673   0.436   2.429   8.950  0.1256  0.1828 -0.4650
  135SAPE  H12Y14674   0.394   2.246   8.956 -1.0697  0.7932 -0.6839
  135SAPE  C31314675   0.497   2.312   8.788  0.6113 -0.1431 -0.0293
  135SAPE  H13X14676   0.519   2.209   8.755  0.3510  0.2597 -1.4801
  135SAPE  H13Y14677   0.599   2.352   8.767  0.5855  1.2870  2.3157
  135SAPE  C31414678   0.394   2.395   8.705 -0.1224  0.5587 -0.2811
  135SAPE  H14X14679   0.411   2.504   8.720 -1.9982  0.7449  0.6145
  135SAPE  H14Y14680   0.290   2.381   8.741  0.5830 -1.1567  1.1430
  135SAPE  C31514681   0.417   2.377   8.555  0.2261  0.1804  0.6319
  135SAPE  H15X14682   0.369   2.283   8.522  1.0726  0.7109 -2.2580
  135SAPE  H15Y14683   0.524   2.380   8.526 -0.1197 -2.0992 -0.9519
  135SAPE  C31614684   0.353   2.480   8.464  0.5425 -0.7659  0.4745
  135SAPE  H16X14685   0.418   2.502   8.377  2.0188 -0.9952  1.4982
  135SAPE  H16Y14686   0.346   2.579   8.514  1.1439  0.0159 -0.9668
  135SAPE  C31714687   0.223   2.433   8.408  0.3881  0.4615 -0.1597
  135SAPE  H17X14688   0.164   2.374   8.482  1.2100  1.6788  1.4984
  135SAPE  H17Y14689   0.236   2.362   8.323  0.9238  0.1559  0.1740
  135SAPE  C31814690   0.131   2.547   8.362  0.7283  0.5911  0.6594
  135SAPE  H18X14691   0.028   2.515   8.336  0.0816  3.7348 -0.9426
  135SAPE  H18Y14692   0.182   2.578   8.268  1.3796  0.6829  1.0396
  135SAPE  H18Z14693   0.136   2.629   8.436 -0.5453  2.5320 -1.3297
  136SAPE     N14694   4.643   2.010  10.977 -0.5951  0.1189  0.0486
  136SAPE   HN114695   4.636   1.912  10.942  0.0048 -0.1562  0.6834
  136SAPE   HN214696   4.678   2.072  10.901 -1.3100 -1.1284 -1.3218
  136SAPE   HN314697   4.717   2.008  11.051  0.3006  2.9328 -0.7010
  136SAPE   C1214698   4.514   2.056  11.026  0.3794 -0.2489 -0.6369
  136SAPE  H12A14699   4.529   2.149  11.086 -0.7259  1.0388 -2.3171
  136SAPE  H12B14700   4.474   1.983  11.100 -1.1347  1.6233  0.4695
  136SAPE   C1114701   4.412   2.057  10.909 -0.6206  0.3029 -0.7352
  136SAPE  H11A14702   4.469   2.108  10.828 -0.3713  0.1797 -0.6387
  136SAPE  H11B14703   4.321   2.112  10.941 -1.3084 -1.7117  0.9341
  136SAPE     P14704   4.268   1.906  10.754 -0.2136  0.0371 -0.0377
  136SAPE   O1314705   4.220   1.770  10.758  0.4082  0.3588  0.1487
  136SAPE   O1414706   4.171   2.016  10.760  0.7189  0.1418  0.3124
  136SAPE   O1214707   4.382   1.932  10.863 -0.2179  0.9831 -0.0079
  136SAPE   O1114708   4.340   1.927  10.617  0.3529  0.0678 -0.1623
  136SAPE    C114709   4.453   1.845  10.586  0.2094 -0.4673 -0.4033
  136SAPE    HA14710   4.540   1.891  10.638  0.8552 -1.2055 -0.8241
  136SAPE    HB14711   4.434   1.744  10.627 -0.4121 -0.3215 -0.3299
  136SAPE    C214712   4.472   1.831  10.434 -0.0188 -0.5954  0.2888
  136SAPE    HS14713   4.554   1.759  10.414 -0.4037 -0.7506 -0.7725
  136SAPE   O2114714   4.506   1.958  10.367  0.1990 -0.2132  0.0641
  136SAPE   C2114715   4.619   2.008  10.401 -0.0194 -0.0456  0.0866
  136SAPE   O2214716   4.714   1.946  10.444  0.4050 -0.2581  0.8460
  136SAPE   C2214717   4.620   2.160  10.374  0.5663 -0.1145  0.1153
  136SAPE   H2R14718   4.520   2.204  10.353 -0.9890 -1.4911  4.0586
  136SAPE   H2S14719   4.646   2.206  10.472 -1.3982  0.2327  0.4930
  136SAPE    C314720   4.351   1.758  10.367 -0.4840 -0.5955 -0.5374
  136SAPE    HX14721   4.269   1.833  10.367  0.0389  0.0050  1.5113
  136SAPE    HY14722   4.316   1.671  10.427  2.2561 -1.9077 -0.7979
  136SAPE   O3114723   4.358   1.722  10.227  0.0682 -0.8715  0.3867
  136SAPE   C3114724   4.452   1.634  10.188 -0.1032  0.2360  0.6275
  136SAPE   O3214725   4.519   1.562  10.263 -0.1406  0.4938  0.2469
  136SAPE   C3214726   4.480   1.641  10.039 -0.7819 -0.1247 -0.1814
  136SAPE   H2X14727   4.510   1.746  10.022  1.6423 -0.7961 -0.2747
  136SAPE   H2Y14728   4.390   1.621   9.977 -0.1451  0.0311 -1.1558
  136SAPE   C2314729   4.738   2.198  10.280 -0.0487  0.8181  0.5406
  136SAPE   H3R14730   4.718   2.143  10.185 -0.4335  0.7379  0.6675
  136SAPE   H3S14731   4.838   2.160  10.310  0.9234  1.0608 -2.2159
  136SAPE   C2414732   4.739   2.352  10.253  0.5031  0.3523  0.0191
  136SAPE   H4R14733   4.733   2.403  10.351 -0.9363 -0.4495  0.3706
  136SAPE   H4S14734   4.643   2.378  10.202  0.5104  1.0896  0.3718
  136SAPE   C2514735   4.860   2.400  10.183 -0.1497 -0.6702 -0.5500
  136SAPE   H5R14736   4.893   2.349  10.091 -1.2008 -0.1039 -1.2516
  136SAPE   C2614737   4.933   2.508  10.230 -0.1665  0.5951 -0.0368
  136SAPE   H6R14738   5.011   2.545  10.163  0.6486 -0.3993  0.3583
  136SAPE   C2714739   4.907   2.586  10.361  0.6198 -0.8791 -0.1974
  136SAPE   H7R14740   4.947   2.527  10.446 -1.2855 -0.7110  0.8410
  136SAPE   H7S14741   4.798   2.594  10.379  0.3950 -1.2783 -1.3522
  136SAPE   C2814742   4.968   2.725  10.372  0.2120  0.6340 -0.4464
  136SAPE   H8R14743   5.035   2.739  10.458 -1.7650  1.6542  0.9799
  136SAPE   C2914744   4.961   2.825  10.283  0.2516  0.1147 -0.0875
  136SAPE   H9R14745   4.986   2.929  10.309 -0.4381  0.3281 -0.2861
  136SAPE  C21014746   4.901   2.825  10.151  0.7384 -0.3786 -0.0616
  136SAPE  H10R14747   4.941   2.736  10.099  0.6303 -0.5383  0.1271
  136SAPE  H10S14748   4.951   2.902  10.090  0.9516  1.0078  1.8104
  136SAPE  C21114749   4.754   2.862  10.133 -0.6476  0.2294  0.0570
  136SAPE  H11R14750   4.703   2.906  10.220 -2.3406  0.5093 -1.0486
  136SAPE  C21214751   4.690   2.851  10.018  0.6610  0.4677  0.5965
  136SAPE  H12R14752   4.580   2.859  10.014  0.6492  0.2958  0.5725
  136SAPE  C21314753   4.746   2.807   9.881  0.2866 -0.3699  0.4727
  136SAPE  H13R14754   4.839   2.867   9.866  0.8995 -1.0011  1.6764
  136SAPE  H13S14755   4.693   2.850   9.793 -0.6039 -0.3303  1.0315
  136SAPE  C21414756   4.767   2.663   9.857 -0.2522  0.3921  0.6376
  136SAPE  H14R14757   4.727   2.598   9.936 -1.3254  0.9231  0.5390
  136SAPE  C21514758   4.835   2.625   9.746  0.3862  0.4849  0.0997
  136SAPE  H15R14759   4.850   2.521   9.715  0.4529 -0.2736  2.5435
  136SAPE  C21614760   4.894   2.712   9.635 -0.7259 -0.8377 -0.3969
  136SAPE  H16R14761   4.990   2.672   9.596 -0.5837 -0.4135 -0.4838
  136SAPE  H16S14762   4.902   2.818   9.668  0.2395 -1.4457  1.4368
  136SAPE  C21714763   4.805   2.714   9.502 -0.6790 -0.4407 -0.3061
  136SAPE  H17R14764   4.840   2.798   9.439  3.6854 -1.8751  0.0150
  136SAPE  H17S14765   4.701   2.735   9.536  0.4933  0.1383  3.1585
  136SAPE  C21814766   4.794   2.583   9.421 -0.4796 -0.0751  0.1503
  136SAPE  H18R14767   4.706   2.592   9.354  0.4492 -0.2805 -1.1102
  136SAPE  H18S14768   4.778   2.502   9.495 -0.7730 -1.6293 -1.5907
  136SAPE  C21914769   4.914   2.540   9.335  0.5652 -0.1159  0.0559
  136SAPE  H19R14770   4.869   2.460   9.271 -2.1860  1.4788 -0.0952
  136SAPE  H19S14771   4.987   2.491   9.403 -0.3296  0.4593  1.4528
  136SAPE  C22014772   4.984   2.650   9.260 -0.3573 -0.2863 -0.1787
  136SAPE  H20R14773   5.075   2.616   9.206 -1.7099 -0.3359 -2.5066
  136SAPE  H20S14774   5.037   2.715   9.333  0.1290 -0.5565 -0.2943
  136SAPE  H20T14775   4.912   2.708   9.197  0.7551 -0.4597 -1.6374
  136SAPE   C3314776   4.587   1.536  10.002 -0.0642  0.3640  0.5421
  136SAPE   H3X14777   4.547   1.433  10.010  0.0950  0.2874  0.3339
  136SAPE   H3Y14778   4.676   1.548  10.068  1.4207  2.8691 -1.8149
  136SAPE   C3414779   4.631   1.565   9.856  0.0618  0.0555  0.1472
  136SAPE   H4X14780   4.675   1.666   9.852 -0.8511  0.4551  0.1163
  136SAPE   H4Y14781   4.547   1.562   9.784  0.2221 -2.1845  0.0148
  136SAPE   C3514782   4.738   1.463   9.803 -0.2132  0.5303  0.0084
  136SAPE   H5X14783   4.675   1.376   9.773  0.4365  0.7605 -2.0788
  136SAPE   H5Y14784   4.796   1.428   9.891 -0.0128 -1.0847 -0.7484
  136SAPE   C3614785   4.806   1.517   9.682  0.2955  0.7688  0.1295
  136SAPE   H6X14786   4.885   1.445   9.654  0.2084 -0.5679  3.2318
  136SAPE   H6Y14787   4.863   1.609   9.707 -0.6122  0.8424  1.9793
  136SAPE   C3714788   4.730   1.564   9.560 -0.5359  0.5880  0.0315
  136SAPE   H7X14789   4.635   1.616   9.584 -1.9647 -1.6985 -0.5671
  136SAPE   H7Y14790   4.713   1.473   9.499  1.5900  0.0872  0.1296
  136SAPE   C3814791   4.805   1.641   9.454  0.0307 -1.0305  0.0810
  136SAPE   H8X14792   4.843   1.733   9.503 -1.3635  1.0779 -2.6435
  136SAPE   H8Y14793   4.738   1.670   9.369 -0.6725 -1.4326  0.4922
  136SAPE   C3914794   4.941   1.597   9.402  0.5815  0.7997  0.3421
  136SAPE   H9X14795   5.016   1.560   9.475  0.6824 -0.3947 -0.3565
  136SAPE   H9Y14796   4.982   1.683   9.344 -0.9303  0.4965 -1.2098
  136SAPE  C31014797   4.930   1.472   9.312  0.3169  0.2700  0.4293
  136SAPE  H10X14798   4.897   1.378   9.360 -1.2150  0.7046  0.2353
  136SAPE  H10Y14799   5.032   1.457   9.269  1.0555  2.5856  1.2919
  136SAPE  C31114800   4.837   1.486   9.187  0.2942 -0.5838 -0.1723
  136SAPE  H11X14801   4.813   1.593   9.165  0.0685 -0.3750  1.0801
  136SAPE  H11Y14802   4.741   1.433   9.203 -1.6794  2.3181 -1.8089
  136SAPE  C31214803   4.894   1.442   9.057  0.2349  0.0219  0.6357
  136SAPE  H12X14804   4.921   1.334   9.067  0.8608  0.0943 -0.2976
  136SAPE  H12Y14805   4.986   1.497   9.032 -0.6846  1.7328  0.9596
  136SAPE  C31314806   4.788   1.452   8.949  0.1136 -0.5359  0.1716
  136SAPE  H13X14807   4.851   1.451   8.857  2.5508 -2.2947  1.7853
  136SAPE  H13Y14808   4.724   1.543   8.957 -0.2983 -0.7755 -0.4184
  136SAPE  C31414809   4.705   1.326   8.941  0.7066  0.4013  0.0546
  136SAPE  H14X14810   4.628   1.340   9.020 -0.1820 -0.6301 -0.6153
  136SAPE  H14Y14811   4.758   1.232   8.971 -1.1521 -0.8854 -0.6328
  136SAPE  C31514812   4.634   1.301   8.807  0.3905  0.4248  0.6141
  136SAPE  H15X14813   4.708   1.295   8.724  1.6228 -2.6611  1.8498
  136SAPE  H15Y14814   4.565   1.387   8.799  0.7583  0.6970  0.3260
  136SAPE  C31614815   4.552   1.177   8.803  0.2548 -0.2423  0.2923
  136SAPE  H16X14816   4.488   1.161   8.893 -2.6010 -0.8275 -1.7611
  136SAPE  H16Y14817   4.614   1.087   8.825 -0.0115  0.1920  3.0259
  136SAPE  C31714818   4.477   1.146   8.664  0.6941  0.3323  0.5157
  136SAPE  H17X14819   4.552   1.100   8.596  1.6861 -0.6321  2.2384
  136SAPE  H17Y14820   4.452   1.246   8.621  0.7607 -0.2050 -0.7952
  136SAPE  C31814821   4.355   1.063   8.693 -0.1827  0.2442 -0.9681
  136SAPE  H18X14822   4.280   1.079   8.612 -0.6156  0.8678 -0.4454
  136SAPE  H18Y14823   4.308   1.104   8.784 -1.1947 -0.5322 -1.1289
  136SAPE  H18Z14824   4.374   0.953   8.699 -0.9538  0.0487 -1.9167
  137SAPE     N14825   2.939   4.525  11.091 -0.2409  0.4091 -0.6779
  137SAPE   HN114826   3.029   4.577  11.093  0.9949 -1.6756  1.3749
  137SAPE   HN214827   2.934   4.454  11.167 -2.9198  0.5648 -0.6873
  137SAPE   HN314828   2.959   4.469  11.005  0.5443 -0.7192  0.2198
  137SAPE   C1214829   2.812   4.616  11.075 -0.3949 -0.3284 -0.1743
  137SAPE  H12A14830   2.790   4.652  11.178  0.9889  2.5954 -0.8429
  137SAPE  H12B14831   2.737   4.548  11.030 -1.2963  0.3982  0.2059
  137SAPE   C1114832   2.828   4.737  10.982 -0.0229 -0.0588  0.4564
  137SAPE  H11A14833   2.841   4.706  10.876 -3.7972  0.0059 -0.1031
  137SAPE  H11B14834   2.925   4.774  11.020 -0.5238 -0.7682  2.5092
  137SAPE     P14835   2.582   4.800  10.953 -0.2230 -0.5471  0.4080
  137SAPE   O1314836   2.536   4.681  11.035 -0.0284  0.7702  0.1223
  137SAPE   O1414837   2.499   4.924  10.963  0.0814  0.1053 -0.2827
  137SAPE   O1214838   2.728   4.842  10.992  0.7173 -0.2974  0.3135
  137SAPE   O1114839   2.587   4.761  10.805  0.2343  0.3008 -0.0618
  137SAPE    C114840   2.646   4.855  10.709  0.1019  0.2296  0.1944
  137SAPE    HA14841   2.711   4.928  10.762  1.3031 -1.7133  1.4649
  137SAPE    HB14842   2.713   4.805  10.637 -0.7204 -0.1020 -0.3505
  137SAPE    C214843   2.536   4.927  10.632  0.2204 -0.1562 -0.1140
  137SAPE    HS14844   2.473   4.975  10.709 -0.7990 -0.4404 -0.7566
  137SAPE   O2114845   2.459   4.823  10.565  0.3254 -0.6082 -0.4313
  137SAPE   C2114846   2.339   4.849  10.530 -0.1372  0.4448  0.0818
  137SAPE   O2214847   2.267   4.944  10.560  0.2837 -0.3025 -0.2932
  137SAPE   C2214848   2.282   4.726  10.450 -0.1353  0.4311  0.2973
  137SAPE   H2R14849   2.251   4.651  10.525  0.1619  1.9980  2.0178
  137SAPE   H2S14850   2.188   4.769  10.409  0.3682  0.5945 -0.7016
  137SAPE    C314851   2.577   5.047  10.541 -0.1611 -0.1653 -0.0017
  137SAPE    HX14852   2.645   5.107  10.606  0.3419 -0.1964 -0.4958
  137SAPE    HY14853   2.482   5.104  10.537 -0.5349 -0.9164 -2.6343
  137SAPE   O3114854   2.626   5.010  10.410 -0.3579 -0.0036 -0.9661
  137SAPE   C3114855   2.756   4.994  10.406  0.0148 -0.3226 -0.7061
  137SAPE   O3214856   2.832   4.990  10.500  0.0134  0.1447  0.1044
  137SAPE   C3214857   2.791   4.993  10.260 -0.0114 -0.3835  0.3145
  137SAPE   H2X14858   2.797   5.101  10.233  0.6420 -0.2364  1.0016
  137SAPE   H2Y14859   2.704   4.944  10.211 -0.0923  0.6689 -0.6220
  137SAPE   C2314860   2.375   4.666  10.343  0.4145  0.6763 -0.1254
  137SAPE   H3R14861   2.324   4.591  10.279  3.5697 -0.6741 -1.1489
  137SAPE   H3S14862   2.453   4.609  10.396  0.1122  0.8940  0.5553
  137SAPE   C2414863   2.432   4.771  10.248  0.6930  0.6321  0.2117
  137SAPE   H4R14864   2.500   4.844  10.298 -1.1432  2.7975 -0.3473
  137SAPE   H4S14865   2.345   4.829  10.209  0.8009  1.1165  0.6676
  137SAPE   C2514866   2.518   4.712  10.144 -0.2080  0.6254 -0.3722
  137SAPE   H5R14867   2.566   4.617  10.168  0.6772  0.9125 -1.0100
  137SAPE   C2614868   2.547   4.762  10.020 -0.2992 -0.1798  0.0991
  137SAPE   H6R14869   2.601   4.699   9.948 -1.4948  0.0987 -1.0613
  137SAPE   C2714870   2.500   4.892   9.964 -0.4810 -0.2824  0.4529
  137SAPE   H7R14871   2.581   4.937   9.903 -0.4150 -2.5405 -1.1806
  137SAPE   H7S14872   2.472   4.961  10.047 -0.6112  0.3957 -0.1459
  137SAPE   C2814873   2.372   4.882   9.880  0.0222 -0.0342 -0.9044
  137SAPE   H8R14874   2.284   4.835   9.927  0.4730 -1.2640 -1.2643
  137SAPE   C2914875   2.360   4.910   9.753  0.2193  0.5027 -0.2860
  137SAPE   H9R14876   2.257   4.906   9.715 -0.3112  1.6929  0.9946
  137SAPE  C21014877   2.454   4.965   9.650  0.4354 -0.6846 -0.3507
  137SAPE  H10R14878   2.542   5.017   9.695  0.2424  0.7099 -1.5606
  137SAPE  H10S14879   2.397   5.050   9.607  1.1743 -0.2594 -0.5161
  137SAPE  C21114880   2.514   4.867   9.549 -0.3086 -0.0721 -0.1695
  137SAPE  H11R14881   2.544   4.769   9.590 -0.1190 -0.4210 -1.1182
  137SAPE  C21214882   2.529   4.871   9.419 -0.7827  0.0977  0.1359
  137SAPE  H12R14883   2.591   4.800   9.363  0.2926  0.2345  1.1269
  137SAPE  C21314884   2.493   4.995   9.335  0.6456  0.2947  0.0243
  137SAPE  H13R14885   2.537   4.984   9.234  0.8406  0.6117  0.0707
  137SAPE  H13S14886   2.543   5.083   9.382  0.4345 -0.4324  1.6607
  137SAPE  C21414887   2.346   5.021   9.316  0.4013 -0.1659 -0.5527
  137SAPE  H14R14888   2.302   5.033   9.416  1.2059 -0.0154 -0.2084
  137SAPE  C21514889   2.265   4.999   9.207  0.1121  0.3937  0.0244
  137SAPE  H15R14890   2.160   5.033   9.205 -0.4699 -1.3649 -0.9957
  137SAPE  C21614891   2.313   4.945   9.075  0.3623  0.2261 -0.3059
  137SAPE  H16R14892   2.279   4.839   9.073  0.7991  0.0709  0.2261
  137SAPE  H16S14893   2.422   4.929   9.063  0.3439  0.3806 -0.6732
  137SAPE  C21714894   2.244   5.026   8.962  0.2868 -0.0337  0.0806
  137SAPE  H17R14895   2.301   5.017   8.867  0.7248 -0.5014  0.3839
  137SAPE  H17S14896   2.227   5.132   8.991  1.2221  0.1253  0.0790
  137SAPE  C21814897   2.096   4.972   8.937 -0.2385  0.2621 -0.1609
  137SAPE  H18R14898   2.038   4.941   9.027 -0.2648  1.6545  0.3055
  137SAPE  H18S14899   2.096   4.880   8.875  0.8322 -1.8807  2.8868
  137SAPE  C21914900   2.029   5.083   8.864 -0.0940 -0.4608 -0.1680
  137SAPE  H19R14901   2.086   5.110   8.772 -1.2372 -0.7778 -0.9865
  137SAPE  H19S14902   2.023   5.170   8.933  0.7704 -0.6089  0.0985
  137SAPE  C22014903   1.888   5.067   8.813 -0.3147 -0.1774 -0.8709
  137SAPE  H20R14904   1.862   5.152   8.745 -1.5944  1.7210  1.8742
  137SAPE  H20S14905   1.803   5.069   8.884 -0.3864 -2.4325 -0.8663
  137SAPE  H20T14906   1.877   4.973   8.755 -0.1582 -0.5105 -0.3644
  137SAPE   C3314907   2.926   4.925  10.224  0.1514 -0.1279 -0.3424
  137SAPE   H3X14908   2.904   4.817  10.231  2.8130 -0.6950 -0.1161
  137SAPE   H3Y14909   3.009   4.952  10.293 -0.0575 -1.6673  0.5162
  137SAPE   C3414910   2.967   4.966  10.083  0.4913  0.6905  0.1502
  137SAPE   H4X14911   3.052   4.905  10.044  1.5926  1.6261  1.0392
  137SAPE   H4Y14912   3.000   5.071  10.095 -2.0265  1.6868 -1.3047
  137SAPE   C3514913   2.865   4.959   9.971  0.3752 -0.3127 -0.2486
  137SAPE   H5X14914   2.774   5.014  10.005  1.3542  1.3357 -0.2315
  137SAPE   H5Y14915   2.841   4.852   9.953  1.4097 -0.5038 -0.5437
  137SAPE   C3614916   2.914   5.033   9.845 -0.9529 -0.0537 -0.7241
  137SAPE   H6X14917   3.012   4.986   9.819 -0.1583 -0.0249  1.9913
  137SAPE   H6Y14918   2.932   5.139   9.873  0.2978 -0.2645 -0.6860
  137SAPE   C3714919   2.802   5.017   9.736  0.0593  0.6987 -0.0245
  137SAPE   H7X14920   2.708   5.056   9.780 -0.6946 -1.0900  0.0047
  137SAPE   H7Y14921   2.790   4.911   9.704 -0.1050  0.5667  0.4778
  137SAPE   C3814922   2.849   5.099   9.615  0.3951 -0.1053 -0.0878
  137SAPE   H8X14923   2.877   5.202   9.645 -0.5903  0.3709 -0.7654
  137SAPE   H8Y14924   2.754   5.104   9.557 -0.6560 -0.5727  1.5429
  137SAPE   C3914925   2.964   5.036   9.539 -0.5676  0.0731  0.3732
  137SAPE   H9X14926   3.035   4.987   9.608 -1.4355 -0.5982  0.7933
  137SAPE   H9Y14927   3.034   5.114   9.501 -0.3829 -0.7869 -1.1014
  137SAPE  C31014928   2.903   4.949   9.428 -0.3841 -0.0835  0.1013
  137SAPE  H10X14929   2.819   4.891   9.471  1.2941 -1.4384  1.6639
  137SAPE  H10Y14930   2.974   4.876   9.383 -0.0246 -0.0816  0.6605
  137SAPE  C31114931   2.865   5.038   9.304 -0.2226 -0.6754  0.6439
  137SAPE  H11X14932   2.940   5.118   9.286  0.1980 -0.6390  2.4461
  137SAPE  H11Y14933   2.772   5.095   9.324  0.8519  1.6886 -0.9415
  137SAPE  C31214934   2.853   4.959   9.174 -0.4033 -0.0100  0.5722
  137SAPE  H12X14935   2.766   4.890   9.185  2.1425 -3.6240 -0.8481
  137SAPE  H12Y14936   2.936   4.885   9.177 -0.7003 -0.4411 -1.4198
  137SAPE  C31314937   2.844   5.041   9.045 -0.6583 -0.4650  0.2752
  137SAPE  H13X14938   2.948   5.076   9.034 -1.4504  1.1870 -2.1865
  137SAPE  H13Y14939   2.787   5.134   9.063  0.5678 -0.0478  2.1369
  137SAPE  C31414940   2.787   4.964   8.917  0.0104  0.4252 -0.7442
  137SAPE  H14X14941   2.809   5.020   8.823  0.5974 -0.7316 -1.3064
  137SAPE  H14Y14942   2.677   4.963   8.934  0.6633 -1.3669  4.0706
  137SAPE  C31514943   2.832   4.819   8.899  1.0921  0.0646 -0.0316
  137SAPE  H15X14944   2.763   4.756   8.958  1.6304 -0.2635  0.2514
  137SAPE  H15Y14945   2.934   4.799   8.939 -0.1009 -0.4587  2.8235
  137SAPE  C31614946   2.831   4.771   8.753  0.0490  0.1644 -0.1788
  137SAPE  H16X14947   2.741   4.811   8.702 -0.9520 -0.5810  0.9863
  137SAPE  H16Y14948   2.825   4.660   8.746  0.1642  0.1163  0.4673
  137SAPE  C31714949   2.948   4.827   8.671 -0.3745  0.4631 -0.3662
  137SAPE  H17X14950   3.013   4.897   8.728 -0.0253  0.3571 -0.6300
  137SAPE  H17Y14951   2.912   4.886   8.584 -0.2953  0.5357 -0.3502
  137SAPE  C31814952   3.047   4.720   8.616 -0.1801  0.6275  0.3210
  137SAPE  H18X14953   3.125   4.757   8.546  0.7422 -0.7686  0.5905
  137SAPE  H18Y14954   2.981   4.664   8.547  0.5858  0.1313 -0.0076
  137SAPE  H18Z14955   3.085   4.660   8.701 -1.6673 -0.0806  0.4984
  138SAPE     N14956   0.331   6.416  10.757  0.0680  0.2216  0.5076
  138SAPE   HN114957   0.272   6.501  10.771  0.4655  0.6882 -0.5798
  138SAPE   HN214958   0.316   6.352  10.838  0.4164 -0.2843  0.1705
  138SAPE   HN314959   0.432   6.438  10.760  0.0202  0.2291  2.5802
  138SAPE   C1214960   0.291   6.353  10.628 -0.0686 -0.0912  0.3800
  138SAPE  H12A14961   0.341   6.254  10.622 -1.9065 -0.9909 -0.7608
  138SAPE  H12B14962   0.332   6.421  10.550  0.7684 -0.0432  0.8616
  138SAPE   C1114963   0.143   6.332  10.602  0.2569  0.0637 -0.1688
  138SAPE  H11A14964   0.138   6.297  10.497  2.2109  1.5648 -0.7781
  138SAPE  H11B14965   0.092   6.431  10.609  0.9486  0.3852  0.3640
  138SAPE     P14966   0.008   6.257  10.805  0.1316  0.2549  0.1781
  138SAPE   O1314967   0.025   6.143  10.895 -0.8662 -0.0758 -0.4289
  138SAPE   O1414968   0.044   6.394  10.854 -0.4483 -0.3469  0.0459
  138SAPE   O1214969   0.097   6.227  10.687 -0.3277  0.3283 -0.1904
  138SAPE   O1114970  -0.143   6.268  10.754  0.5124  0.1102  0.2050
  138SAPE    C114971  -0.207   6.141  10.725  0.2085 -0.5477 -0.0432
  138SAPE    HA14972  -0.163   6.065  10.794  1.8701  1.7782  1.5518
  138SAPE    HB14973  -0.315   6.144  10.752 -0.1324 -0.5409 -1.3773
  138SAPE    C214974  -0.199   6.107  10.572 -0.1659 -0.2300  0.1453
  138SAPE    HS14975  -0.092   6.121  10.545  0.7290 -1.0318  3.0914
  138SAPE   O2114976  -0.288   6.199  10.509  0.7033 -0.2805  0.1407
  138SAPE   C2114977  -0.240   6.265  10.403 -0.4007 -0.7087 -0.0020
  138SAPE   O2214978  -0.122   6.288  10.371  0.1913  0.5158  0.1430
  138SAPE   C2214979  -0.357   6.309  10.317  0.2803 -0.6163 -0.5770
  138SAPE   H2R14980  -0.437   6.346  10.384  0.5373 -1.9422  0.4885
  138SAPE   H2S14981  -0.328   6.393  10.250 -1.8072  1.2618  0.7975
  138SAPE    C314982  -0.238   5.965  10.544  0.1574  0.1676 -0.1474
  138SAPE    HX14983  -0.340   5.950  10.584  0.2341 -0.2118 -0.0878
  138SAPE    HY14984  -0.182   5.887  10.600 -1.0435  0.3076  1.2826
  138SAPE   O3114985  -0.250   5.944  10.399 -0.1005  0.6649  0.2024
  138SAPE   C3114986  -0.133   5.901  10.340  0.4750 -0.3949  0.7657
  138SAPE   O3214987  -0.036   5.863  10.404  0.0253 -0.6058  0.5173
  138SAPE   C3214988  -0.138   5.917  10.187 -0.7823 -0.0462  0.2284
  138SAPE   H2X14989  -0.070   6.001  10.166  2.4027 -2.0427  2.1329
  138SAPE   H2Y14990  -0.242   5.944  10.158 -0.3098 -0.2406 -1.7509
  138SAPE   C2314991  -0.429   6.193  10.247 -0.1576  0.2629  0.0667
  138SAPE   H3R14992  -0.469   6.137  10.334  0.9350  0.8250  0.9359
  138SAPE   H3S14993  -0.357   6.135  10.186 -0.7228  0.2760 -0.6260
  138SAPE   C2414994  -0.543   6.228  10.142 -0.3806  0.1294 -0.3049
  138SAPE   H4R14995  -0.496   6.311  10.085 -0.6330 -1.8361 -3.5311
  138SAPE   H4S14996  -0.622   6.282  10.198 -2.7842 -3.1753 -0.3212
  138SAPE   C2514997  -0.599   6.110  10.066  0.7193  0.0462 -0.7009
  138SAPE   H5R14998  -0.688   6.061  10.106  0.6041  0.6902 -0.1426
  138SAPE   C2614999  -0.558   6.076   9.941 -0.9900  0.1652 -0.2607
  138SAPE   H6R15000  -0.589   5.979   9.900 -0.8257 -1.3853  3.1043
  138SAPE   C2715001  -0.439   6.134   9.869  0.0711 -0.3015  0.0107
  138SAPE   H7R15002  -0.404   6.233   9.904 -3.2939  1.3737 -1.1300
  138SAPE   H7S15003  -0.476   6.167   9.769 -4.0655  1.8824  2.1325
  138SAPE   C2815004  -0.321   6.043   9.860  0.0147  0.1887  0.3141
  138SAPE   H8R15005  -0.308   5.974   9.945 -0.4070  1.3921  1.3582
  138SAPE   C2915006  -0.241   6.026   9.755  0.0371  0.1825  0.3593
  138SAPE   H9R15007  -0.169   5.943   9.764 -0.9454 -0.7294 -0.0430
  138SAPE  C21015008  -0.246   6.106   9.618  0.0061 -0.0425 -0.4599
  138SAPE  H10R15009  -0.151   6.164   9.617  0.0798 -0.1720 -0.6827
  138SAPE  H10S15010  -0.319   6.189   9.629 -0.3351 -0.6761  2.7365
  138SAPE  C21115011  -0.257   6.030   9.492 -0.4091  0.4537 -0.2032
  138SAPE  H11R15012  -0.177   5.961   9.461  0.0582  1.2449 -0.7785
  138SAPE  C21215013  -0.367   6.024   9.412 -0.9182 -0.1824 -0.1862
  138SAPE  H12R15014  -0.354   5.947   9.334  1.8140  0.4733 -0.4229
  138SAPE  C21315015  -0.498   6.099   9.425 -0.0122  0.6714 -0.4023
  138SAPE  H13R15016  -0.524   6.118   9.319 -0.8937  0.1383 -0.2910
  138SAPE  H13S15017  -0.491   6.192   9.485  0.2519  1.6499 -1.9332
  138SAPE  C21415018  -0.603   6.005   9.485 -0.1807  0.2170 -0.4075
  138SAPE  H14R15019  -0.562   5.959   9.576 -1.8217 -0.6706 -0.1156
  138SAPE  C21515020  -0.728   5.973   9.452 -0.3398  0.2221  0.1710
  138SAPE  H15R15021  -0.791   5.906   9.511 -2.1005 -0.7941 -2.7552
  138SAPE  C21615022  -0.804   6.030   9.330  0.5884 -0.1110  0.1835
  138SAPE  H16R15023  -0.776   6.137   9.319 -2.3033  0.5270 -1.6703
  138SAPE  H16S15024  -0.908   6.024   9.368  0.4998 -0.5696 -0.1266
  138SAPE  C21715025  -0.789   5.959   9.185 -0.1443 -0.0748 -0.2610
  138SAPE  H17R15026  -0.850   5.867   9.179  1.8941 -1.5607  1.3421
  138SAPE  H17S15027  -0.685   5.921   9.173 -1.3474 -3.1096 -1.4881
  138SAPE  C21815028  -0.832   6.050   9.068  0.1315  0.0623 -0.1957
  138SAPE  H18R15029  -0.784   6.150   9.067  0.4462 -0.0846 -1.7036
  138SAPE  H18S15030  -0.941   6.070   9.079 -0.1100  0.3854 -2.7938
  138SAPE  C21915031  -0.809   5.987   8.928  0.0322  0.5561 -0.3400
  138SAPE  H19R15032  -0.826   5.878   8.933  0.4663  0.4828 -0.3944
  138SAPE  H19S15033  -0.698   5.995   8.916  0.4156  0.9347  3.0385
  138SAPE  C22015034  -0.868   6.059   8.805 -0.0271 -0.4750  0.6000
  138SAPE  H20R15035  -0.862   6.169   8.812  0.2322 -0.6201  3.1939
  138SAPE  H20S15036  -0.978   6.046   8.813 -0.3032  1.2537 -0.4175
  138SAPE  H20T15037  -0.810   6.044   8.711  1.9815  1.0297  1.5440
  138SAPE   C3315038  -0.079   5.801  10.106 -0.0270  0.8037  0.6073
  138SAPE   H3X15039  -0.127   5.800  10.006 -0.9142 -0.5816  1.0243
  138SAPE   H3Y15040  -0.121   5.705  10.144 -0.6036  1.1131  0.7643
  138SAPE   C3415041   0.074   5.787  10.096  0.4366 -0.2427 -0.0313
  138SAPE   H4X15042   0.108   5.782  10.202 -0.6782  2.0575  0.4746
  138SAPE   H4Y15043   0.118   5.882  10.060  3.7236 -1.6588  0.0566
  138SAPE   C3515044   0.118   5.664  10.015 -0.3261 -0.4353 -0.2134
  138SAPE   H5X15045   0.100   5.568  10.067  0.0790 -0.3259  0.1236
  138SAPE   H5Y15046   0.227   5.681  10.018 -0.0927 -1.7511 -1.0297
  138SAPE   C3615047   0.059   5.648   9.879  1.2756  0.2869  0.1610
  138SAPE   H6X15048  -0.051   5.658   9.880  1.3428  0.9840  1.8097
  138SAPE   H6Y15049   0.091   5.555   9.828 -1.6928 -0.3725 -0.5910
  138SAPE   C3715050   0.123   5.753   9.785  0.1922  0.5220 -0.0405
  138SAPE   H7X15051   0.227   5.717   9.775  0.0725 -0.4837  2.0239
  138SAPE   H7Y15052   0.112   5.856   9.827 -0.6859  1.5762 -2.7624
  138SAPE   C3815053   0.063   5.750   9.646  0.2682 -0.3803  0.7630
  138SAPE   H8X15054  -0.047   5.761   9.650  0.3736  0.6425  1.0382
  138SAPE   H8Y15055   0.084   5.651   9.600 -0.2777 -0.2653  0.2558
  138SAPE   C3915056   0.115   5.859   9.551 -0.0311  0.1888 -0.2670
  138SAPE   H9X15057   0.222   5.879   9.570 -0.2865 -0.4714  1.9546
  138SAPE   H9Y15058   0.069   5.956   9.580  0.7100  1.5387 -3.3516
  138SAPE  C31015059   0.101   5.822   9.403 -0.3868 -0.0143  0.3148
  138SAPE  H10X15060  -0.003   5.793   9.379 -1.0780  3.0631 -0.5752
  138SAPE  H10Y15061   0.171   5.737   9.385 -0.2714  0.2155 -0.3350
  138SAPE  C31115062   0.134   5.943   9.313 -0.3126 -0.7646 -0.0415
  138SAPE  H11X15063   0.129   5.905   9.209 -1.2020  0.7397 -0.5653
  138SAPE  H11Y15064   0.240   5.971   9.332 -0.7262  0.8217 -0.0293
  138SAPE  C31215065   0.044   6.070   9.317 -0.1747 -0.2582 -0.1157
  138SAPE  H12X15066   0.022   6.099   9.422  0.1801 -1.4770  0.2995
  138SAPE  H12Y15067  -0.055   6.045   9.274 -0.7488  2.2394 -0.3523
  138SAPE  C31315068   0.088   6.187   9.224 -0.0785  0.4107 -0.3933
  138SAPE  H13X15069   0.161   6.239   9.290 -1.8422  1.1694  0.9911
  138SAPE  H13Y15070   0.008   6.262   9.209 -1.2205 -1.0051 -1.5019
  138SAPE  C31415071   0.154   6.151   9.086  0.5348 -0.2350  0.0194
  138SAPE  H14X15072   0.073   6.098   9.030  1.8461 -1.3767 -0.8489
  138SAPE  H14Y15073   0.235   6.076   9.100 -1.8756 -2.8083  0.5722
  138SAPE  C31515074   0.196   6.276   8.997 -0.4632  0.3012  0.5659
  138SAPE  H15X15075   0.288   6.323   9.036 -0.1363 -1.1239  1.5416
  138SAPE  H15Y15076   0.125   6.361   9.012  1.3987  1.7139  1.5117
  138SAPE  C31615077   0.209   6.249   8.847 -0.7698 -0.2366 -0.0362
  138SAPE  H16X15078   0.108   6.224   8.807 -1.0035  3.0016 -1.6690
  138SAPE  H16Y15079   0.287   6.171   8.833 -0.4136  0.3206 -1.2808
  138SAPE  C31715080   0.255   6.369   8.774 -0.1798  0.3649 -0.0550
  138SAPE  H17X15081   0.365   6.383   8.763  0.1263 -1.8942 -0.1156
  138SAPE  H17Y15082   0.215   6.460   8.823  0.5226  1.1699 -0.9506
  138SAPE  C31815083   0.213   6.372   8.626  0.9278  0.3753  0.1739
  138SAPE  H18X15084   0.252   6.274   8.590 -2.6055 -0.8040 -0.7331
  138SAPE  H18Y15085   0.267   6.451   8.570 -2.6581  1.7857 -1.4220
  138SAPE  H18Z15086   0.104   6.370   8.604  1.0878  2.6331 -0.9094
  139SAPE     N15087   5.366   4.368  10.718  0.0240  0.3747 -0.3155
  139SAPE   HN115088   5.425   4.346  10.801 -0.7941  1.3600  0.5550
  139SAPE   HN215089   5.329   4.466  10.716 -2.7014 -0.6148 -0.2569
  139SAPE   HN315090   5.290   4.297  10.717  0.5177 -0.1639  0.1069
  139SAPE   C1215091   5.453   4.341  10.599  0.2074 -0.0962  0.1705
  139SAPE  H12A15092   5.520   4.428  10.588  2.0136 -1.6597 -1.6939
  139SAPE  H12B15093   5.388   4.340  10.509 -1.6023  0.1896  1.4414
  139SAPE   C1115094   5.522   4.209  10.617  0.2096  0.6949  0.3158
  139SAPE  H11A15095   5.577   4.199  10.521  0.6065 -2.4437  0.8347
  139SAPE  H11B15096   5.456   4.122  10.634  2.0354  0.0961  4.9618
  139SAPE     P15097   5.755   4.252  10.708  0.1778 -0.0396  0.2503
  139SAPE   O1315098   5.757   4.385  10.643  0.3379 -0.6522  0.0248
  139SAPE   O1415099   5.844   4.233  10.825  0.5961 -0.5966 -0.1980
  139SAPE   O1215100   5.608   4.203  10.731  0.2151  0.4930  0.2583
  139SAPE   O1115101   5.803   4.143  10.597  0.1300 -0.1954 -0.4600
  139SAPE    C115102   5.906   4.164  10.505  0.4269  0.0916  0.6952
  139SAPE    HA15103   5.945   4.268  10.510 -1.4608  0.8052  1.1094
  139SAPE    HB15104   5.988   4.092  10.522 -1.2224 -1.8959  0.4466
  139SAPE    C215105   5.856   4.141  10.358 -0.0574  0.4226 -0.0919
  139SAPE    HS15106   5.953   4.153  10.306  0.6462  3.2286  1.7957
  139SAPE   O2115107   5.753   4.239  10.310  0.5926 -1.0697 -0.3268
  139SAPE   C2115108   5.799   4.359  10.280  0.2352  0.4577 -0.5267
  139SAPE   O2215109   5.915   4.397  10.259 -0.0862 -0.0081  0.3585
  139SAPE   C2215110   5.682   4.456  10.281  0.0377  0.1065 -0.4788
  139SAPE   H2R15111   5.583   4.407  10.268 -0.0932 -0.2112  1.5498
  139SAPE   H2S15112   5.691   4.496  10.384 -0.3423 -0.4480 -0.2263
  139SAPE    C315113   5.804   3.991  10.338 -0.3163  0.5303  0.1602
  139SAPE    HX15114   5.715   3.989  10.406  0.5674  0.2047  1.3242
  139SAPE    HY15115   5.882   3.920  10.372  1.2363  1.5668 -1.1998
  139SAPE   O3115116   5.757   3.979  10.202  0.4483  0.6124  0.3402
  139SAPE   C3115117   5.721   3.855  10.167 -0.3569  0.0568 -0.4626
  139SAPE   O3215118   5.730   3.755  10.238  0.1248 -0.2619  0.9926
  139SAPE   C3215119   5.673   3.862  10.018 -0.0357 -0.5121  0.3557
  139SAPE   H2X15120   5.720   3.952   9.972 -1.3430 -0.3164 -0.6414
  139SAPE   H2Y15121   5.563   3.880  10.024  0.3268  1.6344  1.0418
  139SAPE   C2315122   5.690   4.579  10.189 -0.1912  0.0776  0.5455
  139SAPE   H3R15123   5.689   4.538  10.085  2.7732 -1.1270  0.9554
  139SAPE   H3S15124   5.785   4.631  10.213 -1.1118  2.5698 -0.9093
  139SAPE   C2415125   5.572   4.682  10.212 -0.3639 -0.4248  0.9054
  139SAPE   H4R15126   5.582   4.774  10.151  3.2194 -1.7609 -0.6013
  139SAPE   H4S15127   5.575   4.706  10.321  1.7433 -1.0405  0.9985
  139SAPE   C2515128   5.441   4.630  10.169  0.4209 -0.2434 -0.6640
  139SAPE   H5R15129   5.378   4.598  10.253  1.3474  0.0942  0.1782
  139SAPE   C2615130   5.397   4.625  10.042 -0.6396  0.2418  0.6925
  139SAPE   H6R15131   5.299   4.578  10.024 -0.2644 -0.0040 -0.8212
  139SAPE   C2715132   5.468   4.667   9.916 -0.4110 -0.2210 -0.2693
  139SAPE   H7R15133   5.564   4.719   9.935 -0.7889  1.2465 -2.2447
  139SAPE   H7S15134   5.409   4.741   9.857  1.6184  0.6044 -1.3175
  139SAPE   C2815135   5.487   4.542   9.836 -0.0243 -0.2607 -0.2600
  139SAPE   H8R15136   5.525   4.458   9.897  1.4863 -0.5872 -1.6053
  139SAPE   C2915137   5.466   4.533   9.703 -0.3520 -0.2752 -0.6438
  139SAPE   H9R15138   5.466   4.431   9.662  1.0851 -1.4252  2.0494
  139SAPE  C21015139   5.418   4.635   9.600  1.1813 -1.1144  0.0963
  139SAPE  H10R15140   5.487   4.634   9.514  2.4461  2.2865  0.9990
  139SAPE  H10S15141   5.421   4.737   9.644 -2.2424 -0.0473 -1.9614
  139SAPE  C21115142   5.276   4.598   9.555  0.1852  0.9284 -0.0103
  139SAPE  H11R15143   5.209   4.562   9.634  0.3499  1.2685  0.2876
  139SAPE  C21215144   5.230   4.614   9.424 -0.7203 -0.3612 -0.5082
  139SAPE  H12R15145   5.124   4.592   9.406 -0.3870 -3.3260  0.9531
  139SAPE  C21315146   5.301   4.666   9.309  0.0622 -0.1863 -0.4413
  139SAPE  H13R15147   5.402   4.623   9.320 -0.3366 -0.9790  0.1878
  139SAPE  H13S15148   5.309   4.777   9.317  1.0160 -0.2480 -0.5623
  139SAPE  C21415149   5.228   4.624   9.184 -0.9338 -0.9514 -0.0058
  139SAPE  H14R15150   5.119   4.638   9.180 -0.9050 -0.3326  1.1883
  139SAPE  C21515151   5.289   4.596   9.066  0.1989  0.1662 -0.0378
  139SAPE  H15R15152   5.221   4.593   8.980 -0.1297 -1.5646  0.2491
  139SAPE  C21615153   5.440   4.585   9.034  0.4773  0.6363 -0.4025
  139SAPE  H16R15154   5.504   4.576   9.125 -1.1246  2.1042  0.9058
  139SAPE  H16S15155   5.465   4.686   8.997 -1.1407  1.4736  0.6968
  139SAPE  C21715156   5.486   4.475   8.938 -0.6744  0.4132 -0.5335
  139SAPE  H17R15157   5.441   4.507   8.842 -0.3695  3.7391  0.3610
  139SAPE  H17S15158   5.437   4.384   8.979 -1.3762  0.2640 -1.6873
  139SAPE  C21815159   5.637   4.449   8.946  0.2920 -0.4655  0.0573
  139SAPE  H18R15160   5.655   4.381   9.033 -0.2445  0.2068  0.6971
  139SAPE  H18S15161   5.684   4.549   8.953 -2.2567  0.8402 -0.5898
  139SAPE  C21915162   5.685   4.374   8.813  0.0843  0.6060 -0.5940
  139SAPE  H19R15163   5.666   4.446   8.731 -2.3040  0.3388 -0.3127
  139SAPE  H19S15164   5.631   4.277   8.806 -1.0656  1.1574  0.4486
  139SAPE  C22015165   5.831   4.349   8.821 -0.5987  0.2477 -0.8657
  139SAPE  H20R15166   5.891   4.434   8.859 -2.1778  0.1200  2.0660
  139SAPE  H20S15167   5.879   4.317   8.727 -0.7414 -2.5572 -0.0158
  139SAPE  H20T15168   5.855   4.270   8.895 -2.1170 -0.8452 -1.5175
  139SAPE   C3315169   5.697   3.731   9.936 -0.2564 -0.3033 -0.4505
  139SAPE   H3X15170   5.636   3.650   9.982 -0.0386 -0.4347 -0.3908
  139SAPE   H3Y15171   5.802   3.697   9.950  0.6670  2.4680 -0.3689
  139SAPE   C3415172   5.651   3.748   9.789  0.6448 -0.4579 -0.1579
  139SAPE   H4X15173   5.695   3.839   9.742 -1.1101 -0.7388 -2.3881
  139SAPE   H4Y15174   5.544   3.777   9.800  1.0014 -0.2402  3.4988
  139SAPE   C3515175   5.654   3.628   9.693  0.4946  0.4207 -0.3760
  139SAPE   H5X15176   5.591   3.548   9.735 -0.6019  1.1483 -0.6152
  139SAPE   H5Y15177   5.761   3.598   9.692 -0.1902 -2.1719 -0.2389
  139SAPE   C3615178   5.599   3.670   9.552  0.0862  0.6438  0.1546
  139SAPE   H6X15179   5.667   3.756   9.532  1.8599 -0.7551  0.1005
  139SAPE   H6Y15180   5.493   3.702   9.557  0.7725  3.0133  0.6490
  139SAPE   C3715181   5.605   3.571   9.440 -1.3685 -0.1620  0.1796
  139SAPE   H7X15182   5.512   3.511   9.446  0.7510 -3.2635  3.2466
  139SAPE   H7Y15183   5.691   3.506   9.465 -0.3228  1.4140  0.7907
  139SAPE   C3815184   5.609   3.642   9.303 -0.6920 -0.5371 -0.2571
  139SAPE   H8X15185   5.685   3.722   9.312  0.0330 -1.4404  1.9714
  139SAPE   H8Y15186   5.510   3.691   9.288 -0.5360  0.4619  1.7852
  139SAPE   C3915187   5.643   3.537   9.197 -0.2524  0.0761 -0.2091
  139SAPE   H9X15188   5.601   3.441   9.235  4.6716 -1.0770  2.7580
  139SAPE   H9Y15189   5.754   3.525   9.194 -0.2039  0.6391 -0.7977
  139SAPE  C31015190   5.601   3.582   9.054  0.1749  0.5567 -0.8898
  139SAPE  H10X15191   5.658   3.674   9.028 -0.6382  1.2777 -0.1372
  139SAPE  H10Y15192   5.495   3.613   9.060  0.7073  1.9881  1.9241
  139SAPE  C31115193   5.625   3.469   8.947  0.6780  0.4595  0.3614
  139SAPE  H11X15194   5.557   3.383   8.964  1.6816 -0.5723 -0.7965
  139SAPE  H11Y15195   5.728   3.430   8.956  1.1669  1.6497  0.0555
  139SAPE  C31215196   5.610   3.534   8.810  0.1481 -0.1572 -0.5305
  139SAPE  H12X15197   5.657   3.634   8.808 -0.2435  0.0265 -0.5899
  139SAPE  H12Y15198   5.502   3.558   8.796  1.0660  2.8811 -3.1610
  139SAPE  C31315199   5.653   3.442   8.695 -0.0353 -0.7163  0.2301
  139SAPE  H13X15200   5.621   3.337   8.713  0.9640 -1.3400 -1.5259
  139SAPE  H13Y15201   5.764   3.436   8.700 -0.0002 -0.0271  0.2100
  139SAPE  C31415202   5.592   3.482   8.562 -0.2912 -0.7631 -0.0330
  139SAPE  H14X15203   5.645   3.437   8.475 -0.9877 -0.0135 -0.8577
  139SAPE  H14Y15204   5.603   3.592   8.554  0.6769 -1.0182 -2.5665
  139SAPE  C31515205   5.442   3.458   8.549 -0.3394 -0.4193 -1.1210
  139SAPE  H15X15206   5.376   3.523   8.611  0.8133 -0.6918  0.3954
  139SAPE  H15Y15207   5.419   3.352   8.573 -0.3648 -1.1262 -4.0196
  139SAPE  C31615208   5.393   3.473   8.403 -0.6943 -0.0043 -0.9635
  139SAPE  H16X15209   5.396   3.579   8.371  1.7859 -0.4575 -2.3621
  139SAPE  H16Y15210   5.460   3.409   8.342  0.2760  0.1395 -0.0669
  139SAPE  C31715211   5.241   3.440   8.380 -0.9069  0.2915 -0.4172
  139SAPE  H17X15212   5.206   3.458   8.276 -2.5903  1.1725  0.2743
  139SAPE  H17Y15213   5.182   3.519   8.432 -1.6852  0.3034 -1.3000
  139SAPE  C31815214   5.200   3.293   8.397 -0.4631  0.4634  0.0917
  139SAPE  H18X15215   5.091   3.273   8.386 -0.5514  0.6708  0.5377
  139SAPE  H18Y15216   5.237   3.251   8.493  2.8996 -1.2737 -1.8590
  139SAPE  H18Z15217   5.255   3.228   8.326 -0.9062 -1.3314  1.3503
  140SAPE     N15218   1.631   0.846  11.050 -0.6563  0.2146  0.3777
  140SAPE   HN115219   1.528   0.856  11.044 -0.6936  0.2993  1.0880
  140SAPE   HN215220   1.634   0.760  10.993 -0.9847 -0.3160  1.1473
  140SAPE   HN315221   1.662   0.814  11.144 -0.8614 -0.5282  0.1925
  140SAPE   C1215222   1.722   0.951  10.973 -0.0659 -0.1968  0.1999
  140SAPE  H12A15223   1.799   0.897  10.913  0.1566 -0.2179  0.5015
  140SAPE  H12B15224   1.779   1.015  11.043  2.7318 -0.7789 -1.4572
  140SAPE   C1115225   1.636   1.046  10.892  0.3793  0.7229 -0.5677
  140SAPE  H11A15226   1.570   0.987  10.826 -2.0722  0.2125  2.2125
  140SAPE  H11B15227   1.701   1.108  10.827  1.9888 -0.3622 -0.0364
  140SAPE     P15228   1.451   1.221  10.921  0.0437  0.2884  0.0285
  140SAPE   O1315229   1.326   1.141  10.942 -0.3309 -0.4013 -0.1833
  140SAPE   O1415230   1.460   1.355  10.973 -0.3344 -0.6892 -0.3124
  140SAPE   O1215231   1.563   1.133  10.978  0.2426 -0.2568 -0.2517
  140SAPE   O1115232   1.481   1.233  10.765  0.4724  0.1300 -0.0745
  140SAPE    C115233   1.371   1.271  10.680  0.3030 -0.4842 -0.0374
  140SAPE    HA15234   1.273   1.228  10.712  0.3643 -1.7266 -1.4753
  140SAPE    HB15235   1.353   1.381  10.678  0.0948 -0.4951  1.0298
  140SAPE    C215236   1.398   1.207  10.545  0.5666 -0.6511  0.3927
  140SAPE    HS15237   1.437   1.104  10.564  0.6237 -0.5248  0.9896
  140SAPE   O2115238   1.498   1.282  10.473  0.0534 -0.1877  0.0284
  140SAPE   C2115239   1.564   1.211  10.384  0.4420 -0.8268 -0.4242
  140SAPE   O2215240   1.561   1.089  10.368  0.6034  0.9958 -0.0408
  140SAPE   C2215241   1.629   1.300  10.290 -0.4817 -0.4597  0.4938
  140SAPE   H2R15242   1.710   1.362  10.332  0.6915 -1.5279 -0.1507
  140SAPE   H2S15243   1.676   1.237  10.210  0.3053  0.6043  0.1064
  140SAPE    C315244   1.258   1.204  10.468 -0.2093 -0.6027  0.4863
  140SAPE    HX15245   1.244   1.310  10.436  2.1946 -0.1375  0.8478
  140SAPE    HY15246   1.176   1.175  10.537 -1.5033 -1.5074 -1.3859
  140SAPE   O3115247   1.256   1.118  10.355 -0.2436 -0.0052  0.3819
  140SAPE   C3115248   1.257   0.989  10.377 -0.2131  0.0940 -0.4531
  140SAPE   O3215249   1.270   0.936  10.489 -0.6007  0.5246  0.7020
  140SAPE   C3215250   1.241   0.904  10.246 -0.2247 -0.1224 -0.4975
  140SAPE   H2X15251   1.216   0.797  10.258 -2.0131  0.4082  0.7687
  140SAPE   H2Y15252   1.340   0.907  10.197 -0.2853  0.8827 -0.5698
  140SAPE   C2315253   1.535   1.391  10.198  0.4112 -0.1511  0.9203
  140SAPE   H3R15254   1.594   1.444  10.121  0.6104 -2.6081 -0.6505
  140SAPE   H3S15255   1.493   1.467  10.268  2.0242  0.4952  1.2161
  140SAPE   C2415256   1.425   1.312  10.130  0.1110  0.2635 -0.3008
  140SAPE   H4R15257   1.366   1.379  10.064 -2.4704 -1.5523  0.0914
  140SAPE   H4S15258   1.347   1.292  10.206  2.2134 -0.0643  1.8539
  140SAPE   C2515259   1.460   1.184  10.072  0.3670  0.3588 -0.2605
  140SAPE   H5R15260   1.444   1.100  10.141 -0.5049  0.2915 -0.5383
  140SAPE   C2615261   1.499   1.157   9.948  0.6805 -1.1330 -0.4006
  140SAPE   H6R15262   1.518   1.052   9.920 -1.1151 -2.4993  3.1355
  140SAPE   C2715263   1.531   1.255   9.840 -0.6694  0.0894  0.3208
  140SAPE   H7R15264   1.516   1.363   9.861 -2.5194  0.1978 -1.3839
  140SAPE   H7S15265   1.466   1.248   9.750 -0.6130 -0.6647  0.3367
  140SAPE   C2815266   1.676   1.251   9.794 -0.1773  0.0125  0.3692
  140SAPE   H8R15267   1.746   1.257   9.879 -0.5483  1.1446  0.5971
  140SAPE   C2915268   1.729   1.219   9.672  0.2376  0.1549 -0.2022
  140SAPE   H9R15269   1.836   1.199   9.659 -0.1820 -2.1813 -0.2052
  140SAPE  C21015270   1.637   1.202   9.550 -0.3663  0.5053  0.1006
  140SAPE  H10R15271   1.549   1.268   9.560 -0.1450  0.8460 -0.1969
  140SAPE  H10S15272   1.605   1.096   9.546  0.7870  0.1771 -1.2424
  140SAPE  C21115273   1.713   1.228   9.420  0.0301 -0.4516  0.6646
  140SAPE  H11R15274   1.721   1.337   9.407 -0.9997 -0.3271  1.0300
  140SAPE  C21215275   1.791   1.145   9.345  0.4698 -0.3082 -0.2338
  140SAPE  H12R15276   1.844   1.184   9.257 -0.6822 -0.4439 -1.0032
  140SAPE  C21315277   1.812   1.004   9.372 -0.7960 -0.6084 -0.1362
  140SAPE  H13R15278   1.843   0.962   9.274 -0.0515 -1.0037  0.2647
  140SAPE  H13S15279   1.713   0.958   9.394 -0.8086  0.1301  1.4411
  140SAPE  C21415280   1.901   0.973   9.489  0.3841  0.6807  0.3416
  140SAPE  H14R15281   1.908   1.057   9.559  1.2232 -0.6526  1.8969
  140SAPE  C21515282   1.970   0.862   9.511 -0.1233 -0.3144 -0.2196
  140SAPE  H15R15283   2.040   0.859   9.596  0.0112 -1.3503 -0.3615
  140SAPE  C21615284   1.971   0.754   9.407  0.4167 -0.3770 -0.6699
  140SAPE  H16R15285   1.889   0.770   9.334 -1.2045  3.4707  1.8373
  140SAPE  H16S15286   1.933   0.669   9.468 -1.0314  0.9588  0.3281
  140SAPE  C21715287   2.102   0.721   9.340  0.0720  0.6088 -0.3115
  140SAPE  H17R15288   2.191   0.727   9.407  0.8561  1.3845 -1.4178
  140SAPE  H17S15289   2.126   0.796   9.262 -0.7860  0.1412 -1.0389
  140SAPE  C21815290   2.096   0.582   9.268 -0.0798  0.6238  0.0959
  140SAPE  H18R15291   2.026   0.583   9.181 -2.9447  0.0908  2.3044
  140SAPE  H18S15292   2.060   0.507   9.341 -1.8241  1.8311  0.5290
  140SAPE  C21915293   2.230   0.515   9.234  0.2371 -0.6921  0.0952
  140SAPE  H19R15294   2.308   0.515   9.313  2.0024  1.3676 -1.5622
  140SAPE  H19S15295   2.268   0.583   9.154  0.5567  0.7111  1.4106
  140SAPE  C22015296   2.218   0.373   9.178 -0.2351  0.5128 -0.0560
  140SAPE  H20R15297   2.322   0.333   9.177 -0.3684  0.1643 -0.7738
  140SAPE  H20S15298   2.187   0.388   9.073 -0.5853  1.1547  0.1391
  140SAPE  H20T15299   2.154   0.310   9.243 -0.9529  0.1669 -1.0856
  140SAPE   C3315300   1.124   0.977  10.166 -0.0584 -0.1840 -0.1270
  140SAPE   H3X15301   1.165   1.069  10.121 -0.8535  1.1812  1.8571
  140SAPE   H3Y15302   1.039   0.984  10.238  0.8416 -0.6464  1.0046
  140SAPE   C3415303   1.075   0.904  10.044  0.3362  0.3617 -0.0565
  140SAPE   H4X15304   0.993   0.940   9.978  0.4119 -1.4592 -1.1546
  140SAPE   H4Y15305   1.048   0.798  10.066 -2.0960  0.7745 -0.8421
  140SAPE   C3515306   1.186   0.912   9.938 -0.0517  0.7655  0.2003
  140SAPE   H5X15307   1.283   0.870   9.971  0.5495 -0.3763 -2.8699
  140SAPE   H5Y15308   1.206   1.021   9.923 -1.0496  1.1213  1.3320
  140SAPE   C3615309   1.157   0.858   9.797  0.5456 -0.0036 -0.3560
  140SAPE   H6X15310   1.086   0.931   9.753  0.0863 -0.4651 -0.3799
  140SAPE   H6Y15311   1.102   0.762   9.807 -0.4771  0.5878 -0.2751
  140SAPE   C3715312   1.287   0.850   9.712 -0.4085 -1.0496 -0.1900
  140SAPE   H7X15313   1.359   0.791   9.772  1.1466  1.5079  0.5297
  140SAPE   H7Y15314   1.331   0.952   9.703 -0.4291 -0.6842  3.3614
  140SAPE   C3815315   1.273   0.788   9.570 -0.1055 -0.3337 -0.6042
  140SAPE   H8X15316   1.175   0.822   9.529 -0.5698 -0.2395  0.5833
  140SAPE   H8Y15317   1.263   0.677   9.563 -0.0611 -0.4510  1.0205
  140SAPE   C3915318   1.390   0.832   9.479 -0.5076  0.5157  0.1071
  140SAPE   H9X15319   1.491   0.809   9.519  0.2553  0.3825 -1.8282
  140SAPE   H9Y15320   1.379   0.943   9.478 -0.3069  0.5331 -0.3270
  140SAPE  C31015321   1.379   0.786   9.336  0.3610  0.5340  0.0354
  140SAPE  H10X15322   1.297   0.834   9.278 -0.8246 -2.5586 -0.9744
  140SAPE  H10Y15323   1.350   0.679   9.325 -0.3147  0.8643 -1.5101
  140SAPE  C31115324   1.504   0.807   9.252  0.7684 -1.0611  1.0368
  140SAPE  H11X15325   1.587   0.771   9.317  3.6611  0.2620 -1.8083
  140SAPE  H11Y15326   1.507   0.917   9.245 -1.9532 -1.1151 -2.0807
  140SAPE  C31215327   1.499   0.748   9.116 -0.0270  0.7525  0.5489
  140SAPE  H12X15328   1.417   0.797   9.059  0.9562 -1.7226 -3.1483
  140SAPE  H12Y15329   1.486   0.638   9.111 -0.7035  0.8223  0.7097
  140SAPE  C31315330   1.624   0.791   9.040 -0.0407 -0.4281  0.9127
  140SAPE  H13X15331   1.625   0.732   8.947 -1.8339 -0.2496  0.7474
  140SAPE  H13Y15332   1.710   0.761   9.103  0.1530 -1.5760  0.1043
  140SAPE  C31415333   1.635   0.938   9.012  0.1687  0.2465  0.1116
  140SAPE  H14X15334   1.647   0.983   9.113  2.6052  0.7590 -0.3736
  140SAPE  H14Y15335   1.540   0.985   8.980  0.1066  0.0203 -0.0394
  140SAPE  C31515336   1.749   0.983   8.929  0.0411 -0.5666 -0.7141
  140SAPE  H15X15337   1.717   0.962   8.825  0.4674 -0.1469 -0.9310
  140SAPE  H15Y15338   1.837   0.918   8.955  0.3520  0.5308  1.0942
  140SAPE  C31615339   1.790   1.131   8.950  0.0384  0.7301 -0.1623
  140SAPE  H16X15340   1.774   1.164   9.055  1.1464  0.7710 -0.0100
  140SAPE  H16Y15341   1.725   1.197   8.888 -2.2850  0.0532  1.4912
  140SAPE  C31715342   1.934   1.162   8.917  0.0485  0.2950 -0.5782
  140SAPE  H17X15343   1.946   1.126   8.812 -1.1694 -0.1444 -0.5764
  140SAPE  H17Y15344   2.007   1.094   8.965  1.4553  1.3978 -1.1040
  140SAPE  C31815345   1.977   1.311   8.941  0.7372 -0.3540 -0.1120
  140SAPE  H18X15346   1.902   1.377   8.894  0.4710  0.3362  1.2450
  140SAPE  H18Y15347   2.075   1.324   8.891  1.8675  1.1787  2.4147
  140SAPE  H18Z15348   1.990   1.338   9.048 -1.6084  0.0683  0.0852
  141SAPE     N15349   1.785   1.633  10.941 -0.1770  0.2148  0.6527
  141SAPE   HN115350   1.752   1.729  10.963  2.4201  1.3252 -0.0203
  141SAPE   HN215351   1.715   1.580  10.885  1.0098  0.4198 -1.0740
  141SAPE   HN315352   1.812   1.578  11.025 -0.3007 -2.2397 -0.8528
  141SAPE   C1215353   1.912   1.646  10.861  0.2787  0.1616  0.3162
  141SAPE  H12A15354   1.889   1.715  10.777  2.0095  0.4743  0.0785
  141SAPE  H12B15355   1.932   1.542  10.828  1.1139  0.4098  0.0360
  141SAPE   C1115356   2.013   1.699  10.958 -0.7298  0.4098 -0.4399
  141SAPE  H11A15357   1.963   1.778  11.019 -2.7755 -1.5017  0.4357
  141SAPE  H11B15358   2.099   1.748  10.909 -0.8324  1.1760  0.1205
  141SAPE     P15359   2.182   1.510  11.031 -0.0451 -0.2584 -0.1587
  141SAPE   O1315360   2.297   1.591  11.070  0.2740 -0.7511 -0.7531
  141SAPE   O1415361   2.171   1.380  11.105 -0.5546  0.1001  0.3896
  141SAPE   O1215362   2.045   1.594  11.051 -0.4528 -0.1642  0.3957
  141SAPE   O1115363   2.182   1.479  10.874  0.3880 -0.7868  0.6514
  141SAPE    C115364   2.269   1.373  10.834  0.1653 -0.5097 -0.5635
  141SAPE    HA15365   2.366   1.359  10.886  0.6528  3.2448 -0.3553
  141SAPE    HB15366   2.219   1.274  10.834 -0.1206 -0.4159  1.9610
  141SAPE    C215367   2.312   1.383  10.682 -0.4001 -0.1388 -0.2297
  141SAPE    HS15368   2.395   1.456  10.681  0.9866 -1.6062  2.0295
  141SAPE   O2115369   2.200   1.422  10.596 -0.5655 -0.5298 -0.4169
  141SAPE   C2115370   2.182   1.552  10.576  0.7678 -0.1229  0.6370
  141SAPE   O2215371   2.261   1.637  10.612  0.1295  0.4895 -0.2467
  141SAPE   C2215372   2.059   1.570  10.486  0.3618  0.6969  0.7139
  141SAPE   H2R15373   2.094   1.541  10.385 -0.8648 -0.8976  0.7143
  141SAPE   H2S15374   1.985   1.490  10.509  2.2694 -0.4253  3.1716
  141SAPE    C315375   2.372   1.248  10.633  0.3353  0.6106 -0.0022
  141SAPE    HX15376   2.312   1.157  10.654  0.8701  0.5971  1.5423
  141SAPE    HY15377   2.466   1.233  10.690  2.6133 -1.3062 -4.0868
  141SAPE   O3115378   2.390   1.256  10.491  0.1434  0.2346 -0.8187
  141SAPE   C3115379   2.506   1.307  10.443 -0.2468 -0.3047 -0.3062
  141SAPE   O3215380   2.603   1.327  10.512  0.4853 -0.1796 -0.7263
  141SAPE   C3215381   2.490   1.324  10.290  0.0825  0.0167 -0.7151
  141SAPE   H2X15382   2.384   1.356  10.288  0.0634  0.1419  1.2706
  141SAPE   H2Y15383   2.487   1.221  10.246  0.6479 -0.7547  1.0219
  141SAPE   C2315384   2.005   1.713  10.478  0.4053  0.3216  0.4775
  141SAPE   H3R15385   2.058   1.779  10.407  1.2782  0.3387  1.1284
  141SAPE   H3S15386   1.995   1.758  10.579 -1.6715 -2.1607  1.4532
  141SAPE   C2415387   1.865   1.700  10.421  0.0383  0.0313 -0.3457
  141SAPE   H4R15388   1.795   1.639  10.481  1.5753 -0.0816  1.3688
  141SAPE   H4S15389   1.873   1.638  10.329 -2.7345 -0.7098 -0.1132
  141SAPE   C2515390   1.812   1.840  10.395  0.1311 -0.4019 -0.5074
  141SAPE   H5R15391   1.813   1.903  10.485 -0.3096  0.3635 -1.0309
  141SAPE   C2615392   1.774   1.898  10.281  0.5928 -0.3692  0.1188
  141SAPE   H6R15393   1.727   1.998  10.280 -0.8162 -1.0283 -0.6488
  141SAPE   C2715394   1.780   1.826  10.148  0.4724  0.3787 -0.1284
  141SAPE   H7R15395   1.812   1.720  10.157  0.1042  0.3956  1.5638
  141SAPE   H7S15396   1.851   1.870  10.076  1.5355  0.9107  1.2239
  141SAPE   C2815397   1.645   1.831  10.086  0.5531  0.5181 -0.1475
  141SAPE   H8R15398   1.573   1.767  10.140  1.7696  0.2330  1.1907
  141SAPE   C2915399   1.606   1.884   9.972  0.1972 -0.9671  0.0212
  141SAPE   H9R15400   1.509   1.857   9.927 -0.9583  2.2764  0.4635
  141SAPE  C21015401   1.706   1.962   9.888  0.2286  0.7349  0.4938
  141SAPE  H10R15402   1.676   1.964   9.781 -1.8212 -0.9925  0.9947
  141SAPE  H10S15403   1.802   1.909   9.873 -0.5877  0.0132 -2.5007
  141SAPE  C21115404   1.723   2.103   9.949 -0.0107  0.0324 -0.6229
  141SAPE  H11R15405   1.740   2.091  10.057  0.0516 -3.0496 -0.9225
  141SAPE  C21215406   1.721   2.216   9.883 -0.0218 -0.7793 -0.2239
  141SAPE  H12R15407   1.748   2.307   9.938  0.2295 -0.4089 -0.9504
  141SAPE  C21315408   1.704   2.236   9.739  0.4851  0.2892 -0.4803
  141SAPE  H13R15409   1.601   2.271   9.718  0.8243  2.1716  0.8795
  141SAPE  H13S15410   1.713   2.139   9.685  0.2150  0.2461 -0.4468
  141SAPE  C21415411   1.805   2.334   9.683 -0.3570  0.3631 -0.6544
  141SAPE  H14R15412   1.865   2.379   9.763  1.1765 -1.0965 -0.9483
  141SAPE  C21515413   1.831   2.359   9.552 -0.4057  0.0878  0.4130
  141SAPE  H15R15414   1.902   2.442   9.536 -0.4616 -0.4035 -2.5884
  141SAPE  C21615415   1.761   2.287   9.436 -0.0844  0.1720  0.3562
  141SAPE  H16R15416   1.692   2.210   9.476 -0.3814  0.5772  0.6279
  141SAPE  H16S15417   1.826   2.243   9.357 -1.1271  0.2792 -0.5760
  141SAPE  C21715418   1.661   2.379   9.371 -0.0882 -0.1219  0.1060
  141SAPE  H17R15419   1.585   2.404   9.448  1.6605  1.0609  1.4713
  141SAPE  H17S15420   1.602   2.325   9.293  0.5465 -0.6629 -0.0046
  141SAPE  C21815421   1.714   2.511   9.305  0.0201  1.1322  0.0466
  141SAPE  H18R15422   1.801   2.482   9.243 -1.3169  0.2399 -1.4525
  141SAPE  H18S15423   1.750   2.574   9.390 -0.9071 -1.7260  2.6408
  141SAPE  C21915424   1.600   2.574   9.233  0.0837 -0.4316 -0.0004
  141SAPE  H19R15425   1.513   2.581   9.302  0.1442 -0.1257  0.0484
  141SAPE  H19S15426   1.570   2.513   9.145 -1.4994  2.2130 -1.3860
  141SAPE  C22015427   1.648   2.709   9.187 -0.4211  0.3292 -0.3553
  141SAPE  H20R15428   1.644   2.783   9.271 -1.6204 -0.0270 -0.0894
  141SAPE  H20S15429   1.570   2.744   9.117 -0.8958 -0.1528 -0.0685
  141SAPE  H20T15430   1.748   2.698   9.140  1.0069  2.1373  2.1439
  141SAPE   C3315431   2.592   1.422  10.236  0.2019 -0.6843 -0.0701
  141SAPE   H3X15432   2.697   1.395  10.260  0.8885  1.4310 -0.5673
  141SAPE   H3Y15433   2.575   1.531  10.250 -0.1397 -0.7165 -0.2446
  141SAPE   C3415434   2.593   1.412  10.076  0.0238 -0.2307  0.2476
  141SAPE   H4X15435   2.646   1.498  10.030  0.3214 -0.9899 -0.8569
  141SAPE   H4Y15436   2.487   1.417  10.042 -0.0780  1.1062  0.7208
  141SAPE   C3515437   2.663   1.281  10.022  0.5311 -0.2112 -0.3611
  141SAPE   H5X15438   2.595   1.193  10.028  0.1739  0.1805  1.7142
  141SAPE   H5Y15439   2.752   1.260  10.086 -0.1069 -0.3029  0.5109
  141SAPE   C3615440   2.715   1.292   9.878  1.2329 -0.5183 -0.1588
  141SAPE   H6X15441   2.783   1.379   9.886 -0.6877  0.9501  0.7378
  141SAPE   H6Y15442   2.642   1.320   9.799 -0.1081 -1.1110  0.8381
  141SAPE   C3715443   2.775   1.159   9.819  0.1368 -0.8321 -0.5334
  141SAPE   H7X15444   2.697   1.084   9.794  0.7271 -1.5695 -0.1861
  141SAPE   H7Y15445   2.825   1.106   9.903 -0.5484 -1.2132 -0.3586
  141SAPE   C3815446   2.864   1.181   9.694  0.2949  0.2674  0.1120
  141SAPE   H8X15447   2.891   1.084   9.648 -4.4437 -0.5864 -1.0855
  141SAPE   H8Y15448   2.955   1.230   9.736 -1.0197  1.1961  1.9549
  141SAPE   C3915449   2.817   1.269   9.581  0.4524 -0.4487  0.0499
  141SAPE   H9X15450   2.771   1.358   9.628 -0.7541  0.1221 -2.1121
  141SAPE   H9Y15451   2.737   1.219   9.522 -0.1529 -0.0751  0.5523
  141SAPE  C31015452   2.932   1.330   9.501  0.0776  0.1011  0.7351
  141SAPE  H10X15453   2.993   1.389   9.573  1.7449 -1.9814  1.0982
  141SAPE  H10Y15454   2.893   1.410   9.435 -0.5156 -0.3541  0.5384
  141SAPE  C31115455   3.010   1.221   9.421 -0.6665  0.1767  0.3537
  141SAPE  H11X15456   3.068   1.166   9.498 -0.9844  0.2396  0.6363
  141SAPE  H11Y15457   3.071   1.275   9.345  1.0177 -1.2785  0.6334
  141SAPE  C31215458   2.928   1.123   9.343 -0.2229 -0.3356 -0.0261
  141SAPE  H12X15459   2.864   1.052   9.400 -0.9506  1.3110  1.2231
  141SAPE  H12Y15460   3.003   1.058   9.291 -0.4958 -2.0039  1.5931
  141SAPE  C31315461   2.847   1.177   9.230  0.0836 -0.1221  0.0798
  141SAPE  H13X15462   2.916   1.237   9.167 -0.5789  1.2909  0.6745
  141SAPE  H13Y15463   2.772   1.238   9.285 -0.5080  1.0643 -1.9967
  141SAPE  C31415464   2.787   1.067   9.138  0.3134 -0.5124 -0.2233
  141SAPE  H14X15465   2.864   0.992   9.114  0.9050 -0.3398  1.0718
  141SAPE  H14Y15466   2.752   1.117   9.045 -1.5101  0.5271  0.9767
  141SAPE  C31515467   2.669   1.006   9.220 -0.0048  0.0956 -0.1966
  141SAPE  H15X15468   2.592   1.082   9.244 -0.2897 -0.9786  2.3828
  141SAPE  H15Y15469   2.692   0.949   9.312 -0.9511  0.1900  0.1025
  141SAPE  C31615470   2.600   0.899   9.132 -0.8314 -0.7429  0.5157
  141SAPE  H16X15471   2.622   0.799   9.175  2.1114 -1.1835 -1.8733
  141SAPE  H16Y15472   2.656   0.893   9.036 -2.2416 -1.9751 -0.2618
  141SAPE  C31715473   2.450   0.920   9.124  0.4305 -0.8125 -0.5438
  141SAPE  H17X15474   2.410   0.917   9.227 -0.1802  2.9295 -0.5976
  141SAPE  H17Y15475   2.410   0.838   9.059 -0.5606  0.2329 -1.2763
  141SAPE  C31815476   2.408   1.048   9.045  0.0088 -0.1866 -0.7916
  141SAPE  H18X15477   2.440   1.045   8.939 -0.0285  0.4800 -0.8194
  141SAPE  H18Y15478   2.449   1.142   9.088 -2.8570  0.4158  0.8006
  141SAPE  H18Z15479   2.297   1.048   9.041 -0.0912 -3.2113  0.2247
  142SAPE     N15480   3.051   0.888  10.971 -0.6728 -0.3863  0.3630
  142SAPE   HN115481   3.107   0.810  10.930 -1.0460 -0.2452 -0.4259
  142SAPE   HN215482   2.961   0.886  10.919 -1.2765  1.4782  1.3009
  142SAPE   HN315483   3.097   0.979  10.948  0.6270 -0.7807  1.3386
  142SAPE   C1215484   3.025   0.867  11.113 -0.3359 -0.1914  0.2483
  142SAPE  H12A15485   2.958   0.945  11.155  1.3521  1.4129 -0.0067
  142SAPE  H12B15486   3.123   0.883  11.162  0.1265 -0.0859 -0.7068
  142SAPE   C1115487   2.964   0.729  11.152 -0.1221 -0.6792  0.0370
  142SAPE  H11A15488   2.931   0.747  11.257 -0.6761  0.5727 -0.3348
  142SAPE  H11B15489   3.041   0.650  11.142 -0.0999 -0.5991 -0.4553
  142SAPE     P15490   2.706   0.718  11.113 -0.2880 -0.6179  0.1879
  142SAPE   O1315491   2.657   0.633  11.228  0.2531 -0.3131  0.2138
  142SAPE   O1415492   2.712   0.864  11.131 -0.6185 -0.1344 -0.2641
  142SAPE   O1215493   2.851   0.679  11.076  0.2863 -0.3640  0.9651
  142SAPE   O1115494   2.618   0.685  10.988 -0.1037  0.3634  0.4154
  142SAPE    C115495   2.664   0.578  10.898 -0.8494  0.6178 -0.1072
  142SAPE    HA15496   2.715   0.492  10.947 -2.1454  0.7270  1.4701
  142SAPE    HB15497   2.572   0.542  10.847 -1.2517 -1.9959  2.3044
  142SAPE    C215498   2.772   0.636  10.794  0.2758  0.4875  0.4093
  142SAPE    HS15499   2.855   0.677  10.856  0.8785 -2.3336  1.5531
  142SAPE   O2115500   2.700   0.731  10.716 -0.7417  0.6540 -0.6705
  142SAPE   C2115501   2.732   0.861  10.735  0.1128 -0.6150 -0.1734
  142SAPE   O2215502   2.829   0.896  10.803  0.3842 -0.0286  0.9458
  142SAPE   C2215503   2.635   0.952  10.671  1.0275 -0.4483  0.2063
  142SAPE   H2R15504   2.547   0.894  10.635  0.8037 -0.7502  1.2129
  142SAPE   H2S15505   2.603   1.027  10.747 -0.5011  0.1186 -0.9527
  142SAPE    C315506   2.831   0.528  10.695 -0.0797  0.3592  0.0057
  142SAPE    HX15507   2.746   0.473  10.650  0.7801  0.9698 -2.4482
  142SAPE    HY15508   2.893   0.464  10.761 -1.3755 -0.3151  0.5730
  142SAPE   O3115509   2.918   0.596  10.602 -0.0730  0.2879 -0.5878
  142SAPE   C3115510   2.990   0.512  10.518 -0.3453 -0.3929  0.7496
  142SAPE   O3215511   2.978   0.392  10.507  0.0490  0.0483  0.9314
  142SAPE   C3215512   3.086   0.599  10.436 -0.0885 -0.1085 -0.3754
  142SAPE   H2X15513   3.156   0.633  10.515 -0.9115  0.7140  0.0217
  142SAPE   H2Y15514   3.035   0.686  10.390  0.8456  1.4552  1.4491
  142SAPE   C2315515   2.718   1.009  10.541 -0.8644 -0.6463  0.2554
  142SAPE   H3R15516   2.797   1.079  10.576 -1.8821 -0.2476  1.8325
  142SAPE   H3S15517   2.650   1.073  10.481 -0.3894 -1.0978 -0.7683
  142SAPE   C2415518   2.766   0.899  10.447  0.3632 -0.1715 -0.5254
  142SAPE   H4R15519   2.683   0.828  10.427  2.0368 -2.0027 -1.1292
  142SAPE   H4S15520   2.844   0.831  10.486  1.5765  0.4067 -1.9031
  142SAPE   C2515521   2.822   0.962  10.324 -0.5398  0.0500 -0.3397
  142SAPE   H5R15522   2.904   1.033  10.333 -0.9524  0.2584  2.5508
  142SAPE   C2615523   2.794   0.927  10.196  0.1532 -0.1612 -0.5468
  142SAPE   H6R15524   2.827   0.997  10.118  1.4055  0.0845  0.1918
  142SAPE   C2715525   2.697   0.814  10.159 -0.0789 -0.8061 -0.0722
  142SAPE   H7R15526   2.667   0.747  10.242 -1.8188  0.5910  0.4543
  142SAPE   H7S15527   2.751   0.743  10.093  1.1184 -0.4852  0.5433
  142SAPE   C2815528   2.587   0.879  10.083 -0.1091  0.3542 -0.1715
  142SAPE   H8R15529   2.617   0.936   9.994 -0.8152 -0.1922 -0.7642
  142SAPE   C2915530   2.458   0.875  10.124  0.7262  0.1912  0.6325
  142SAPE   H9R15531   2.386   0.943  10.076  0.3116 -1.9736 -1.9654
  142SAPE  C21015532   2.392   0.800  10.235  0.0626  0.4180  0.0071
  142SAPE  H10R15533   2.448   0.705  10.240 -0.3368  0.1885  0.1281
  142SAPE  H10S15534   2.288   0.776  10.204 -0.4030  1.7147  0.5096
  142SAPE  C21115535   2.395   0.886  10.361 -0.2287 -0.3741  0.3586
  142SAPE  H11R15536   2.485   0.942  10.391  0.0936  0.6429 -2.3618
  142SAPE  C21215537   2.298   0.905  10.446 -0.0945  0.7370  0.7214
  142SAPE  H12R15538   2.305   0.977  10.529 -1.4419 -2.0000  3.2944
  142SAPE  C21315539   2.156   0.844  10.440 -0.3282  0.5416  0.3856
  142SAPE  H13R15540   2.145   0.778  10.529  1.4410  0.6275  0.6908
  142SAPE  H13S15541   2.144   0.780  10.350  2.0014  0.9578 -0.2547
  142SAPE  C21415542   2.057   0.950  10.458  0.0121 -0.8280 -0.5293
  142SAPE  H14R15543   2.083   1.018  10.540  1.5432 -0.8392 -1.0019
  142SAPE  C21515544   1.949   0.970  10.381  0.3487  1.0601 -0.4052
  142SAPE  H15R15545   1.876   1.051  10.399 -0.3526  0.3042  0.1831
  142SAPE  C21615546   1.910   0.882  10.266 -0.0463 -0.2246 -1.4339
  142SAPE  H16R15547   1.812   0.830  10.276 -0.4538  1.3390  3.9893
  142SAPE  H16S15548   1.975   0.793  10.250 -0.4075 -0.7569 -0.0137
  142SAPE  C21715549   1.894   0.967  10.132  0.1888  0.0178  0.1061
  142SAPE  H17R15550   1.822   1.048  10.157 -0.3809  0.3508 -2.5182
  142SAPE  H17S15551   1.853   0.892  10.061  2.1105 -0.3503 -0.6461
  142SAPE  C21815552   2.022   1.023  10.059 -0.3987 -0.2219  0.2328
  142SAPE  H18R15553   2.116   0.965  10.072  0.6641  1.7964  2.0065
  142SAPE  H18S15554   2.053   1.120  10.105  2.3702  0.1497 -2.2541
  142SAPE  C21915555   1.988   1.048   9.919 -0.0993  0.6688 -0.4912
  142SAPE  H19R15556   1.884   1.088   9.921 -0.6342 -0.7113  2.9915
  142SAPE  H19S15557   1.994   0.949   9.869  1.9984 -0.3905  1.7696
  142SAPE  C22015558   2.070   1.154   9.831 -0.0671  0.2199  0.2627
  142SAPE  H20R15559   2.067   1.250   9.886 -0.6349  0.6954 -0.5865
  142SAPE  H20S15560   2.026   1.158   9.730  3.1450 -0.1794 -1.2205
  142SAPE  H20T15561   2.175   1.117   9.828 -0.5399 -1.1657  0.5079
  142SAPE   C3315562   3.150   0.532  10.317 -0.6170  0.6684 -0.3800
  142SAPE   H3X15563   3.209   0.448  10.358  0.6908  0.3949 -2.7096
  142SAPE   H3Y15564   3.220   0.604  10.269 -0.5198  1.4974  0.9858
  142SAPE   C3415565   3.056   0.477  10.217 -0.9991  0.8307 -0.1127
  142SAPE   H4X15566   2.997   0.549  10.156 -0.5067  2.3632  1.1861
  142SAPE   H4Y15567   2.981   0.416  10.272 -1.0042 -0.5088 -1.5943
  142SAPE   C3515568   3.135   0.387  10.118  0.5724  0.4751 -0.1251
  142SAPE   H5X15569   3.104   0.281  10.136 -3.0265  1.1766 -1.7635
  142SAPE   H5Y15570   3.245   0.390  10.134  0.4170 -0.2303  1.2041
  142SAPE   C3615571   3.108   0.426   9.966  0.6883 -0.8900  0.6943
  142SAPE   H6X15572   3.158   0.526   9.963  0.6001 -0.8445  0.7530
  142SAPE   H6Y15573   3.000   0.426   9.944  0.6859 -1.9654  0.6846
  142SAPE   C3715574   3.177   0.341   9.860  0.4402 -0.7407 -0.2870
  142SAPE   H7X15575   3.130   0.240   9.868  0.0981 -0.3948  2.5429
  142SAPE   H7Y15576   3.285   0.342   9.885  0.3716  1.4476 -0.0480
  142SAPE   C3815577   3.154   0.405   9.717 -0.0206  0.6673 -0.0672
  142SAPE   H8X15578   3.164   0.513   9.741 -2.0649  0.2932  2.8599
  142SAPE   H8Y15579   3.047   0.382   9.695  0.1676 -0.3163  0.0270
  142SAPE   C3915580   3.244   0.365   9.602  0.1836 -0.4734 -0.4175
  142SAPE   H9X15581   3.232   0.255   9.590  2.6199 -0.7247 -0.7268
  142SAPE   H9Y15582   3.341   0.406   9.636 -0.2239 -0.1211  0.3341
  142SAPE  C31015583   3.204   0.440   9.471  0.3515  0.3433  0.0032
  142SAPE  H10X15584   3.220   0.545   9.504  0.9105 -0.3085  1.8825
  142SAPE  H10Y15585   3.097   0.421   9.448 -0.7181  1.3356  3.8481
  142SAPE  C31115586   3.294   0.398   9.350 -0.4846  0.4377  0.7496
  142SAPE  H11X15587   3.276   0.458   9.258  1.6668 -0.8036 -0.5082
  142SAPE  H11Y15588   3.271   0.290   9.337 -2.9457  0.8861  1.0012
  142SAPE  C31215589   3.446   0.413   9.377  0.4664 -0.0175 -0.0434
  142SAPE  H12X15590   3.485   0.355   9.464  1.0716 -0.8753 -0.8750
  142SAPE  H12Y15591   3.458   0.523   9.391 -1.1246  0.0719  0.6883
  142SAPE  C31315592   3.525   0.374   9.253 -0.2600 -0.1029 -0.7754
  142SAPE  H13X15593   3.491   0.432   9.164 -2.3838 -2.1516 -1.3516
  142SAPE  H13Y15594   3.508   0.269   9.223 -3.0849  0.0831  0.0577
  142SAPE  C31415595   3.673   0.384   9.300 -0.2112 -0.2945  0.3094
  142SAPE  H14X15596   3.737   0.345   9.218  0.8596  1.3585  0.3463
  142SAPE  H14Y15597   3.679   0.323   9.392  0.8268 -0.8569 -0.1273
  142SAPE  C31515598   3.712   0.525   9.337  0.4398 -0.4931  0.0926
  142SAPE  H15X15599   3.644   0.575   9.409  1.0257  1.3673 -0.6369
  142SAPE  H15Y15600   3.709   0.592   9.249 -1.3701 -0.7029 -0.0357
  142SAPE  C31615601   3.851   0.540   9.392  0.5222 -0.6614 -0.0245
  142SAPE  H16X15602   3.885   0.450   9.448  0.9405 -0.3403  0.2457
  142SAPE  H16Y15603   3.858   0.631   9.455 -2.7527  0.2596 -0.9228
  142SAPE  C31715604   3.948   0.563   9.271 -0.5597 -0.4760 -0.4992
  142SAPE  H17X15605   4.038   0.609   9.318  0.5190  0.8126 -3.7400
  142SAPE  H17Y15606   3.914   0.635   9.194 -1.3122  0.9980  1.1760
  142SAPE  C31815607   3.988   0.438   9.198 -0.0324  0.6370  0.2593
  142SAPE  H18X15608   3.993   0.347   9.261  1.7065 -0.3275 -1.2322
  142SAPE  H18Y15609   4.088   0.455   9.153  0.0089 -1.8255 -0.6515
  142SAPE  H18Z15610   3.915   0.424   9.115 -0.2228 -0.2355  0.5647
  143SAPE     N15611   4.363   1.385  10.826 -0.1008  0.0884 -0.0134
  143SAPE   HN115612   4.398   1.461  10.888 -0.0548  0.2241 -0.2045
  143SAPE   HN215613   4.440   1.319  10.802  2.1801  0.9689  4.2150
  143SAPE   HN315614   4.328   1.421  10.736 -0.4898  1.2203  0.5809
  143SAPE   C1215615   4.259   1.338  10.920 -0.3364 -0.4019 -0.3091
  143SAPE  H12A15616   4.203   1.250  10.882  1.6426 -0.2199 -3.8164
  143SAPE  H12B15617   4.175   1.410  10.927  0.8827  0.8793  1.4182
  143SAPE   C1115618   4.321   1.319  11.060 -0.2781  0.5877 -0.0187
  143SAPE  H11A15619   4.246   1.284  11.134  0.4530  2.0119  1.4402
  143SAPE  H11B15620   4.352   1.417  11.103  0.6162 -0.1892  1.1200
  143SAPE     P15621   4.407   1.076  11.033 -0.2483  0.4455  0.5861
  143SAPE   O1315622   4.525   1.013  11.090 -0.3691  0.0204  0.0985
  143SAPE   O1415623   4.279   1.029  11.089  0.0895 -0.1416 -0.3110
  143SAPE   O1215624   4.428   1.231  11.054 -0.3775  0.0211 -0.5018
  143SAPE   O1115625   4.418   1.066  10.881  0.5300 -0.3717 -0.0960
  143SAPE    C115626   4.470   0.950  10.812 -0.1893 -0.2635 -0.4564
  143SAPE    HA15627   4.564   0.923  10.864 -0.6829 -0.0596  0.5412
  143SAPE    HB15628   4.416   0.855  10.832 -2.6170  1.2789  0.4658
  143SAPE    C215629   4.484   0.962  10.664 -0.4735 -0.5107 -0.1937
  143SAPE    HS15630   4.541   1.057  10.652  1.4172 -1.5582  0.2938
  143SAPE   O2115631   4.353   0.962  10.606 -0.3096 -0.1286 -0.1100
  143SAPE   C2115632   4.294   1.081  10.600 -0.1047 -0.5624 -0.4692
  143SAPE   O2215633   4.347   1.185  10.624 -0.2431  0.2708  0.6224
  143SAPE   C2215634   4.155   1.065  10.542  0.1458 -0.3252 -0.4292
  143SAPE   H2R15635   4.141   0.956  10.525 -1.4553  0.2148 -2.9155
  143SAPE   H2S15636   4.079   1.091  10.618 -1.8280  0.9794 -2.7913
  143SAPE    C315637   4.569   0.844  10.611  0.1935 -0.1097 -0.1700
  143SAPE    HX15638   4.525   0.749  10.648  0.0512  0.0669  0.1180
  143SAPE    HY15639   4.669   0.838  10.660 -0.3447  0.0959  0.9593
  143SAPE   O3115640   4.586   0.841  10.467  0.3138 -0.2667 -0.2887
  143SAPE   C3115641   4.530   0.750  10.398  0.4271 -1.1879 -0.7376
  143SAPE   O3215642   4.457   0.656  10.431  0.3187 -0.7001 -0.3463
  143SAPE   C3215643   4.541   0.802  10.253 -0.6538 -0.2147  0.1437
  143SAPE   H2X15644   4.648   0.825  10.234 -0.8123  0.5754  0.1694
  143SAPE   H2Y15645   4.499   0.902  10.229 -1.2090 -0.3972  0.3532
  143SAPE   C2315646   4.153   1.143  10.409 -0.6184 -0.3384 -0.1716
  143SAPE   H3R15647   4.173   1.249  10.437 -0.5515 -0.7273  1.2945
  143SAPE   H3S15648   4.050   1.146  10.366 -0.8713  1.6313  0.5074
  143SAPE   C2415649   4.248   1.093  10.297  0.0424 -0.3835  0.3244
  143SAPE   H4R15650   4.353   1.083  10.332  0.4110 -1.1937 -0.9933
  143SAPE   H4S15651   4.251   1.174  10.221 -1.4625 -0.1749  0.4617
  143SAPE   C2515652   4.227   0.958  10.235 -0.0430 -0.4829  0.4408
  143SAPE   H5R15653   4.221   0.877  10.310  2.1605  1.4412  2.7826
  143SAPE   C2615654   4.227   0.933  10.098 -0.3336 -0.1251  0.1386
  143SAPE   H6R15655   4.222   0.827  10.070 -2.3632  0.5884 -2.4015
  143SAPE   C2715656   4.252   1.033   9.982  0.1503  0.9786  0.4666
  143SAPE   H7R15657   4.167   1.102   9.997 -2.4271 -2.6508  3.5234
  143SAPE   H7S15658   4.245   0.974   9.887  3.4253  2.1595 -0.5963
  143SAPE   C2815659   4.380   1.107   9.984  0.2391  0.0728  0.4893
  143SAPE   H8R15660   4.432   1.114  10.080  1.3652  0.8698 -0.1653
  143SAPE   C2915661   4.438   1.162   9.876  0.5471 -0.0295 -0.0447
  143SAPE   H9R15662   4.531   1.217   9.896  0.2127 -1.0824  5.1063
  143SAPE  C21015663   4.389   1.165   9.735 -0.6489  0.0495  0.6227
  143SAPE  H10R15664   4.281   1.140   9.726 -0.7261 -0.1785  1.9807
  143SAPE  H10S15665   4.445   1.095   9.670 -0.2582  1.0767 -0.1531
  143SAPE  C21115666   4.385   1.303   9.673  0.1983 -0.3782 -0.5110
  143SAPE  H11R15667   4.401   1.386   9.743  1.1486 -0.1308 -1.0100
  143SAPE  C21215668   4.381   1.329   9.541  0.3994 -0.5005  0.1202
  143SAPE  H12R15669   4.381   1.437   9.516  0.2841 -0.4881  0.1750
  143SAPE  C21315670   4.374   1.232   9.423  0.3663  0.1312  0.3204
  143SAPE  H13R15671   4.268   1.210   9.398  0.9712  1.0546 -3.2470
  143SAPE  H13S15672   4.430   1.137   9.438 -0.6270 -0.7282 -1.2477
  143SAPE  C21415673   4.441   1.303   9.312 -0.4975  0.4671  0.8798
  143SAPE  H14R15674   4.550   1.300   9.325 -0.7231 -1.6612  2.6499
  143SAPE  C21515675   4.374   1.339   9.200  0.6494 -0.5650 -0.2269
  143SAPE  H15R15676   4.438   1.395   9.131  2.7114 -1.5743  0.8313
  143SAPE  C21615677   4.224   1.328   9.159  0.7427 -0.2876 -0.0012
  143SAPE  H16R15678   4.200   1.432   9.127  0.0495  0.4862  2.9111
  143SAPE  H16S15679   4.162   1.316   9.251  0.4604  0.7996 -0.0444
  143SAPE  C21715680   4.189   1.225   9.057 -0.0508 -0.2144 -0.1911
  143SAPE  H17R15681   4.253   1.237   8.967 -1.0340  1.2279 -0.7181
  143SAPE  H17S15682   4.086   1.249   9.022  0.4198  1.4683 -0.4846
  143SAPE  C21815683   4.215   1.079   9.110  0.4340  0.1821 -0.1207
  143SAPE  H18R15684   4.166   1.071   9.210  1.6210 -0.3669  0.4308
  143SAPE  H18S15685   4.325   1.070   9.127  0.2043 -0.6640  0.9865
  143SAPE  C21915686   4.166   0.962   9.023 -0.1981  0.2062  0.1515
  143SAPE  H19R15687   4.212   0.970   8.922  1.4855 -0.4959  0.8391
  143SAPE  H19S15688   4.055   0.955   9.019 -0.1885 -0.7751  1.2654
  143SAPE  C22015689   4.220   0.830   9.067  0.0494  1.2359 -0.6285
  143SAPE  H20R15690   4.185   0.816   9.172 -1.5579  2.3709 -0.9965
  143SAPE  H20S15691   4.331   0.820   9.073  0.0079  0.2456 -1.4157
  143SAPE  H20T15692   4.173   0.742   9.017  1.0690 -0.3220  1.1081
  143SAPE   C3315693   4.499   0.692  10.156  0.1002  0.6854 -0.3816
  143SAPE   H3X15694   4.396   0.654  10.170  1.4374 -2.9122  0.3009
  143SAPE   H3Y15695   4.555   0.605  10.199  0.2608 -0.4068 -2.7061
  143SAPE   C3415696   4.544   0.703  10.008  0.0767 -0.8074 -0.5022
  143SAPE   H4X15697   4.648   0.743  10.010  0.6902 -2.2953 -1.4913
  143SAPE   H4Y15698   4.471   0.768   9.955  1.1160 -0.6040 -1.7384
  143SAPE   C3515699   4.549   0.571   9.931  0.9170  0.4340 -0.0203
  143SAPE   H5X15700   4.606   0.496   9.990 -0.1188  0.5172  1.1154
  143SAPE   H5Y15701   4.601   0.588   9.835  1.4444 -0.8352  0.0377
  143SAPE   C3615702   4.406   0.515   9.901 -0.0632 -0.2366  0.0014
  143SAPE   H6X15703   4.356   0.595   9.842  1.6652 -0.3808 -1.7027
  143SAPE   H6Y15704   4.356   0.507  10.000 -0.7649  1.3061 -0.2057
  143SAPE   C3715705   4.401   0.391   9.813 -0.3194 -0.2078  0.0701
  143SAPE   H7X15706   4.297   0.354   9.819  0.4464 -2.5132 -0.1435
  143SAPE   H7Y15707   4.464   0.308   9.852  0.0031 -0.1555 -0.3338
  143SAPE   C3815708   4.430   0.423   9.668 -0.2158  0.3136 -0.0878
  143SAPE   H8X15709   4.537   0.410   9.640  0.0005  0.8636  0.4832
  143SAPE   H8Y15710   4.403   0.529   9.651  0.0740  0.3075 -0.5798
  143SAPE   C3915711   4.348   0.334   9.573  0.0912  0.3489  0.5734
  143SAPE   H9X15712   4.244   0.326   9.611  0.7279 -1.1226  2.0458
  143SAPE   H9Y15713   4.396   0.236   9.553  1.5768  1.0476  0.6835
  143SAPE  C31015714   4.350   0.399   9.430 -0.0171  0.1894  0.2583
  143SAPE  H10X15715   4.301   0.498   9.428  0.1113  0.2385 -0.4729
  143SAPE  H10Y15716   4.275   0.341   9.372  1.1012 -0.6699 -0.3515
  143SAPE  C31115717   4.491   0.399   9.363  0.8131 -0.0741 -0.4336
  143SAPE  H11X15718   4.539   0.301   9.386  2.1170  0.0354 -2.6006
  143SAPE  H11Y15719   4.550   0.474   9.419  1.5711  0.6797 -2.2122
  143SAPE  C31215720   4.493   0.423   9.209  1.0970  0.2078  1.0898
  143SAPE  H12X15721   4.443   0.520   9.187 -3.0480 -2.0960 -0.1190
  143SAPE  H12Y15722   4.426   0.351   9.157 -1.2985  3.5383 -0.6705
  143SAPE  C31315723   4.631   0.413   9.142  0.0841 -0.1462  0.6838
  143SAPE  H13X15724   4.676   0.312   9.157  0.8406  0.0548 -0.1619
  143SAPE  H13Y15725   4.707   0.473   9.196 -0.6853  1.9094 -0.4452
  143SAPE  C31415726   4.629   0.476   8.998 -0.6314 -0.5978  0.4207
  143SAPE  H14X15727   4.564   0.428   8.921 -0.6980 -0.9987  0.7252
  143SAPE  H14Y15728   4.731   0.451   8.962 -1.3677 -3.1571 -0.0311
  143SAPE  C31515729   4.604   0.629   8.987  0.8339  0.5877  0.3249
  143SAPE  H15X15730   4.647   0.682   9.075  0.1428  0.9540  0.4501
  143SAPE  H15Y15731   4.494   0.640   8.996  0.8220  1.7451 -1.0638
  143SAPE  C31615732   4.642   0.681   8.848  0.3246  0.3616  0.3712
  143SAPE  H16X15733   4.738   0.640   8.809 -0.6158 -0.0448 -1.6037
  143SAPE  H16Y15734   4.664   0.789   8.860 -1.5870  1.1599 -2.8440
  143SAPE  C31715735   4.532   0.671   8.745 -0.2983 -0.1587  0.4605
  143SAPE  H17X15736   4.442   0.717   8.790  0.6323  3.8213 -1.5740
  143SAPE  H17Y15737   4.505   0.568   8.715  2.5479 -0.8304  0.0088
  143SAPE  C31815738   4.570   0.741   8.615  0.5940  0.0184 -0.3701
  143SAPE  H18X15739   4.572   0.851   8.627  0.1169  0.0444 -0.4820
  143SAPE  H18Y15740   4.486   0.721   8.544 -0.1312  1.7423 -0.0220
  143SAPE  H18Z15741   4.666   0.699   8.580  0.6044 -2.6825  2.6973
  144SAPE     N15742   1.091   5.037  10.988 -0.6788 -0.6004  0.0597
  144SAPE   HN115743   1.185   5.000  11.012 -0.3221 -0.6744 -1.3984
  144SAPE   HN215744   1.063   5.108  11.058  2.3171  1.7324 -0.9855
  144SAPE   HN315745   1.031   4.953  10.994 -0.4563 -0.8460 -0.9895
  144SAPE   C1215746   1.093   5.094  10.853  0.3152 -0.1397  0.3600
  144SAPE  H12A15747   1.014   5.172  10.853  1.4495  1.0249  0.4113
  144SAPE  H12B15748   1.060   5.009  10.789  0.2643  0.4533 -0.4116
  144SAPE   C1115749   1.231   5.150  10.818  0.1210 -0.6859 -0.0014
  144SAPE  H11A15750   1.232   5.188  10.714  0.0967 -1.0730 -0.1452
  144SAPE  H11B15751   1.310   5.074  10.838  1.8523  1.1332  0.2186
  144SAPE     P15752   1.212   5.406  10.871 -0.4126 -0.1442  0.4251
  144SAPE   O1315753   1.064   5.408  10.872 -0.2396 -0.6589  0.3802
  144SAPE   O1415754   1.281   5.499  10.959 -0.2350  0.5253 -0.2257
  144SAPE   O1215755   1.255   5.260  10.911 -0.0798  0.4286 -0.0293
  144SAPE   O1115756   1.262   5.423  10.722 -0.2462 -0.7754 -0.6159
  144SAPE    C115757   1.244   5.551  10.655  0.0073  0.2475  0.4279
  144SAPE    HA15758   1.195   5.632  10.714  2.8963  2.6084 -0.2834
  144SAPE    HB15759   1.345   5.593  10.633 -0.1570 -0.6950 -2.3181
  144SAPE    C215760   1.177   5.524  10.518  0.1592 -0.0495  0.4809
  144SAPE    HS15761   1.069   5.515  10.540 -0.0432  3.0631  0.9521
  144SAPE   O2115762   1.221   5.400  10.463  0.3980  0.0406  0.1877
  144SAPE   C2115763   1.342   5.404  10.413  0.7326 -0.6510 -0.0266
  144SAPE   O2215764   1.423   5.497  10.426 -0.3150 -0.2181 -0.2048
  144SAPE   C2215765   1.377   5.270  10.352  0.0977  0.2370  0.0730
  144SAPE   H2R15766   1.433   5.222  10.435  0.4477 -0.0968 -0.3544
  144SAPE   H2S15767   1.283   5.222  10.318  0.9131  0.0264 -1.9622
  144SAPE    C315768   1.183   5.648  10.426 -0.7938 -0.9119  0.0221
  144SAPE    HX15769   1.291   5.676  10.427 -1.1707  0.7126 -1.7929
  144SAPE    HY15770   1.129   5.737  10.465  2.5575  1.1018  0.2922
  144SAPE   O3115771   1.148   5.612  10.283 -0.5144  0.1361 -0.4683
  144SAPE   C3115772   1.024   5.624  10.259 -0.0216 -0.7836 -0.1261
  144SAPE   O3215773   0.934   5.652  10.342 -0.4855  0.1044 -0.7055
  144SAPE   C3215774   0.995   5.590  10.108  0.5558  0.5016 -0.3606
  144SAPE   H2X15775   0.885   5.576  10.110  0.4614  1.1581 -0.6111
  144SAPE   H2Y15776   1.050   5.500  10.072  0.6682  0.7193 -0.7372
  144SAPE   C2315777   1.477   5.272  10.230 -0.1759 -0.0674  0.6391
  144SAPE   H3R15778   1.490   5.169  10.188  0.3537 -1.1279  3.2720
  144SAPE   H3S15779   1.576   5.307  10.268  1.5566 -2.6758 -1.2081
  144SAPE   C2415780   1.448   5.370  10.118  0.3071 -0.3768 -0.6768
  144SAPE   H4R15781   1.524   5.362  10.037 -0.0808  1.1434 -1.1958
  144SAPE   H4S15782   1.455   5.468  10.169  0.6339 -0.3275 -0.8156
  144SAPE   C2515783   1.312   5.357  10.063 -0.2742  0.4515 -0.1880
  144SAPE   H5R15784   1.236   5.349  10.142 -1.1594 -0.8911 -1.1416
  144SAPE   C2615785   1.273   5.346   9.937  1.1575  0.1474 -0.4245
  144SAPE   H6R15786   1.166   5.332   9.921  0.9951 -3.3261  2.9433
  144SAPE   C2715787   1.361   5.346   9.812  0.0889 -0.6230 -0.3432
  144SAPE   H7R15788   1.467   5.345   9.843  0.3830  0.3809 -1.3024
  144SAPE   H7S15789   1.341   5.440   9.756  1.1403  0.7217  1.4768
  144SAPE   C2815790   1.336   5.224   9.724  0.0909  0.1060  0.6188
  144SAPE   H8R15791   1.298   5.129   9.763 -0.8331 -0.8045 -2.3518
  144SAPE   C2915792   1.336   5.237   9.588 -0.2622 -0.5836 -0.0919
  144SAPE   H9R15793   1.307   5.162   9.513 -2.4059 -0.8428  0.9622
  144SAPE  C21015794   1.350   5.372   9.516 -0.1983 -0.1670 -0.2858
  144SAPE  H10R15795   1.410   5.349   9.426  0.8400 -0.5731  0.5023
  144SAPE  H10S15796   1.401   5.455   9.571 -1.4261  0.9340 -0.7662
  144SAPE  C21115797   1.211   5.406   9.488  0.3830 -0.2068 -0.5665
  144SAPE  H11R15798   1.162   5.450   9.576  0.5937  0.3343 -0.7202
  144SAPE  C21215799   1.136   5.386   9.373 -0.3016  0.1874 -0.5144
  144SAPE  H12R15800   1.032   5.422   9.367  0.1107  1.5894  0.7088
  144SAPE  C21315801   1.196   5.322   9.249 -0.1211 -0.0461 -0.2031
  144SAPE  H13R15802   1.197   5.211   9.248  1.0117 -0.0422 -0.1197
  144SAPE  H13S15803   1.305   5.342   9.252  0.0386 -1.1375  2.5875
  144SAPE  C21415804   1.128   5.356   9.119  0.7743  1.0187  0.3008
  144SAPE  H14R15805   1.018   5.350   9.122  0.7396  1.4578 -0.0632
  144SAPE  C21515806   1.187   5.388   8.997  0.7402  0.0544 -0.2749
  144SAPE  H15R15807   1.124   5.410   8.910  0.8489 -4.0797 -1.4775
  144SAPE  C21615808   1.335   5.402   8.968 -0.0604 -0.7491  0.4101
  144SAPE  H16R15809   1.363   5.312   8.908 -0.8975 -0.5169 -0.3607
  144SAPE  H16S15810   1.399   5.397   9.058 -0.3745  0.7607  0.7225
  144SAPE  C21715811   1.366   5.532   8.887  0.0922  0.2163  0.8351
  144SAPE  H17R15812   1.460   5.582   8.916 -1.2552  2.1541  1.9975
  144SAPE  H17S15813   1.282   5.604   8.897  0.1849  0.2529  1.3927
  144SAPE  C21815814   1.381   5.502   8.734  0.2509  0.0552 -0.5663
  144SAPE  H18R15815   1.382   5.600   8.683 -1.2322  0.0780 -0.5552
  144SAPE  H18S15816   1.309   5.423   8.705  1.4132 -2.4069  2.9231
  144SAPE  C21915817   1.520   5.438   8.717 -0.1053  0.4497  0.2590
  144SAPE  H19R15818   1.518   5.334   8.758 -1.7007  0.7135  0.9214
  144SAPE  H19S15819   1.589   5.499   8.780  0.3278  0.3772 -0.1486
  144SAPE  C22015820   1.569   5.443   8.574 -0.3769 -0.0142  0.4580
  144SAPE  H20R15821   1.479   5.418   8.515 -0.9171  2.8960 -0.0313
  144SAPE  H20S15822   1.640   5.365   8.539 -1.5195 -0.6606 -0.4697
  144SAPE  H20T15823   1.602   5.547   8.551 -1.8793  0.4344  0.3015
  144SAPE   C3315824   1.014   5.696   9.988 -0.0697 -0.6061 -0.3258
  144SAPE   H3X15825   1.121   5.721   9.973 -0.9128  1.0392 -4.3061
  144SAPE   H3Y15826   0.958   5.787  10.018 -0.0092 -0.9887  0.9897
  144SAPE   C3415827   0.946   5.655   9.858 -0.1314  0.0197  0.2333
  144SAPE   H4X15828   0.840   5.689   9.854 -0.1955  0.2557  2.9879
  144SAPE   H4Y15829   0.941   5.545   9.852  4.2827 -0.2319 -1.0275
  144SAPE   C3515830   1.009   5.712   9.737  0.1011  0.1080 -0.1706
  144SAPE   H5X15831   1.114   5.680   9.721 -0.4145 -2.9181  2.1244
  144SAPE   H5Y15832   1.020   5.819   9.765 -0.2661  0.1727 -0.2753
  144SAPE   C3615833   0.933   5.681   9.607 -0.1311 -0.2681 -0.5099
  144SAPE   H6X15834   0.827   5.712   9.615 -0.1336 -0.6158  0.9761
  144SAPE   H6Y15835   0.933   5.571   9.590 -2.7184 -0.2052 -1.1537
  144SAPE   C3715836   1.003   5.735   9.482  0.2317  0.4697 -0.1815
  144SAPE   H7X15837   1.090   5.673   9.455  1.4016  0.2393  3.8300
  144SAPE   H7Y15838   1.049   5.835   9.495  0.0290  0.3839  1.2982
  144SAPE   C3815839   0.907   5.729   9.356 -0.1596  0.4331 -0.5834
  144SAPE   H8X15840   0.812   5.780   9.383  1.0094  1.5477  1.5734
  144SAPE   H8Y15841   0.874   5.625   9.334  1.0020 -1.0017  3.9203
  144SAPE   C3915842   0.971   5.787   9.233  0.2978 -0.4539 -1.1156
  144SAPE   H9X15843   1.072   5.743   9.249 -0.4005 -1.1562  1.6838
  144SAPE   H9Y15844   0.973   5.898   9.230 -0.1833 -0.4237 -0.4724
  144SAPE  C31015845   0.904   5.746   9.096 -0.0526 -0.1802 -0.6112
  144SAPE  H10X15846   0.825   5.820   9.071 -0.3442 -0.9032 -1.8446
  144SAPE  H10Y15847   0.847   5.652   9.108  2.0404 -1.2794  1.2842
  144SAPE  C31115848   0.995   5.724   8.976 -0.2276  0.6293  0.7600
  144SAPE  H11X15849   1.059   5.639   9.008 -0.8094 -0.7710 -1.6477
  144SAPE  H11Y15850   1.068   5.806   8.957  2.0849 -1.4852  0.3278
  144SAPE  C31215851   0.932   5.677   8.842  0.3292  0.3595  0.0018
  144SAPE  H12X15852   0.862   5.756   8.807  2.9114  2.9545  0.5661
  144SAPE  H12Y15853   0.860   5.595   8.864  0.4649  0.3255  0.3128
  144SAPE  C31315854   1.033   5.634   8.733  0.2823  0.7453  0.0374
  144SAPE  H13X15855   1.091   5.548   8.772  1.9127  2.0637  0.5553
  144SAPE  H13Y15856   1.100   5.721   8.719 -2.4032  2.6004 -1.6759
  144SAPE  C31415857   0.961   5.602   8.597  0.3869  0.3072 -0.4384
  144SAPE  H14X15858   0.883   5.679   8.582  0.7047  0.8645  0.7278
  144SAPE  H14Y15859   0.913   5.501   8.600 -1.7540  1.3188 -0.1265
  144SAPE  C31515860   1.049   5.608   8.473 -0.4494  0.1600 -0.2075
  144SAPE  H15X15861   1.127   5.530   8.481 -0.2157  0.5027  0.9033
  144SAPE  H15Y15862   1.110   5.701   8.477  1.4514 -1.1477  1.9447
  144SAPE  C31615863   0.983   5.606   8.331  0.9257  0.1845 -0.6667
  144SAPE  H16X15864   1.060   5.610   8.252  1.7084  3.1572  0.1693
  144SAPE  H16Y15865   0.918   5.695   8.318  1.7689  0.7625 -0.9868
  144SAPE  C31715866   0.876   5.488   8.314 -0.4830  0.6041 -0.6652
  144SAPE  H17X15867   0.791   5.496   8.386  0.9065  3.9973  0.7379
  144SAPE  H17Y15868   0.933   5.397   8.345  0.8074  1.5743 -0.1135
  144SAPE  C31815869   0.839   5.471   8.168  0.3236  0.4970 -0.4505
  144SAPE  H18X15870   0.863   5.565   8.114  1.1612 -0.0710 -1.0854
  144SAPE  H18Y15871   0.732   5.445   8.159  0.3231 -0.6903  2.4058
  144SAPE  H18Z15872   0.891   5.384   8.122  0.2475  0.0950  0.2202
  145SAPE     N15873   5.077   6.592  11.473  0.1959 -0.1549  0.4335
  145SAPE   HN115874   4.996   6.526  11.477  0.4938 -0.5488 -0.0788
  145SAPE   HN215875   5.048   6.657  11.398  3.1821  0.4520 -0.2689
  145SAPE   HN315876   5.162   6.547  11.435 -0.0606  0.9899 -1.5285
  145SAPE   C1215877   5.089   6.652  11.612 -0.0863  0.8626 -0.9236
  145SAPE  H12A15878   5.175   6.598  11.657 -0.6997  1.9072  1.5978
  145SAPE  H12B15879   4.995   6.640  11.670  0.8003  0.2413  0.4039
  145SAPE   C1115880   5.124   6.799  11.584 -0.3318  0.0650 -0.1299
  145SAPE  H11A15881   5.229   6.802  11.549 -0.4983  1.2623 -0.5237
  145SAPE  H11B15882   5.121   6.854  11.680  2.2565  0.5528 -0.2980
  145SAPE     P15883   5.044   6.912  11.350 -0.0070  0.0012  0.0519
  145SAPE   O1315884   4.944   7.012  11.313  0.6480  0.6951 -0.4796
  145SAPE   O1415885   5.180   6.944  11.314  1.1266  0.6847  0.0363
  145SAPE   O1215886   5.027   6.855  11.496 -0.3506 -0.3119  0.1724
  145SAPE   O1115887   5.015   6.768  11.282 -0.3555  0.1594  0.0416
  145SAPE    C115888   4.911   6.742  11.187  0.0468  0.1033 -0.1927
  145SAPE    HA15889   4.874   6.638  11.199  0.9461 -0.3627 -1.4195
  145SAPE    HB15890   4.821   6.804  11.207  0.6444  1.7771 -2.4450
  145SAPE    C215891   4.961   6.783  11.042  0.4192  0.0482 -0.5058
  145SAPE    HS15892   5.001   6.886  11.039 -0.6846  0.5122  0.6528
  145SAPE   O2115893   4.861   6.746  10.940  0.2299  0.0237  0.0897
  145SAPE   C2115894   4.760   6.831  10.931 -0.1337  0.7179 -0.5364
  145SAPE   O2215895   4.743   6.927  11.010  0.9040 -0.2518  0.0817
  145SAPE   C2215896   4.669   6.802  10.807  0.3865 -0.0660  0.3205
  145SAPE   H2R15897   4.725   6.816  10.712  1.7860  3.1591  1.5313
  145SAPE   H2S15898   4.633   6.698  10.817  1.4358 -0.4446  0.2165
  145SAPE    C315899   5.094   6.720  11.010  0.2323  0.0601  0.4606
  145SAPE    HX15900   5.091   6.618  11.054  0.2204 -0.1755 -0.0852
  145SAPE    HY15901   5.171   6.770  11.073  0.8924 -1.8402  1.2158
  145SAPE   O3115902   5.127   6.718  10.869  0.5555  0.3287 -0.0988
  145SAPE   C3115903   5.107   6.603  10.797 -0.6428 -0.4039 -0.3168
  145SAPE   O3215904   5.050   6.500  10.834 -0.0601 -0.3551  0.3237
  145SAPE   C3215905   5.185   6.617  10.668 -0.4690  0.4205  0.5750
  145SAPE   H2X15906   5.207   6.514  10.632 -0.6335  0.5445  0.1224
  145SAPE   H2Y15907   5.286   6.658  10.692 -0.7780 -0.7556  4.1583
  145SAPE   C2315908   4.541   6.885  10.816  1.2128  0.1409  0.3613
  145SAPE   H3R15909   4.574   6.989  10.834  2.1811 -0.0158 -0.4978
  145SAPE   H3S15910   4.494   6.853  10.912  1.2315 -0.8574  0.0449
  145SAPE   C2415911   4.454   6.892  10.684  0.5842  0.2969 -0.2292
  145SAPE   H4R15912   4.425   6.794  10.641 -2.2917  0.6663  0.7722
  145SAPE   H4S15913   4.516   6.939  10.604 -1.2333  0.2652 -1.6875
  145SAPE   C2515914   4.332   6.979  10.713  0.1119 -0.0334  0.6141
  145SAPE   H5R15915   4.317   7.023  10.813  3.9135  0.1954  1.1559
  145SAPE   C2615916   4.260   7.033  10.611 -0.9593  1.0145  0.6018
  145SAPE   H6R15917   4.177   7.102  10.633 -0.9802  1.2463 -0.1708
  145SAPE   C2715918   4.273   7.010  10.459 -0.2597  0.2347  0.1040
  145SAPE   H7R15919   4.167   6.992  10.432 -0.2249  0.3217 -0.0965
  145SAPE   H7S15920   4.327   6.918  10.427 -1.5586  0.4128 -2.7912
  145SAPE   C2815921   4.345   7.119  10.386  0.2394  0.2883  0.0675
  145SAPE   H8R15922   4.451   7.128  10.415 -0.1844 -1.2451  2.1826
  145SAPE   C2915923   4.287   7.215  10.309  0.1153 -0.1668 -0.6131
  145SAPE   H9R15924   4.362   7.289  10.275  0.5961 -0.2175  0.3256
  145SAPE  C21015925   4.133   7.226  10.303  0.3664  0.3763  0.5208
  145SAPE  H10R15926   4.092   7.200  10.403  1.4274 -1.9951  0.3878
  145SAPE  H10S15927   4.089   7.143  10.242  0.2037 -1.0724  2.5512
  145SAPE  C21115928   4.064   7.354  10.261  0.5875 -0.4295  0.0110
  145SAPE  H11R15929   4.045   7.430  10.339  1.8715 -0.3032  0.2218
  145SAPE  C21215930   4.037   7.385  10.134  0.7489  0.2261 -0.4543
  145SAPE  H12R15931   3.995   7.485  10.117  2.4264  0.4804 -3.3448
  145SAPE  C21315932   4.054   7.274  10.025  0.5109 -1.0456  0.7306
  145SAPE  H13R15933   3.997   7.188  10.065 -1.3419  0.2887  1.0586
  145SAPE  H13S15934   4.160   7.242  10.016  1.3831  1.4714  1.5949
  145SAPE  C21415935   4.009   7.323   9.891  0.0208  0.5437 -0.9982
  145SAPE  H14R15936   4.029   7.431   9.880  0.3163  0.6223  0.2599
  145SAPE  C21515937   3.951   7.252   9.793  0.3550  0.1042  0.0104
  145SAPE  H15R15938   3.916   7.296   9.699 -0.4128 -1.7921 -0.6242
  145SAPE  C21615939   3.903   7.106   9.802 -0.7662  0.2288 -0.5438
  145SAPE  H16R15940   3.802   7.091   9.756 -1.0078 -0.3856  0.1621
  145SAPE  H16S15941   3.902   7.058   9.902 -1.1964 -0.6108 -0.9353
  145SAPE  C21715942   3.996   7.005   9.728  0.4491 -0.5998 -0.3048
  145SAPE  H17R15943   3.953   6.904   9.744 -1.2351  0.5603  3.0574
  145SAPE  H17S15944   4.099   7.014   9.768  0.1451  1.1174  0.1540
  145SAPE  C21815945   3.999   7.019   9.581  0.3464 -0.2487  0.7406
  145SAPE  H18R15946   4.023   7.125   9.558  0.8023 -0.1335  1.7448
  145SAPE  H18S15947   3.894   7.004   9.547  0.8754 -2.6269  0.0674
  145SAPE  C21915948   4.097   6.927   9.505  1.0258  0.3045 -0.1079
  145SAPE  H19R15949   4.184   6.908   9.571 -1.9765 -0.9962  3.6777
  145SAPE  H19S15950   4.122   6.976   9.408 -2.1074  0.8235 -0.7116
  145SAPE  C22015951   4.026   6.792   9.463  0.5190 -0.3798 -0.6908
  145SAPE  H20R15952   4.016   6.730   9.555  1.5868 -0.3735 -0.5646
  145SAPE  H20S15953   4.081   6.735   9.385  0.6866 -0.0724 -0.7961
  145SAPE  H20T15954   3.924   6.820   9.429  0.9940  1.5896 -0.5626
  145SAPE   C3315955   5.098   6.690  10.555 -0.0564  0.0668 -0.1575
  145SAPE   H3X15956   5.054   6.781  10.601 -1.4708 -1.1351  0.9351
  145SAPE   H3Y15957   5.013   6.630  10.515 -0.1180  0.0353  0.0206
  145SAPE   C3415958   5.181   6.730  10.432 -0.0453  0.6334 -0.1447
  145SAPE   H4X15959   5.221   6.631  10.399 -1.8038 -0.2390  0.2789
  145SAPE   H4Y15960   5.265   6.795  10.465 -1.7063  3.3751 -1.1835
  145SAPE   C3515961   5.101   6.802  10.325  0.0487  1.2188  0.6107
  145SAPE   H5X15962   5.058   6.892  10.373 -1.0310  0.6432  0.7351
  145SAPE   H5Y15963   5.013   6.740  10.299  1.4528 -1.0974  1.2161
  145SAPE   C3615964   5.191   6.849  10.206 -1.2543  0.3594  0.2389
  145SAPE   H6X15965   5.265   6.769  10.183 -0.0797  1.5818 -0.3131
  145SAPE   H6Y15966   5.245   6.940  10.240  0.7587 -0.4937 -0.6126
  145SAPE   C3715967   5.130   6.864  10.067  0.5133  0.4739 -0.3434
  145SAPE   H7X15968   5.041   6.929  10.075 -1.6660 -2.4782  0.2319
  145SAPE   H7Y15969   5.094   6.764  10.036  1.4101 -0.1976  0.6856
  145SAPE   C3815970   5.221   6.931   9.962 -0.1209  0.5027 -0.3886
  145SAPE   H8X15971   5.311   6.866   9.950 -1.6145 -1.5400 -0.7485
  145SAPE   H8Y15972   5.269   7.021  10.005  0.4600 -0.2028  0.4688
  145SAPE   C3915973   5.142   6.933   9.834 -0.1980 -0.9913 -0.5023
  145SAPE   H9X15974   5.079   7.025   9.831  3.7671  1.9610  2.0329
  145SAPE   H9Y15975   5.063   6.854   9.829  0.9969 -2.2017 -0.3752
  145SAPE  C31015976   5.239   6.921   9.715 -0.6637  0.7565 -0.9719
  145SAPE  H10X15977   5.288   6.822   9.716 -0.6961  0.6840 -3.1156
  145SAPE  H10Y15978   5.315   7.003   9.712 -0.5506  0.7610  1.3870
  145SAPE  C31115979   5.172   6.948   9.583 -0.0943 -0.4475 -0.6387
  145SAPE  H11X15980   5.124   7.047   9.577  1.6192  0.5624  1.5935
  145SAPE  H11Y15981   5.106   6.860   9.566 -1.9131  0.8737 -0.5488
  145SAPE  C31215982   5.273   6.936   9.468  0.8683  0.7471  0.4183
  145SAPE  H12X15983   5.323   6.838   9.483 -0.2377  0.4779  2.4300
  145SAPE  H12Y15984   5.332   7.029   9.483  0.3368  1.1088  0.2883
  145SAPE  C31315985   5.209   6.960   9.332 -0.5413 -0.6379  0.5137
  145SAPE  H13X15986   5.157   7.058   9.333 -1.3717 -1.0673  0.1572
  145SAPE  H13Y15987   5.128   6.889   9.305 -0.8633  0.2898 -0.9998
  145SAPE  C31415988   5.304   6.959   9.211 -1.0753 -0.1543 -0.5065
  145SAPE  H14X15989   5.370   6.871   9.222  1.5466  1.6830 -1.1587
  145SAPE  H14Y15990   5.364   7.052   9.219 -0.0970 -0.8839  0.7475
  145SAPE  C31515991   5.230   6.948   9.077 -1.1689  0.3369 -0.3445
  145SAPE  H15X15992   5.188   6.847   9.056 -1.7336  0.8320 -1.6195
  145SAPE  H15Y15993   5.301   6.961   8.992  0.1830  0.6164  0.7977
  145SAPE  C31615994   5.132   7.060   9.059  0.8840 -0.0271 -0.1679
  145SAPE  H16X15995   5.129   7.078   8.950  1.0153 -0.8422 -0.3101
  145SAPE  H16Y15996   5.171   7.154   9.104 -0.7264  0.9932 -0.8553
  145SAPE  C31715997   4.982   7.036   9.092  0.0074  0.0985 -0.7404
  145SAPE  H17X15998   4.936   7.137   9.086  1.0615  0.5869 -0.7813
  145SAPE  H17Y15999   4.975   7.003   9.198 -1.5961 -1.0864 -1.1971
  145SAPE  C31816000   4.924   6.935   9.008 -0.0396 -0.2812 -0.5973
  145SAPE  H18X16001   4.925   6.967   8.902 -1.4575 -0.9691 -0.8425
  145SAPE  H18Y16002   4.823   6.909   9.048  0.8676 -0.4757  1.6471
  145SAPE  H18Z16003   4.977   6.838   9.022  0.0118 -0.2729 -0.7399
  146SAPE     N16004   2.641   6.182  11.195  0.2254 -0.5884  0.0349
  146SAPE   HN116005   2.727   6.219  11.150  0.6295 -0.3400  1.0036
  146SAPE   HN216006   2.572   6.250  11.158  2.0271  0.3175 -1.7220
  146SAPE   HN316007   2.655   6.194  11.297 -0.3731  3.6044 -0.3056
  146SAPE   C1216008   2.614   6.049  11.131  0.6852 -0.4487  0.0414
  146SAPE  H12A16009   2.543   5.986  11.189  0.2968 -1.5554 -1.6338
  146SAPE  H12B16010   2.712   5.999  11.122  1.5932  1.2050  0.4478
  146SAPE   C1116011   2.543   6.085  10.996 -0.0343  0.0926 -0.9653
  146SAPE  H11A16012   2.546   5.988  10.941  0.3674  1.4886 -3.5064
  146SAPE  H11B16013   2.590   6.167  10.938  1.1575 -0.2471 -0.5006
  146SAPE     P16014   2.355   6.273  11.021 -0.0102 -0.2529  0.2236
  146SAPE   O1316015   2.209   6.275  11.040 -0.0719 -0.0919 -0.1530
  146SAPE   O1416016   2.437   6.348  11.116 -0.4589  0.0804 -0.0765
  146SAPE   O1216017   2.409   6.123  11.025 -0.0662 -0.7863 -0.2468
  146SAPE   O1116018   2.383   6.314  10.869 -0.0562  0.0133  0.1902
  146SAPE    C116019   2.320   6.238  10.766  0.5172  0.0005 -0.2278
  146SAPE    HA16020   2.254   6.164  10.815 -0.3650  1.3040  0.5626
  146SAPE    HB16021   2.269   6.321  10.713  2.6422  0.1729 -2.0674
  146SAPE    C216022   2.427   6.163  10.680  0.5405 -0.1019  0.2001
  146SAPE    HS16023   2.514   6.139  10.745  0.8912 -1.1897 -0.6549
  146SAPE   O2116024   2.464   6.260  10.580  0.0410 -0.2841 -0.2221
  146SAPE   C2116025   2.575   6.227  10.510 -0.3179  0.2559 -0.1090
  146SAPE   O2216026   2.646   6.130  10.529  0.1772  0.6124 -0.4023
  146SAPE   C2216027   2.594   6.327  10.388 -0.3620 -1.0481  0.6095
  146SAPE   H2R16028   2.494   6.364  10.356  0.3924  1.1959  0.8122
  146SAPE   H2S16029   2.649   6.413  10.429  2.9407 -2.5616 -0.5105
  146SAPE    C316030   2.366   6.031  10.612 -0.3444  0.1716  0.4025
  146SAPE    HX16031   2.326   5.967  10.694 -1.2660  0.1362 -0.0653
  146SAPE    HY16032   2.451   5.969  10.576 -0.1736 -1.2028  3.0326
  146SAPE   O3116033   2.260   6.055  10.514 -0.0197  0.4157 -0.1289
  146SAPE   C3116034   2.300   6.059  10.393  0.8984 -0.0495  0.4735
  146SAPE   O3216035   2.416   6.041  10.360  0.2351  0.4317 -0.1660
  146SAPE   C3216036   2.180   6.060  10.293  0.5850  1.0375  0.1899
  146SAPE   H2X16037   2.116   6.149  10.308 -0.7258  0.1725 -0.1096
  146SAPE   H2Y16038   2.109   5.978  10.321  0.9491  1.4320  2.4116
  146SAPE   C2316039   2.672   6.258  10.279 -0.7502 -0.3941  0.2751
  146SAPE   H3R16040   2.621   6.166  10.244  0.0940 -0.4385 -0.8458
  146SAPE   H3S16041   2.760   6.218  10.333 -1.1580 -0.5974  0.8040
  146SAPE   C2416042   2.726   6.351  10.167  0.6779 -0.1225  0.5976
  146SAPE   H4R16043   2.640   6.406  10.123  0.1021 -2.7374 -1.7032
  146SAPE   H4S16044   2.774   6.296  10.083 -0.5104  0.0135 -0.1854
  146SAPE   C2516045   2.832   6.454  10.217  0.6233  0.0024 -0.2557
  146SAPE   H5R16046   2.864   6.433  10.320 -0.3763  0.7133  0.2165
  146SAPE   C2616047   2.867   6.568  10.157 -0.2298 -0.6784  0.0032
  146SAPE   H6R16048   2.951   6.624  10.201 -1.6588  2.2501 -0.8528
  146SAPE   C2716049   2.818   6.619  10.024 -0.0036 -0.3342 -0.2636
  146SAPE   H7R16050   2.711   6.597  10.004 -0.2105 -0.7546  1.2370
  146SAPE   H7S16051   2.878   6.555   9.956  2.4425  1.5111  0.0508
  146SAPE   C2816052   2.836   6.766   9.996 -0.5567  1.4987  0.0514
  146SAPE   H8R16053   2.761   6.831  10.043 -1.6856 -1.4525  2.5269
  146SAPE   C2916054   2.949   6.818   9.940  0.2991  0.3442  0.8212
  146SAPE   H9R16055   2.951   6.928   9.936  1.0165  0.3616  1.6534
  146SAPE  C21016056   3.068   6.741   9.900 -0.6122 -0.3964 -0.6296
  146SAPE  H10R16057   3.083   6.747   9.790  1.8326  0.8466 -0.2642
  146SAPE  H10S16058   3.056   6.633   9.926 -0.5161 -0.2388  0.0776
  146SAPE  C21116059   3.202   6.784   9.956 -0.2034 -0.4161 -0.0199
  146SAPE  H11R16060   3.202   6.785  10.066  0.7835 -2.6360  0.0337
  146SAPE  C21216061   3.313   6.807   9.887  0.6634  0.4878  0.3479
  146SAPE  H12R16062   3.394   6.837   9.955  2.3475 -2.5043 -0.2112
  146SAPE  C21316063   3.342   6.799   9.737 -0.7081 -0.8199 -0.1739
  146SAPE  H13R16064   3.272   6.879   9.702 -0.3625 -0.0785  0.7882
  146SAPE  H13S16065   3.305   6.696   9.721 -2.0173 -0.5087  0.7262
  146SAPE  C21416066   3.480   6.832   9.697 -0.4850 -0.6291  0.2670
  146SAPE  H14R16067   3.555   6.857   9.774 -2.5755  3.2345  1.1849
  146SAPE  C21516068   3.528   6.829   9.569 -0.6619 -0.2000 -0.3012
  146SAPE  H15R16069   3.637   6.831   9.556 -0.9503 -1.3915 -3.2092
  146SAPE  C21616070   3.448   6.790   9.448  0.3195  0.1166  0.0786
  146SAPE  H16R16071   3.390   6.873   9.402  1.1083  0.6182 -0.0077
  146SAPE  H16S16072   3.379   6.711   9.484  0.2520  0.2559  0.2586
  146SAPE  C21716073   3.534   6.725   9.340 -0.1945 -0.0198 -0.9838
  146SAPE  H17R16074   3.478   6.674   9.259 -2.7288  1.9222 -0.5204
  146SAPE  H17S16075   3.603   6.644   9.370  0.3960  0.7409 -0.2611
  146SAPE  C21816076   3.616   6.826   9.254 -0.8502  0.6837 -0.1906
  146SAPE  H18R16077   3.676   6.884   9.328 -1.9630 -0.6919  1.8415
  146SAPE  H18S16078   3.538   6.888   9.206 -0.0205  2.4729  0.7031
  146SAPE  C21916079   3.708   6.762   9.150  0.0993 -0.1511 -0.5019
  146SAPE  H19R16080   3.793   6.715   9.204  0.2562 -0.1403 -0.7364
  146SAPE  H19S16081   3.743   6.848   9.090 -0.6621  0.3144 -0.2818
  146SAPE  C22016082   3.649   6.659   9.054 -0.0737  0.0851  0.1520
  146SAPE  H20R16083   3.568   6.702   8.991 -0.2626  1.3159  1.1990
  146SAPE  H20S16084   3.607   6.575   9.113  1.0814  0.8997  2.1944
  146SAPE  H20T16085   3.725   6.623   8.981 -1.1642  1.5986 -1.7938
  146SAPE   C3316086   2.234   6.051  10.149  0.5864 -0.2325 -0.2017
  146SAPE   H3X16087   2.268   5.946  10.137 -1.1070 -0.3667 -4.9484
  146SAPE   H3Y16088   2.320   6.119  10.129 -0.5922  0.7893 -1.8908
  146SAPE   C3416089   2.125   6.079  10.040 -0.0023 -0.5569 -0.1135
  146SAPE   H4X16090   2.107   6.189  10.044  0.0554 -0.5732  0.7335
  146SAPE   H4Y16091   2.028   6.026  10.049 -0.2573 -0.3061 -1.3719
  146SAPE   C3516092   2.193   6.052   9.898 -0.1718 -0.2847 -0.3770
  146SAPE   H5X16093   2.283   5.988   9.915 -0.3677 -0.0153  1.9318
  146SAPE   H5Y16094   2.225   6.149   9.855  1.7752 -0.9777 -0.5731
  146SAPE   C3616095   2.095   5.979   9.812 -0.3305  0.1246 -0.0608
  146SAPE   H6X16096   2.013   6.048   9.782  1.3094  2.6572  1.0442
  146SAPE   H6Y16097   2.054   5.883   9.850  1.0325 -0.7670 -0.8248
  146SAPE   C3716098   2.156   5.938   9.681  0.2948  0.8846 -1.0222
  146SAPE   H7X16099   2.233   5.860   9.699 -0.0893  1.0365  1.3721
  146SAPE   H7Y16100   2.210   6.019   9.627 -0.2140  0.5407 -2.0769
  146SAPE   C3816101   2.044   5.899   9.586 -0.5850 -0.4362 -0.2221
  146SAPE   H8X16102   1.965   5.977   9.583 -1.5770 -1.3928  0.7961
  146SAPE   H8Y16103   1.987   5.818   9.635 -1.1010 -0.4708 -0.8676
  146SAPE   C3916104   2.081   5.855   9.446 -0.1352 -0.0740  0.5002
  146SAPE   H9X16105   2.126   5.753   9.449  0.6418  0.2949  2.1302
  146SAPE   H9Y16106   2.159   5.925   9.412  0.2984 -0.2476  1.1242
  146SAPE  C31016107   1.969   5.852   9.343 -0.2841 -0.2781  0.1107
  146SAPE  H10X16108   1.893   5.780   9.380  1.7278 -1.9178  1.1384
  146SAPE  H10Y16109   2.004   5.810   9.247 -2.4759 -0.4286 -0.6483
  146SAPE  C31116110   1.905   5.990   9.310 -0.2965  0.2639 -0.1756
  146SAPE  H11X16111   1.838   6.011   9.396 -0.7483  1.3818 -0.7844
  146SAPE  H11Y16112   1.843   5.973   9.219  0.1830 -0.7341 -0.3204
  146SAPE  C31216113   2.004   6.107   9.295 -0.4048 -0.5375  0.6500
  146SAPE  H12X16114   2.081   6.087   9.217  0.6234  1.7774  1.0474
  146SAPE  H12Y16115   2.055   6.127   9.392  0.8518 -2.2165  0.3694
  146SAPE  C31316116   1.946   6.247   9.260  0.5169 -0.1798 -0.2656
  146SAPE  H13X16117   2.039   6.307   9.263  1.1518 -1.1952  0.9137
  146SAPE  H13Y16118   1.865   6.272   9.332  1.3285 -0.9387  0.9343
  146SAPE  C31416119   1.881   6.270   9.119 -0.2836  0.2240 -0.0634
  146SAPE  H14X16120   1.854   6.378   9.113  0.4161  0.5113  1.6451
  146SAPE  H14Y16121   1.789   6.210   9.102 -0.1925  0.2701 -0.7442
  146SAPE  C31516122   1.972   6.214   9.006 -0.1081  0.2779 -0.1478
  146SAPE  H15X16123   1.996   6.106   9.010 -1.5105 -0.1772 -3.0266
  146SAPE  H15Y16124   2.071   6.265   9.003  0.8987 -1.5813  0.6577
  146SAPE  C31616125   1.910   6.235   8.866 -1.1129  0.2662 -0.1386
  146SAPE  H16X16126   1.920   6.344   8.845 -1.3722  0.0274 -1.5942
  146SAPE  H16Y16127   1.802   6.212   8.880 -1.4485  1.9627  0.1931
  146SAPE  C31716128   1.972   6.143   8.754 -0.2818 -0.4930 -0.1822
  146SAPE  H17X16129   1.946   6.186   8.654 -3.4763 -1.1137  0.3112
  146SAPE  H17Y16130   1.916   6.047   8.757 -1.7096  0.3025 -0.8125
  146SAPE  C31816131   2.123   6.127   8.759 -0.5686  0.5513 -0.1391
  146SAPE  H18X16132   2.155   6.049   8.687 -1.1265 -1.3215  1.5929
  146SAPE  H18Y16133   2.154   6.094   8.861 -2.1346 -1.9280 -0.4426
  146SAPE  H18Z16134   2.167   6.228   8.744  1.7554 -0.2938  0.6687
  147SAPE     N16135   5.655   4.800   6.237 -0.6803  0.1324  0.5319
  147SAPE   HN116136   5.592   4.752   6.170  0.7013 -0.3284 -0.4517
  147SAPE   HN216137   5.690   4.887   6.193  0.9800 -1.5497 -1.5899
  147SAPE   HN316138   5.734   4.734   6.247 -1.1148 -0.0526  3.1560
  147SAPE   C1216139   5.574   4.837   6.363 -0.8799 -0.5169  0.1836
  147SAPE  H12A16140   5.476   4.876   6.328 -0.2196  0.3497 -0.7217
  147SAPE  H12B16141   5.622   4.922   6.417  0.2326 -0.7209 -0.4664
  147SAPE   C1116142   5.558   4.711   6.449 -0.7114 -0.2218  0.9023
  147SAPE  H11A16143   5.494   4.737   6.535 -0.8982  0.6484  0.5092
  147SAPE  H11B16144   5.658   4.689   6.493  0.2481  0.1612 -1.0008
  147SAPE     P16145   5.356   4.569   6.383 -0.2769 -0.2403 -0.0237
  147SAPE   O1316146   5.281   4.697   6.397  0.3309  0.7646 -0.2500
  147SAPE   O1416147   5.327   4.478   6.269  0.6013  0.0576  0.3555
  147SAPE   O1216148   5.504   4.604   6.376 -0.3874 -0.4085 -0.1260
  147SAPE   O1116149   5.344   4.497   6.527  0.2064  0.4309  0.0273
  147SAPE    C116150   5.360   4.354   6.540 -0.1049  0.4433  0.1412
  147SAPE    HA16151   5.255   4.318   6.551 -0.0360  0.8961  2.4023
  147SAPE    HB16152   5.407   4.303   6.453 -0.5170  0.3511 -0.0298
  147SAPE    C216153   5.444   4.330   6.676 -0.6767 -0.2861 -0.6072
  147SAPE    HS16154   5.549   4.306   6.647 -1.2242 -0.9799 -2.0768
  147SAPE   O2116155   5.379   4.218   6.729 -0.6006 -0.6600 -0.1767
  147SAPE   C2116156   5.457   4.131   6.797  0.0638  0.2084 -0.2863
  147SAPE   O2216157   5.578   4.131   6.784 -0.0097 -0.3557  0.6603
  147SAPE   C2216158   5.377   4.046   6.894  0.1462 -0.1217  0.2907
  147SAPE   H2R16159   5.275   4.020   6.859 -0.7662  0.6967  2.2595
  147SAPE   H2S16160   5.439   3.954   6.891 -0.6371 -0.6535  0.4254
  147SAPE    C316161   5.432   4.442   6.778  0.4586 -0.2149  0.1824
  147SAPE    HX16162   5.322   4.449   6.797  0.5187  0.5110  0.2592
  147SAPE    HY16163   5.446   4.541   6.730  0.9326 -1.1164 -1.6052
  147SAPE   O3116164   5.505   4.422   6.895  0.4996  0.8184 -0.4985
  147SAPE   C3116165   5.618   4.479   6.901  0.0263 -0.6961 -0.4361
  147SAPE   O3216166   5.678   4.551   6.823  0.0646 -0.1575  0.0747
  147SAPE   C3216167   5.681   4.442   7.039 -0.3557 -0.0690 -0.5592
  147SAPE   H2X16168   5.766   4.514   7.050 -0.5883  0.2030 -0.5279
  147SAPE   H2Y16169   5.723   4.340   7.031  0.8535  0.4341 -0.8048
  147SAPE   C2316170   5.378   4.109   7.036  0.3621 -0.2421 -0.1862
  147SAPE   H3R16171   5.315   4.200   7.040  0.4877 -0.1351 -0.6435
  147SAPE   H3S16172   5.485   4.136   7.051  0.5575  0.1077 -2.0395
  147SAPE   C2416173   5.325   4.008   7.131 -0.0664 -0.1501 -0.5899
  147SAPE   H4R16174   5.402   3.929   7.147  1.0591  0.8165 -1.1725
  147SAPE   H4S16175   5.239   3.956   7.085  0.1201 -1.1622  0.1853
  147SAPE   C2516176   5.300   4.070   7.261 -0.2469 -0.6233 -0.1223
  147SAPE   H5R16177   5.207   4.126   7.273  0.9607  1.0728  1.5430
  147SAPE   C2616178   5.383   4.074   7.374 -0.9637 -0.7230 -0.1231
  147SAPE   H6R16179   5.351   4.131   7.463 -2.2872 -1.8282  0.1137
  147SAPE   C2716180   5.526   4.020   7.372  0.0083  0.0498  0.7115
  147SAPE   H7R16181   5.587   4.078   7.300 -0.6739 -0.1791 -0.0617
  147SAPE   H7S16182   5.531   3.922   7.321  0.6359  0.4318  0.0419
  147SAPE   C2816183   5.595   4.017   7.511  0.1490  1.0536  0.5202
  147SAPE   H8R16184   5.630   4.114   7.548  1.5305  1.4132 -1.6571
  147SAPE   C2916185   5.629   3.906   7.587 -0.8255 -0.8921 -0.8600
  147SAPE   H9R16186   5.688   3.933   7.676 -2.1033  1.3226 -0.6311
  147SAPE  C21016187   5.591   3.762   7.563 -0.8448  0.5130  0.4510
  147SAPE  H10R16188   5.502   3.746   7.499  0.9681 -0.1962 -1.9510
  147SAPE  H10S16189   5.558   3.711   7.656 -1.4314 -0.4172 -0.2581
  147SAPE  C21116190   5.712   3.692   7.501  0.6176 -0.2601 -0.3848
  147SAPE  H11R16191   5.713   3.698   7.392  0.2286 -2.6191 -0.5449
  147SAPE  C21216192   5.813   3.631   7.567 -0.6074  0.0467 -0.0235
  147SAPE  H12R16193   5.887   3.580   7.504 -2.2077 -1.6388 -0.5691
  147SAPE  C21316194   5.828   3.621   7.720 -0.7959 -0.7711  0.0212
  147SAPE  H13R16195   5.760   3.549   7.770  0.6399 -0.6094  2.2910
  147SAPE  H13S16196   5.792   3.712   7.772  0.7586  0.3681 -0.8204
  147SAPE  C21416197   5.973   3.598   7.758  0.2363  0.1005  0.0128
  147SAPE  H14R16198   6.023   3.524   7.695 -0.6916  0.0582 -0.6857
  147SAPE  C21516199   6.036   3.654   7.860  1.2300 -0.3479 -0.6226
  147SAPE  H15R16200   6.139   3.621   7.876  1.1706  0.2931  1.1853
  147SAPE  C21616201   5.982   3.753   7.963 -0.6477 -0.0873 -0.6787
  147SAPE  H16R16202   5.885   3.798   7.934  0.3769  0.0071 -4.2203
  147SAPE  H16S16203   6.055   3.835   7.975 -1.1304  0.1338  0.7361
  147SAPE  C21716204   5.960   3.679   8.096 -0.5651 -0.4763 -0.7916
  147SAPE  H17R16205   6.053   3.625   8.126 -1.3971 -2.4580 -1.6995
  147SAPE  H17S16206   5.879   3.604   8.082 -0.2177 -0.7325 -1.4525
  147SAPE  C21816207   5.935   3.774   8.214 -0.3607  0.1443 -0.3715
  147SAPE  H18R16208   6.009   3.857   8.224  0.4685 -0.4958 -1.0714
  147SAPE  H18S16209   5.950   3.703   8.298  0.8463 -1.5680 -1.9919
  147SAPE  C21916210   5.788   3.822   8.216 -0.0870 -0.0291  0.4929
  147SAPE  H19R16211   5.781   3.898   8.135  4.3443 -0.6629 -0.5947
  147SAPE  H19S16212   5.765   3.868   8.315 -0.3509 -2.5939  1.6865
  147SAPE  C22016213   5.670   3.723   8.215 -0.0051  0.4993  0.1354
  147SAPE  H20R16214   5.579   3.785   8.195 -0.0024 -0.0723 -1.8099
  147SAPE  H20S16215   5.653   3.669   8.311 -0.5320  1.3153  0.5065
  147SAPE  H20T16216   5.673   3.654   8.128 -3.0324 -0.0251  0.3811
  147SAPE   C3316217   5.589   4.445   7.172 -0.1550 -1.2283  0.3133
  147SAPE   H3X16218   5.518   4.360   7.159  2.2671 -3.4999  1.6712
  147SAPE   H3Y16219   5.527   4.537   7.185  3.3203  1.0565  1.2123
  147SAPE   C3416220   5.672   4.427   7.301 -0.1156 -0.5318  0.0109
  147SAPE   H4X16221   5.742   4.512   7.320  1.2552 -1.9585  1.4558
  147SAPE   H4Y16222   5.731   4.334   7.290 -1.8180 -1.3856 -2.3975
  147SAPE   C3516223   5.586   4.413   7.429 -0.9211 -0.5574 -1.0017
  147SAPE   H5X16224   5.522   4.322   7.431 -0.1000 -1.2007 -2.6654
  147SAPE   H5Y16225   5.515   4.497   7.415  0.0061  1.0074  3.0616
  147SAPE   C3616226   5.675   4.424   7.550  0.5264  0.7088 -0.5196
  147SAPE   H6X16227   5.733   4.518   7.536  1.1974  0.7162  2.0626
  147SAPE   H6Y16228   5.754   4.346   7.544  0.9752  1.0787  0.4873
  147SAPE   C3716229   5.609   4.408   7.684 -0.3444  0.0619 -0.1426
  147SAPE   H7X16230   5.526   4.334   7.678  2.2208 -2.9267 -0.1245
  147SAPE   H7Y16231   5.563   4.506   7.711  2.6548  0.9548  2.0384
  147SAPE   C3816232   5.704   4.342   7.782  0.8059  0.5663 -0.1722
  147SAPE   H8X16233   5.783   4.416   7.805 -0.2083  1.6340 -0.1251
  147SAPE   H8Y16234   5.751   4.251   7.738  1.4891  0.7242  0.2202
  147SAPE   C3916235   5.638   4.305   7.918 -0.1236 -0.2205 -0.0773
  147SAPE   H9X16236   5.548   4.241   7.910 -1.5307  1.9593 -2.5467
  147SAPE   H9Y16237   5.621   4.405   7.963 -0.3969 -0.1431 -0.3542
  147SAPE  C31016238   5.730   4.215   8.008 -0.0021  0.0240  0.5135
  147SAPE  H10X16239   5.835   4.247   7.987 -0.0393 -1.0690 -1.4021
  147SAPE  H10Y16240   5.735   4.115   7.961 -0.1359  0.7914 -1.1863
  147SAPE  C31116241   5.704   4.220   8.156  0.3023  0.6800 -0.0199
  147SAPE  H11X16242   5.614   4.162   8.184 -0.0668  0.2711 -2.0019
  147SAPE  H11Y16243   5.688   4.328   8.177  0.3468  0.9003 -1.1172
  147SAPE  C31216244   5.832   4.195   8.239  0.6710  0.8607 -0.1612
  147SAPE  H12X16245   5.901   4.277   8.209 -0.1930  1.3887 -0.7460
  147SAPE  H12Y16246   5.887   4.106   8.204 -1.4447  0.2530 -2.0326
  147SAPE  C31316247   5.807   4.212   8.391 -0.5711 -0.5013  0.1521
  147SAPE  H13X16248   5.732   4.133   8.414  0.8269 -1.9891 -0.3110
  147SAPE  H13Y16249   5.774   4.315   8.416 -2.4891 -1.2099  0.6626
  147SAPE  C31416250   5.923   4.181   8.487 -1.3899 -0.1988 -0.0364
  147SAPE  H14X16251   5.961   4.080   8.458 -1.4948 -0.4419  0.6781
  147SAPE  H14Y16252   5.889   4.189   8.592 -0.7555  2.1889  0.0144
  147SAPE  C31516253   6.044   4.280   8.463  0.1336 -0.5078  0.2539
  147SAPE  H15X16254   6.027   4.387   8.484  0.7769 -0.5278  0.8753
  147SAPE  H15Y16255   6.074   4.270   8.356  0.5791  2.8321  0.0188
  147SAPE  C31616256   6.172   4.254   8.540  0.1782 -0.1569  0.5018
  147SAPE  H16X16257   6.201   4.147   8.528  0.0162 -0.0517 -0.8765
  147SAPE  H16Y16258   6.161   4.274   8.649 -0.0340  2.6766 -0.0139
  147SAPE  C31716259   6.293   4.323   8.470 -0.2472  0.6351 -0.2819
  147SAPE  H17X16260   6.269   4.432   8.473  2.0089  1.1167  2.1122
  147SAPE  H17Y16261   6.291   4.294   8.363  0.5452 -0.5733  0.0279
  147SAPE  C31816262   6.431   4.300   8.533 -0.5191 -0.4130 -0.2678
  147SAPE  H18X16263   6.434   4.318   8.643 -2.5089 -0.8834 -0.1240
  147SAPE  H18Y16264   6.501   4.374   8.489 -3.1539  1.4412 -1.4775
  147SAPE  H18Z16265   6.476   4.202   8.508 -0.3163  0.1326 -2.1554
  148SAPE     N16266   5.428   2.369   6.610  0.8091  0.3537  0.4202
  148SAPE   HN116267   5.481   2.380   6.522  2.3386  2.7123  1.5734
  148SAPE   HN216268   5.348   2.437   6.610  2.7473  2.7192  1.2496
  148SAPE   HN316269   5.481   2.387   6.698  1.2188  2.2464 -0.1827
  148SAPE   C1216270   5.363   2.232   6.626  0.0935  0.8546 -0.4932
  148SAPE  H12A16271   5.331   2.218   6.731 -0.7737 -2.0010 -1.1061
  148SAPE  H12B16272   5.433   2.153   6.593 -1.8604 -1.3021  0.3853
  148SAPE   C1116273   5.230   2.239   6.543 -0.0739  0.4425  0.1767
  148SAPE  H11A16274   5.183   2.139   6.545 -0.6934  0.7432  1.2087
  148SAPE  H11B16275   5.249   2.261   6.436 -0.2448  0.2258  0.1029
  148SAPE     P16276   5.005   2.312   6.665 -0.2045 -0.3660 -0.0076
  148SAPE   O1316277   4.917   2.287   6.553  0.3180 -0.1332 -0.7446
  148SAPE   O1416278   5.014   2.208   6.773 -0.1221 -0.0739 -0.2055
  148SAPE   O1216279   5.143   2.339   6.603  0.6907 -0.3346 -0.3391
  148SAPE   O1116280   4.975   2.457   6.731  0.4779 -0.2527 -0.0796
  148SAPE    C116281   5.066   2.522   6.822  0.4695  0.2142 -0.2439
  148SAPE    HA16282   5.171   2.492   6.804 -0.3217 -1.3324 -2.5896
  148SAPE    HB16283   5.067   2.629   6.795 -2.0286  0.8630  1.9626
  148SAPE    C216284   5.026   2.516   6.973 -0.8615  0.2432 -0.1996
  148SAPE    HS16285   5.103   2.582   7.019  0.2742  0.9689 -3.0699
  148SAPE   O2116286   5.037   2.376   7.018 -0.8066  0.8066 -0.0136
  148SAPE   C2116287   5.161   2.327   7.043  0.3017  0.2330 -0.0032
  148SAPE   O2216288   5.267   2.384   7.017  0.1625  0.0507  0.4450
  148SAPE   C2216289   5.144   2.191   7.106 -0.3944  0.6961  0.1397
  148SAPE   H2R16290   5.088   2.192   7.202 -2.0754  1.3534 -0.8280
  148SAPE   H2S16291   5.082   2.136   7.033  0.1240  0.3024 -0.0072
  148SAPE    C316292   4.882   2.561   6.982 -0.4624 -0.3536 -0.3912
  148SAPE    HX16293   4.821   2.486   6.927  0.6572 -1.0351 -0.7188
  148SAPE    HY16294   4.878   2.656   6.925  1.6950  0.2341  0.3934
  148SAPE   O3116295   4.840   2.586   7.117  0.3214 -0.6463 -0.5607
  148SAPE   C3116296   4.788   2.487   7.184  0.2426  0.0175 -0.3465
  148SAPE   O3216297   4.751   2.382   7.139  0.4296 -0.0357  0.0421
  148SAPE   C3216298   4.752   2.521   7.325  0.6528 -0.4523 -0.7158
  148SAPE   H2X16299   4.645   2.551   7.335  0.9678  0.0679  1.2053
  148SAPE   H2Y16300   4.812   2.603   7.369  0.5262 -1.6891  1.8380
  148SAPE   C2316301   5.279   2.129   7.130  0.6437  0.3293  0.0395
  148SAPE   H3R16302   5.340   2.180   7.207  1.3939 -1.9781  0.9922
  148SAPE   H3S16303   5.345   2.136   7.041  1.0621 -0.3588  0.2918
  148SAPE   C2416304   5.262   1.980   7.168  0.5587  0.2860  0.1107
  148SAPE   H4R16305   5.216   1.929   7.080  2.8486 -0.7147 -0.5390
  148SAPE   H4S16306   5.191   1.972   7.253  1.8774 -1.4837  1.0680
  148SAPE   C2516307   5.389   1.902   7.201  0.6633 -0.7441  0.4301
  148SAPE   H5R16308   5.425   1.847   7.113 -2.2154  0.0099 -1.2569
  148SAPE   C2616309   5.450   1.889   7.318 -1.2470 -0.6008 -0.4118
  148SAPE   H6R16310   5.532   1.816   7.322 -0.4326  0.4310  2.8730
  148SAPE   C2716311   5.415   1.964   7.441 -0.5618 -0.6918 -0.4101
  148SAPE   H7R16312   5.354   2.052   7.410  1.3757  1.1064  0.7533
  148SAPE   H7S16313   5.507   2.004   7.490 -1.1085  2.1719 -1.5887
  148SAPE   C2816314   5.332   1.893   7.549 -0.7415  1.1637 -0.1037
  148SAPE   H8R16315   5.295   1.796   7.512  0.5921  0.9292 -0.8848
  148SAPE   C2916316   5.307   1.930   7.671  0.6542 -0.6463 -0.3939
  148SAPE   H9R16317   5.260   1.859   7.741  2.4316  1.1222  2.7446
  148SAPE  C21016318   5.348   2.058   7.738 -0.0377 -0.6237  0.2312
  148SAPE  H10R16319   5.260   2.084   7.800 -0.1863 -1.3700  0.3342
  148SAPE  H10S16320   5.348   2.147   7.672 -2.1516 -2.1167 -1.8390
  148SAPE  C21116321   5.486   2.055   7.807  0.2159  0.4576 -0.2991
  148SAPE  H11R16322   5.572   2.059   7.739  2.1512 -2.0342  1.8915
  148SAPE  C21216323   5.499   2.053   7.941 -0.6401  0.7558  0.3482
  148SAPE  H12R16324   5.598   2.059   7.988  0.3901 -0.6889 -1.5116
  148SAPE  C21316325   5.392   2.048   8.046  0.3333  0.3376  0.1692
  148SAPE  H13R16326   5.427   1.981   8.127 -2.6013 -2.2499 -0.5926
  148SAPE  H13S16327   5.295   2.007   8.008  0.5356  2.2451 -2.6160
  148SAPE  C21416328   5.359   2.179   8.110  0.6697 -0.0209 -0.2756
  148SAPE  H14R16329   5.423   2.263   8.077  1.7267 -0.3261  0.9565
  148SAPE  C21516330   5.270   2.194   8.205  0.0969 -0.7110  0.3713
  148SAPE  H15R16331   5.265   2.295   8.247  1.6898 -0.3035 -0.3467
  148SAPE  C21616332   5.177   2.092   8.257  0.2287  0.0177 -0.4953
  148SAPE  H16R16333   5.148   2.021   8.178  0.9966  0.5466 -1.2669
  148SAPE  H16S16334   5.078   2.132   8.287  1.0344  0.9805  0.9783
  148SAPE  C21716335   5.210   2.009   8.384 -0.0669 -0.3192  0.5434
  148SAPE  H17R16336   5.303   1.960   8.347 -1.6486 -0.6087 -3.3748
  148SAPE  H17S16337   5.136   1.927   8.399 -1.2711  0.2231 -2.0700
  148SAPE  C21816338   5.232   2.084   8.513 -0.1046 -0.5795  0.0909
  148SAPE  H18R16339   5.132   2.126   8.540 -0.6410 -1.8061  0.0402
  148SAPE  H18S16340   5.297   2.173   8.503  0.4635 -0.8399  1.3205
  148SAPE  C21916341   5.281   1.996   8.633  0.1278 -0.5906  0.7109
  148SAPE  H19R16342   5.366   1.934   8.596 -1.1336 -2.4046  0.8371
  148SAPE  H19S16343   5.216   1.909   8.655  2.2305 -2.3587  0.1330
  148SAPE  C22016344   5.317   2.077   8.757  0.3234  0.4019 -0.0314
  148SAPE  H20R16345   5.328   2.012   8.846 -0.0894 -1.8375 -1.5884
  148SAPE  H20S16346   5.235   2.147   8.785 -0.1524 -0.4757  0.8222
  148SAPE  H20T16347   5.403   2.146   8.744  1.3854 -0.6994  1.0871
  148SAPE   C3316348   4.753   2.407   7.426  0.3271 -0.2646  0.7848
  148SAPE   H3X16349   4.855   2.362   7.433  0.1760 -1.1197 -1.6953
  148SAPE   H3Y16350   4.682   2.338   7.374  1.2046 -1.1531  0.7354
  148SAPE   C3416351   4.721   2.448   7.568 -0.1914 -0.4137 -0.5083
  148SAPE   H4X16352   4.625   2.503   7.566  0.2754  0.7353  3.7400
  148SAPE   H4Y16353   4.797   2.513   7.616 -0.5108  1.8073 -2.8948
  148SAPE   C3516354   4.698   2.331   7.663 -0.0478 -0.1996 -0.4248
  148SAPE   H5X16355   4.791   2.273   7.683 -0.4524 -0.4677  0.7149
  148SAPE   H5Y16356   4.623   2.262   7.620  0.1932 -0.8222  0.1547
  148SAPE   C3616357   4.643   2.362   7.799 -0.6450 -0.4751 -0.1863
  148SAPE   H6X16358   4.548   2.417   7.814 -0.3053 -0.6160  2.8837
  148SAPE   H6Y16359   4.726   2.416   7.850 -1.0718  0.4005 -0.4106
  148SAPE   C3716360   4.626   2.239   7.891  0.3309 -0.1265  0.6725
  148SAPE   H7X16361   4.712   2.171   7.872  0.1701 -0.6695  1.8396
  148SAPE   H7Y16362   4.541   2.174   7.861 -2.2808  2.7189  1.7058
  148SAPE   C3816363   4.603   2.274   8.038  0.0099  0.3641  0.9777
  148SAPE   H8X16364   4.596   2.179   8.095 -0.5045  0.1013  0.4820
  148SAPE   H8Y16365   4.509   2.333   8.050 -2.2572 -2.2513 -3.0342
  148SAPE   C3916366   4.719   2.341   8.103 -0.2137  0.4689 -0.6071
  148SAPE   H9X16367   4.745   2.437   8.054  1.1602  0.4507  0.0644
  148SAPE   H9Y16368   4.802   2.270   8.080  0.3629  0.3132  1.8983
  148SAPE  C31016369   4.706   2.352   8.261  0.2455  0.1111  0.1878
  148SAPE  H10X16370   4.665   2.257   8.302 -0.5400  1.5136  2.7510
  148SAPE  H10Y16371   4.633   2.429   8.293  1.9029  1.8031 -0.0017
  148SAPE  C31116372   4.849   2.374   8.317  0.5038 -0.3277  0.0747
  148SAPE  H11X16373   4.888   2.477   8.304  3.1750 -1.5551 -2.2416
  148SAPE  H11Y16374   4.921   2.330   8.244  1.5621  0.5331  0.5749
  148SAPE  C31216375   4.865   2.324   8.455 -0.1319  0.2975  0.2698
  148SAPE  H12X16376   4.848   2.215   8.446 -0.4786  0.3267  0.5596
  148SAPE  H12Y16377   4.790   2.369   8.524 -1.2429  0.4625 -1.0269
  148SAPE  C31316378   5.002   2.358   8.510 -0.6519  0.0413 -0.2169
  148SAPE  H13X16379   5.082   2.304   8.455 -1.3502 -0.7346 -0.4927
  148SAPE  H13Y16380   5.014   2.333   8.617 -0.1439 -0.1749 -0.3242
  148SAPE  C31416381   5.034   2.509   8.513  0.3490 -0.4098 -0.3949
  148SAPE  H14X16382   4.942   2.558   8.551  0.0168 -1.2044 -0.1542
  148SAPE  H14Y16383   5.065   2.553   8.416  0.5610  2.1685  0.8215
  148SAPE  C31516384   5.153   2.532   8.607 -0.1178  0.8733 -0.4114
  148SAPE  H15X16385   5.139   2.482   8.705 -1.2044  1.6199 -0.1673
  148SAPE  H15Y16386   5.154   2.642   8.622 -0.5336  0.7094  0.8383
  148SAPE  C31616387   5.286   2.504   8.535  0.9316  0.2784  0.1024
  148SAPE  H16X16388   5.299   2.581   8.456  1.0108 -0.7753 -0.9352
  148SAPE  H16Y16389   5.280   2.406   8.484 -0.8344 -1.1267  2.8782
  148SAPE  C31716390   5.394   2.514   8.643 -0.6291 -0.1650 -0.0528
  148SAPE  H17X16391   5.377   2.447   8.730 -2.3387 -0.6034 -0.7059
  148SAPE  H17Y16392   5.380   2.618   8.681 -0.7953  0.0744 -0.7753
  148SAPE  C31816393   5.539   2.503   8.593 -0.1864  0.6286 -0.2453
  148SAPE  H18X16394   5.562   2.399   8.562 -0.8443  0.9156 -1.7152
  148SAPE  H18Y16395   5.610   2.527   8.675  0.6258 -0.9742 -0.4602
  148SAPE  H18Z16396   5.547   2.566   8.502 -0.4037 -1.0900 -1.4775
  149SAPE     N16397   4.812   3.700   6.515  0.1498  0.7090 -0.1191
  149SAPE   HN116398   4.792   3.802   6.523 -1.6385  0.3653  0.1547
  149SAPE   HN216399   4.901   3.691   6.462  2.2130  2.2646  2.9224
  149SAPE   HN316400   4.734   3.659   6.460 -0.9864 -1.2322  2.8161
  149SAPE   C1216401   4.828   3.629   6.645 -0.4494 -0.8597 -0.3245
  149SAPE  H12A16402   4.733   3.649   6.698  0.7974  1.3599  1.1713
  149SAPE  H12B16403   4.911   3.683   6.696 -3.1403  2.6508  0.5146
  149SAPE   C1116404   4.845   3.476   6.622  0.2665  0.3411 -0.7955
  149SAPE  H11A16405   4.746   3.441   6.586  1.5360 -2.4479 -1.6949
  149SAPE  H11B16406   4.857   3.424   6.720 -1.6388  2.1989  0.4724
  149SAPE     P16407   5.075   3.360   6.551 -0.1079 -0.1808  0.4923
  149SAPE   O1316408   5.073   3.228   6.478  0.0896 -0.1777  0.4773
  149SAPE   O1416409   5.196   3.445   6.520  0.6185  0.0013 -0.4097
  149SAPE   O1216410   4.937   3.432   6.522  1.0608  0.5452  0.3179
  149SAPE   O1116411   5.070   3.338   6.705  0.0341  0.7340  0.3218
  149SAPE    C116412   5.176   3.275   6.777  0.0757  0.7282 -0.3172
  149SAPE    HA16413   5.159   3.165   6.770 -0.8887  0.8106  0.7762
  149SAPE    HB16414   5.274   3.316   6.744  0.1851 -1.1891 -2.5911
  149SAPE    C216415   5.176   3.322   6.920  0.0082 -0.5147 -0.5111
  149SAPE    HS16416   5.271   3.279   6.955 -0.4336 -0.2718  1.0133
  149SAPE   O2116417   5.069   3.272   6.996  0.3903  0.4948 -0.1861
  149SAPE   C2116418   5.071   3.146   7.020 -0.5288  0.5181 -0.1748
  149SAPE   O2216419   5.169   3.072   7.010  0.5535  0.3106  0.2170
  149SAPE   C2216420   4.949   3.110   7.086 -0.2171 -0.1627  0.0110
  149SAPE   H2R16421   4.923   3.195   7.153  0.2964 -0.7367  0.9552
  149SAPE   H2S16422   4.875   3.096   7.004  1.0720 -0.5505 -1.0918
  149SAPE    C316423   5.169   3.472   6.925 -0.3967 -0.3607  0.2315
  149SAPE    HX16424   5.078   3.514   6.876  0.4859  0.7862 -0.4613
  149SAPE    HY16425   5.251   3.519   6.867 -0.6408  0.2580  0.3844
  149SAPE   O3116426   5.163   3.523   7.058  0.2056 -0.1620  0.2490
  149SAPE   C3116427   5.161   3.655   7.080 -0.3604  0.1231 -0.4285
  149SAPE   O3216428   5.160   3.733   6.987 -0.6011  0.0761 -0.9215
  149SAPE   C3216429   5.179   3.680   7.230 -0.3632 -0.3966  0.6035
  149SAPE   H2X16430   5.282   3.718   7.245  0.1111 -1.0813 -0.8376
  149SAPE   H2Y16431   5.178   3.587   7.292 -1.5788  0.4666  1.9137
  149SAPE   C2316432   4.954   2.981   7.175  0.3167 -0.0074  0.2806
  149SAPE   H3R16433   5.034   2.987   7.251  1.0975 -0.8203 -0.4742
  149SAPE   H3S16434   4.991   2.902   7.107  3.1709 -0.0396  1.8154
  149SAPE   C2416435   4.814   2.942   7.237  0.2130 -0.5235 -0.3734
  149SAPE   H4R16436   4.820   2.850   7.299  3.0516  0.6455  1.2099
  149SAPE   H4S16437   4.746   2.916   7.153  0.3638 -1.3745 -0.2424
  149SAPE   C2516438   4.748   3.054   7.316  0.4825  0.4447 -0.2103
  149SAPE   H5R16439   4.699   3.139   7.266  0.3032  0.6737  0.3480
  149SAPE   C2616440   4.736   3.056   7.453 -0.1521 -0.1055 -0.1291
  149SAPE   H6R16441   4.712   3.148   7.508 -0.0338 -1.1887  1.7824
  149SAPE   C2716442   4.781   2.946   7.551  0.0732 -0.1866  0.1103
  149SAPE   H7R16443   4.822   2.993   7.643 -0.3091  3.7030 -1.6068
  149SAPE   H7S16444   4.867   2.884   7.517 -0.8981 -2.0847  1.0013
  149SAPE   C2816445   4.669   2.847   7.584  0.0331 -0.3993 -0.3009
  149SAPE   H8R16446   4.593   2.835   7.505  0.9624  1.6380 -1.5337
  149SAPE   C2916447   4.655   2.789   7.705  0.0076 -1.6387  0.0487
  149SAPE   H9R16448   4.564   2.728   7.718  0.5199 -2.8316 -1.7180
  149SAPE  C21016449   4.753   2.804   7.819 -0.0735  0.1615 -0.1919
  149SAPE  H10R16450   4.752   2.911   7.849 -1.2974 -0.0134  0.4176
  149SAPE  H10S16451   4.853   2.774   7.782 -1.4110 -1.3772 -2.7171
  149SAPE  C21116452   4.721   2.705   7.922 -0.2039  0.2134 -0.6950
  149SAPE  H11R16453   4.744   2.603   7.889 -0.7384  0.2080 -1.0539
  149SAPE  C21216454   4.654   2.728   8.043 -0.3250  0.1302 -0.4410
  149SAPE  H12R16455   4.638   2.642   8.110 -2.2383  1.3795  0.7550
  149SAPE  C21316456   4.607   2.854   8.100 -0.3781 -0.1767 -0.0426
  149SAPE  H13R16457   4.500   2.850   8.131 -0.5004 -0.8977 -0.5514
  149SAPE  H13S16458   4.601   2.944   8.035  1.0953  0.6068  0.8813
  149SAPE  C21416459   4.690   2.886   8.220  0.4252  0.3298 -0.5097
  149SAPE  H14R16460   4.791   2.921   8.196  0.0672  0.9959 -1.0721
  149SAPE  C21516461   4.653   2.860   8.350 -0.6252  0.1086 -0.7863
  149SAPE  H15R16462   4.732   2.870   8.426 -2.7498  0.1589  1.4504
  149SAPE  C21616463   4.523   2.798   8.404 -0.7305  0.0967 -0.6598
  149SAPE  H16R16464   4.474   2.743   8.320  0.8056  1.3436 -2.4150
  149SAPE  H16S16465   4.453   2.875   8.442  0.2472  0.8026 -0.2754
  149SAPE  C21716466   4.548   2.695   8.516  0.8698 -0.6044  0.5273
  149SAPE  H17R16467   4.557   2.761   8.605  0.2375  1.0150 -0.5656
  149SAPE  H17S16468   4.639   2.634   8.498  0.5636 -0.6368 -0.9934
  149SAPE  C21816469   4.440   2.587   8.539  0.5638  0.6432 -0.0733
  149SAPE  H18R16470   4.470   2.527   8.629 -0.8669  2.2752  1.5231
  149SAPE  H18S16471   4.445   2.518   8.452 -1.1283 -0.2002  0.4740
  149SAPE  C21916472   4.296   2.644   8.555 -0.1031  0.0007 -0.3110
  149SAPE  H19R16473   4.280   2.706   8.464  1.2915  0.2149 -0.4252
  149SAPE  H19S16474   4.312   2.714   8.640 -1.1799  1.4915 -1.3038
  149SAPE  C22016475   4.169   2.561   8.566 -0.5564 -0.4347 -0.0960
  149SAPE  H20R16476   4.074   2.611   8.539 -1.3796 -1.9726 -0.0786
  149SAPE  H20S16477   4.152   2.513   8.665 -0.6675 -0.8246 -0.3032
  149SAPE  H20T16478   4.175   2.485   8.485  0.0384  0.0145 -0.4772
  149SAPE   C3316479   5.083   3.778   7.301 -0.9117  0.0913 -1.1088
  149SAPE   H3X16480   4.980   3.736   7.295 -0.1758 -1.6920 -1.7075
  149SAPE   H3Y16481   5.083   3.867   7.235 -0.7292  2.2871  1.7241
  149SAPE   C3416482   5.128   3.812   7.446 -0.1189 -0.4383 -0.2219
  149SAPE   H4X16483   5.053   3.881   7.490  2.0466  2.2134 -0.5857
  149SAPE   H4Y16484   5.231   3.852   7.437  0.2540 -1.5750 -1.1287
  149SAPE   C3516485   5.135   3.688   7.544 -0.0235  0.7634  0.8593
  149SAPE   H5X16486   5.199   3.610   7.498 -0.0935  1.4323 -0.3843
  149SAPE   H5Y16487   5.030   3.651   7.550  0.1073  0.2862  0.2059
  149SAPE   C3616488   5.186   3.718   7.689 -0.1295 -0.2536 -0.7262
  149SAPE   H6X16489   5.112   3.775   7.749 -0.0212 -1.8110  0.9261
  149SAPE   H6Y16490   5.281   3.773   7.674 -1.6479  2.7555  0.3239
  149SAPE   C3716491   5.214   3.595   7.777  0.1136  0.2770 -0.1159
  149SAPE   H7X16492   5.261   3.516   7.714  0.5506  1.7250 -1.6440
  149SAPE   H7Y16493   5.120   3.556   7.821  0.4363  0.7315  1.0022
  149SAPE   C3816494   5.308   3.629   7.883 -0.2798  0.0685 -0.9535
  149SAPE   H8X16495   5.279   3.715   7.947  0.8000  0.9154 -1.5996
  149SAPE   H8Y16496   5.397   3.674   7.835  1.4094 -1.5307  0.5900
  149SAPE   C3916497   5.343   3.504   7.975 -0.1773 -0.3481  0.4624
  149SAPE   H9X16498   5.246   3.469   8.017 -0.2591 -0.1975  0.4025
  149SAPE   H9Y16499   5.402   3.538   8.063  1.1659 -2.0524  0.2516
  149SAPE  C31016500   5.409   3.384   7.906 -0.4672  0.1405 -0.1032
  149SAPE  H10X16501   5.490   3.421   7.840 -2.4372 -0.7055 -3.0887
  149SAPE  H10Y16502   5.330   3.342   7.840 -0.9603 -0.5526  0.9034
  149SAPE  C31116503   5.432   3.279   8.013 -0.5018  0.5260  0.0032
  149SAPE  H11X16504   5.340   3.238   8.059 -1.3288  2.7403  0.4064
  149SAPE  H11Y16505   5.472   3.323   8.107  1.1378 -2.6641  0.8589
  149SAPE  C31216506   5.527   3.177   7.962 -0.9585  0.0766  0.0656
  149SAPE  H12X16507   5.552   3.105   8.043 -1.9053  0.2048  0.4703
  149SAPE  H12Y16508   5.617   3.239   7.942 -0.8740 -0.1158 -0.1624
  149SAPE  C31316509   5.488   3.089   7.844 -0.4739  0.0532 -0.0797
  149SAPE  H13X16510   5.430   3.152   7.773 -0.5027 -1.3587 -1.3309
  149SAPE  H13Y16511   5.446   2.994   7.884  0.9587 -0.0277  1.2798
  149SAPE  C31416512   5.610   3.039   7.758  0.1306 -0.1388  0.4089
  149SAPE  H14X16513   5.670   2.981   7.832  1.4341 -1.0468 -1.3121
  149SAPE  H14Y16514   5.670   3.129   7.731 -0.5524  0.1583 -0.1493
  149SAPE  C31516515   5.567   2.964   7.636 -0.2945 -0.3706  0.2959
  149SAPE  H15X16516   5.515   3.027   7.562  0.2160 -0.5350 -0.2048
  149SAPE  H15Y16517   5.503   2.879   7.671 -0.1001 -0.5942  0.1055
  149SAPE  C31616518   5.688   2.902   7.556 -0.6192 -0.2899  0.2853
  149SAPE  H16X16519   5.648   2.842   7.471  0.6298 -0.1848 -0.3888
  149SAPE  H16Y16520   5.734   2.834   7.632  0.7191  0.1318 -0.1342
  149SAPE  C31716521   5.782   3.000   7.487 -0.4860  0.3612  0.1247
  149SAPE  H17X16522   5.872   2.944   7.452 -2.5756 -1.0643 -3.1772
  149SAPE  H17Y16523   5.819   3.069   7.566 -3.6727  0.0177  1.9921
  149SAPE  C31816524   5.713   3.082   7.373 -0.6615  0.1209 -0.4013
  149SAPE  H18X16525   5.772   3.175   7.354 -2.5590  0.8508 -3.0130
  149SAPE  H18Y16526   5.610   3.109   7.403 -1.4851 -2.3091 -0.9319
  149SAPE  H18Z16527   5.706   3.020   7.281 -1.2409  0.1502 -0.3742
  150SAPE     N16528   3.214   4.608   6.209 -0.4003  0.6366 -0.2971
  150SAPE   HN116529   3.165   4.605   6.117  0.9480 -2.5938 -0.9985
  150SAPE   HN216530   3.199   4.707   6.237  2.8300  0.9194  0.6969
  150SAPE   HN316531   3.312   4.595   6.176 -0.5005  1.3120 -0.8689
  150SAPE   C1216532   3.175   4.508   6.321  0.0218 -0.0341  0.0831
  150SAPE  H12A16533   3.195   4.409   6.275 -0.3042  0.8879 -2.1216
  150SAPE  H12B16534   3.068   4.535   6.336  0.7522  2.0454  1.7527
  150SAPE   C1116535   3.263   4.530   6.451  0.0590  0.4150  0.9374
  150SAPE  H11A16536   3.227   4.459   6.528 -1.4682  0.2593  0.1037
  150SAPE  H11B16537   3.240   4.630   6.495  1.7119  0.8825  0.7781
  150SAPE     P16538   3.471   4.375   6.442 -0.2077  0.1976 -0.5243
  150SAPE   O1316539   3.376   4.259   6.422  0.4149 -0.2420 -0.0233
  150SAPE   O1416540   3.598   4.379   6.367  0.1276  0.3815  0.5121
  150SAPE   O1216541   3.401   4.516   6.415  0.7733 -0.0574  0.3043
  150SAPE   O1116542   3.508   4.390   6.598 -0.0368 -0.4848  0.4442
  150SAPE    C116543   3.419   4.348   6.699 -0.1028  0.1920 -0.1460
  150SAPE    HA16544   3.334   4.418   6.710  1.9312  2.8995 -1.0152
  150SAPE    HB16545   3.386   4.244   6.678 -0.6228  0.3376 -0.0504
  150SAPE    C216546   3.493   4.329   6.833  0.6483  0.1469 -0.2201
  150SAPE    HS16547   3.418   4.276   6.895  1.9741  0.4732  1.7219
  150SAPE   O2116548   3.527   4.453   6.892  0.6741  0.2307 -0.3717
  150SAPE   C2116549   3.485   4.470   7.015  0.1847  0.4941  0.2480
  150SAPE   O2216550   3.421   4.392   7.081 -0.0044  0.8793  0.2815
  150SAPE   C2216551   3.530   4.616   7.057  0.5409  0.2855 -1.0397
  150SAPE   H2R16552   3.599   4.597   7.142 -0.0241 -2.4717 -1.1313
  150SAPE   H2S16553   3.597   4.667   6.985  1.0913 -0.2638 -0.9170
  150SAPE    C316554   3.622   4.245   6.818  0.0033 -0.8412 -0.5249
  150SAPE    HX16555   3.692   4.317   6.770 -0.2985 -0.4214 -0.3370
  150SAPE    HY16556   3.597   4.172   6.738 -3.1677 -0.6382  0.2169
  150SAPE   O3116557   3.672   4.187   6.941 -0.8843  0.2494 -0.1774
  150SAPE   C3116558   3.620   4.065   6.978 -0.8187 -0.9361 -0.1366
  150SAPE   O3216559   3.524   4.015   6.926 -0.0058  0.5562  0.3371
  150SAPE   C3216560   3.696   4.002   7.100 -0.1886 -0.3284 -0.6393
  150SAPE   H2X16561   3.769   4.077   7.138 -0.3686 -0.9541  0.9976
  150SAPE   H2Y16562   3.735   3.901   7.078 -0.5531 -0.8422  0.9523
  150SAPE   C2316563   3.418   4.715   7.097  0.1647 -0.3596  0.2225
  150SAPE   H3R16564   3.349   4.683   7.178 -0.5741  0.1175 -0.2159
  150SAPE   H3S16565   3.350   4.730   7.010 -0.6037 -0.8296  0.7389
  150SAPE   C2416566   3.472   4.856   7.134  0.3602  0.3733 -0.5813
  150SAPE   H4R16567   3.532   4.887   7.046 -0.5524 -0.8939 -1.6826
  150SAPE   H4S16568   3.540   4.841   7.220  0.1858  1.0493 -0.3225
  150SAPE   C2516569   3.364   4.953   7.169 -1.0310  0.3048 -0.4507
  150SAPE   H5R16570   3.300   4.993   7.089  0.5729  2.2121 -0.8361
  150SAPE   C2616571   3.335   5.000   7.295  0.2179  0.4626 -0.7067
  150SAPE   H6R16572   3.268   5.087   7.294 -1.7842 -1.0454 -1.1459
  150SAPE   C2716573   3.402   4.955   7.422 -0.0610 -0.0582  0.1086
  150SAPE   H7R16574   3.505   4.925   7.394 -1.1645 -1.9064 -2.0810
  150SAPE   H7S16575   3.350   4.863   7.458 -1.2751  0.8942  0.8802
  150SAPE   C2816576   3.397   5.053   7.533 -0.7105  0.0597 -0.0430
  150SAPE   H8R16577   3.330   5.137   7.510 -1.3964 -0.0540  1.5060
  150SAPE   C2916578   3.455   5.054   7.652 -0.0376 -0.5003 -0.0855
  150SAPE   H9R16579   3.445   5.145   7.713  0.8722  1.2850 -2.5373
  150SAPE  C21016580   3.539   4.952   7.723 -0.0504 -0.0518 -0.1685
  150SAPE  H10R16581   3.636   5.003   7.742  0.0906 -0.8003  1.1363
  150SAPE  H10S16582   3.565   4.868   7.655  0.1023  1.4833 -2.0611
  150SAPE  C21116583   3.475   4.897   7.848  0.0105  0.2459 -0.3632
  150SAPE  H11R16584   3.397   4.821   7.834  1.1561 -0.6850 -1.9631
  150SAPE  C21216585   3.493   4.945   7.975  0.0661 -0.4128  0.2552
  150SAPE  H12R16586   3.428   4.904   8.053  1.8874 -1.3916  1.3140
  150SAPE  C21316587   3.574   5.071   8.016  0.0738  0.6321 -0.2313
  150SAPE  H13R16588   3.582   5.135   7.926  0.0849 -1.1449 -1.5243
  150SAPE  H13S16589   3.678   5.037   8.033  0.5458  2.6003  0.9917
  150SAPE  C21416590   3.504   5.147   8.133  0.0775  0.1203 -0.1450
  150SAPE  H14R16591   3.456   5.238   8.094 -1.0179 -0.0814  0.7212
  150SAPE  C21516592   3.502   5.105   8.261 -0.1519  0.5857 -0.0947
  150SAPE  H15R16593   3.451   5.163   8.340 -0.5758 -0.9487  0.7890
  150SAPE  C21616594   3.575   4.976   8.302 -0.1754 -0.4091 -0.1571
  150SAPE  H16R16595   3.617   4.921   8.215  2.0394  1.0329 -0.0312
  150SAPE  H16S16596   3.501   4.905   8.346  2.1893 -2.1577  1.0938
  150SAPE  C21716597   3.678   5.000   8.414 -0.3809  0.3173 -0.0927
  150SAPE  H17R16598   3.623   5.032   8.505 -2.7130 -0.8781 -1.0614
  150SAPE  H17S16599   3.753   5.081   8.398 -1.7261  1.5095 -0.5461
  150SAPE  C21816600   3.777   4.885   8.439 -0.1265  0.3151 -0.2729
  150SAPE  H18R16601   3.875   4.913   8.484  0.7272  2.6918 -3.4589
  150SAPE  H18S16602   3.803   4.845   8.339 -0.1183  0.2937 -0.2605
  150SAPE  C21916603   3.715   4.766   8.513 -0.5401 -0.1432  0.1982
  150SAPE  H19R16604   3.606   4.786   8.504 -0.2722  1.6579  0.7409
  150SAPE  H19S16605   3.755   4.770   8.616  0.5021  0.0036 -0.2066
  150SAPE  C22016606   3.734   4.625   8.461 -0.5862  0.0282 -0.1576
  150SAPE  H20R16607   3.652   4.560   8.500  0.4562 -1.4738 -0.4124
  150SAPE  H20S16608   3.833   4.580   8.479  0.0271  0.7519 -1.6478
  150SAPE  H20T16609   3.712   4.634   8.353  1.8702  1.4542 -0.5672
  150SAPE   C3316610   3.606   3.978   7.225 -0.1951 -0.7964 -0.2498
  150SAPE   H3X16611   3.517   3.915   7.203  0.1274 -1.0028 -0.9911
  150SAPE   H3Y16612   3.571   4.073   7.271  1.2533 -0.8456  0.9918
  150SAPE   C3416613   3.688   3.904   7.339  0.7735  0.1357 -0.0619
  150SAPE   H4X16614   3.794   3.935   7.350  0.2808  1.1619  2.0035
  150SAPE   H4Y16615   3.700   3.796   7.318  0.6097  0.0070  0.5194
  150SAPE   C3516616   3.622   3.913   7.479 -0.7835 -0.4475 -0.1561
  150SAPE   H5X16617   3.512   3.907   7.465 -0.8232  0.5551 -0.3305
  150SAPE   H5Y16618   3.631   4.017   7.517 -0.3751  0.0095 -1.4755
  150SAPE   C3616619   3.666   3.812   7.588  0.2619  0.0910  0.4260
  150SAPE   H6X16620   3.774   3.823   7.614 -0.0434  1.7617  1.0295
  150SAPE   H6Y16621   3.669   3.707   7.551 -0.0108  0.3214 -0.2638
  150SAPE   C3716622   3.577   3.826   7.719 -0.1382 -0.3490 -0.1788
  150SAPE   H7X16623   3.474   3.815   7.679 -0.6788  0.3122  1.0095
  150SAPE   H7Y16624   3.582   3.930   7.759 -2.9330 -0.2028 -0.1306
  150SAPE   C3816625   3.619   3.732   7.827 -0.6110 -0.5662 -0.2463
  150SAPE   H8X16626   3.720   3.754   7.868 -1.9597  2.3179  1.7083
  150SAPE   H8Y16627   3.624   3.633   7.778  1.9370  0.8924 -3.0904
  150SAPE   C3916628   3.529   3.740   7.947  0.2401 -0.7971  0.1215
  150SAPE   H9X16629   3.422   3.758   7.924  0.4374  1.2333  0.6328
  150SAPE   H9Y16630   3.546   3.839   7.995  0.0874 -0.7248  0.0285
  150SAPE  C31016631   3.553   3.632   8.053 -1.6480  0.1519  0.1142
  150SAPE  H10X16632   3.562   3.532   8.007 -5.6392  0.1471 -0.8152
  150SAPE  H10Y16633   3.477   3.619   8.133 -2.0008  2.7357  0.2361
  150SAPE  C31116634   3.681   3.662   8.129 -0.1914  0.5692  0.2957
  150SAPE  H11X16635   3.683   3.748   8.199  3.6171  1.4326 -0.7541
  150SAPE  H11Y16636   3.771   3.654   8.064 -0.6073  0.4248 -0.2611
  150SAPE  C31216637   3.723   3.548   8.233 -0.0748 -0.0693 -0.9189
  150SAPE  H12X16638   3.706   3.448   8.187  2.1637 -1.0759  0.3509
  150SAPE  H12Y16639   3.643   3.549   8.309  2.5587  0.0279  1.9355
  150SAPE  C31316640   3.867   3.556   8.284 -0.2729  0.1278 -0.7612
  150SAPE  H13X16641   3.902   3.658   8.312 -1.5105  0.2892  0.2361
  150SAPE  H13Y16642   3.917   3.525   8.190  1.8119 -0.3681  0.4843
  150SAPE  C31416643   3.900   3.458   8.398 -0.0496  0.0570 -0.0872
  150SAPE  H14X16644   3.817   3.384   8.404 -0.5087  0.6491  1.1172
  150SAPE  H14Y16645   3.881   3.509   8.495 -1.6560 -0.1578 -0.2771
  150SAPE  C31516646   4.042   3.401   8.389 -0.4465 -0.4173 -0.1457
  150SAPE  H15X16647   4.115   3.486   8.391  0.5304 -1.2446 -0.3002
  150SAPE  H15Y16648   4.056   3.357   8.288  1.0519 -1.0775  0.3366
  150SAPE  C31616649   4.070   3.290   8.496  0.3066  0.0179  0.0583
  150SAPE  H16X16650   4.044   3.329   8.597  1.2579 -1.2736  0.8144
  150SAPE  H16Y16651   4.176   3.259   8.484  0.1861  0.4412 -2.4312
  150SAPE  C31716652   3.981   3.171   8.469 -0.0254 -0.2597  0.2439
  150SAPE  H17X16653   4.003   3.149   8.363  1.0555  2.8469 -0.2300
  150SAPE  H17Y16654   3.872   3.193   8.478 -0.1184 -1.1999  1.5771
  150SAPE  C31816655   4.018   3.048   8.542  0.1478  0.3239  0.4124
  150SAPE  H18X16656   3.950   2.964   8.515  2.1247 -0.2062 -3.2832
  150SAPE  H18Y16657   4.015   3.058   8.652 -1.6324  0.6340  0.3524
  150SAPE  H18Z16658   4.122   3.008   8.534 -0.2401 -0.4963 -0.6637
  151SAPE     N16659   6.273   2.030   6.230 -0.8172 -0.0337 -0.0928
  151SAPE   HN116660   6.189   2.000   6.176 -1.6562  2.7047 -0.3825
  151SAPE   HN216661   6.244   2.121   6.271  0.9483  0.9714 -1.0067
  151SAPE   HN316662   6.346   2.054   6.160 -2.6009  1.2473 -1.5910
  151SAPE   C1216663   6.329   1.944   6.341 -0.2890 -0.1271 -0.9751
  151SAPE  H12A16664   6.244   1.892   6.391  0.9821 -1.8676 -0.5590
  151SAPE  H12B16665   6.390   2.006   6.410  0.8164 -1.2265 -0.9350
  151SAPE   C1116666   6.415   1.838   6.284 -0.3807 -0.1983 -0.7730
  151SAPE  H11A16667   6.345   1.768   6.234 -1.5576  0.8448 -0.5940
  151SAPE  H11B16668   6.461   1.787   6.371  1.2068  1.5399 -0.5706
  151SAPE     P16669   6.657   1.938   6.238  0.7667  0.2376 -0.1661
  151SAPE   O1316670   6.741   1.819   6.262  0.4428  0.0236 -0.1773
  151SAPE   O1416671   6.707   2.045   6.147  0.1726  0.4730  0.7207
  151SAPE   O1216672   6.512   1.892   6.194 -0.1056 -0.2468  0.7138
  151SAPE   O1116673   6.620   2.002   6.380 -0.2443 -0.1948  0.1247
  151SAPE    C116674   6.694   2.014   6.500  0.0226 -0.6734  0.0631
  151SAPE    HA16675   6.747   1.918   6.515 -0.4692 -0.5876  2.5340
  151SAPE    HB16676   6.777   2.087   6.483  0.6611 -0.9978  1.6966
  151SAPE    C216677   6.610   2.067   6.617 -0.1024 -0.0417  0.0568
  151SAPE    HS16678   6.671   2.076   6.710  0.0079  4.5419 -0.3771
  151SAPE   O2116679   6.497   1.977   6.646  0.2307  0.5295 -0.1627
  151SAPE   C2116680   6.518   1.852   6.671 -0.6696 -0.1483  0.1158
  151SAPE   O2216681   6.627   1.795   6.680 -0.2569 -0.2645  0.7937
  151SAPE   C2216682   6.393   1.775   6.698  0.4660 -0.2702 -0.2037
  151SAPE   H2R16683   6.313   1.789   6.622  1.8932  0.3462 -1.5956
  151SAPE   H2S16684   6.427   1.670   6.716  1.2980  0.0104 -0.1437
  151SAPE    C316685   6.555   2.210   6.584 -0.4104  0.3818  0.5864
  151SAPE    HX16686   6.520   2.227   6.481  0.6921  3.7693  0.7172
  151SAPE    HY16687   6.648   2.270   6.596  0.8534 -1.7756  1.8901
  151SAPE   O3116688   6.454   2.246   6.677  0.5299  0.4404 -0.6198
  151SAPE   C3116689   6.328   2.245   6.651 -0.0387  0.3661 -0.4965
  151SAPE   O3216690   6.273   2.204   6.548 -0.4981  0.0053  0.1246
  151SAPE   C3216691   6.255   2.293   6.782 -0.8671  0.4736 -0.7096
  151SAPE   H2X16692   6.153   2.248   6.777 -1.3086  1.5479 -1.5163
  151SAPE   H2Y16693   6.261   2.403   6.768 -2.2576  0.6664  0.0595
  151SAPE   C2316694   6.322   1.823   6.825 -0.2203  1.0934  0.1208
  151SAPE   H3R16695   6.242   1.751   6.852  2.3966 -2.0627 -0.3637
  151SAPE   H3S16696   6.282   1.923   6.795  1.5812  1.8584  0.2321
  151SAPE   C2416697   6.401   1.844   6.949 -0.1058 -0.0374 -0.2165
  151SAPE   H4R16698   6.332   1.896   7.019  0.7482 -0.8892  1.2908
  151SAPE   H4S16699   6.485   1.915   6.930 -0.5591 -0.2099 -2.9908
  151SAPE   C2516700   6.460   1.714   7.006  0.2412 -0.7284  0.9450
  151SAPE   H5R16701   6.539   1.660   6.951 -0.0395  2.0200 -2.3551
  151SAPE   C2616702   6.416   1.657   7.122  0.1622 -0.1661 -0.2883
  151SAPE   H6R16703   6.462   1.561   7.150 -1.7195 -1.2879 -0.9328
  151SAPE   C2716704   6.295   1.704   7.198  0.5463 -0.6696 -0.3618
  151SAPE   H7R16705   6.238   1.623   7.249 -1.4634  0.3918 -0.8502
  151SAPE   H7S16706   6.218   1.727   7.121 -0.3039  0.5660  0.8270
  151SAPE   C2816707   6.320   1.833   7.276 -0.0171  0.5338 -0.8717
  151SAPE   H8R16708   6.317   1.926   7.216  0.0890 -0.6615 -2.7810
  151SAPE   C2916709   6.338   1.839   7.405  0.3266  0.0610 -1.0276
  151SAPE   H9R16710   6.369   1.931   7.458  1.7855 -1.2711  0.4797
  151SAPE  C21016711   6.343   1.722   7.494 -0.5496  0.0074  0.0021
  151SAPE  H10R16712   6.450   1.703   7.517 -0.6836  0.2313  0.8037
  151SAPE  H10S16713   6.304   1.629   7.446 -0.0093 -1.6300  2.6296
  151SAPE  C21116714   6.248   1.739   7.613 -0.2435  0.3882 -0.1516
  151SAPE  H11R16715   6.141   1.762   7.598 -0.9402 -2.3097  0.3395
  151SAPE  C21216716   6.288   1.731   7.747 -0.0120 -0.4207  0.4040
  151SAPE  H12R16717   6.214   1.762   7.823 -1.2387 -0.7872 -0.6202
  151SAPE  C21316718   6.432   1.702   7.796  0.0891  0.2295  0.9335
  151SAPE  H13R16719   6.476   1.800   7.823  0.1512 -0.1390  2.2295
  151SAPE  H13S16720   6.497   1.656   7.719 -0.6884  2.6469 -1.2209
  151SAPE  C21416721   6.417   1.604   7.915 -0.0654  0.5526  0.2044
  151SAPE  H14R16722   6.361   1.513   7.890  0.8479  0.4025 -1.3411
  151SAPE  C21516723   6.434   1.624   8.045  0.3984  0.0806 -0.3251
  151SAPE  H15R16724   6.401   1.546   8.115 -1.2957  1.5573  0.5535
  151SAPE  C21616725   6.484   1.751   8.107 -0.2653  0.7914 -0.1087
  151SAPE  H16R16726   6.530   1.812   8.027  0.5993 -0.7273 -0.7836
  151SAPE  H16S16727   6.561   1.728   8.184  0.4241  1.9376 -0.4499
  151SAPE  C21716728   6.361   1.826   8.162 -0.4832 -0.1172  1.0452
  151SAPE  H17R16729   6.296   1.861   8.079 -1.7979 -1.4181  1.5077
  151SAPE  H17S16730   6.408   1.919   8.201  2.1713 -0.7727 -0.4717
  151SAPE  C21816731   6.273   1.759   8.267  0.0432 -0.6906 -0.0890
  151SAPE  H18R16732   6.330   1.720   8.354  0.5271  1.5515  0.6082
  151SAPE  H18S16733   6.227   1.663   8.232  3.3897 -2.1279 -0.8027
  151SAPE  C21916734   6.169   1.850   8.331  0.7065  0.2549 -0.4544
  151SAPE  H19R16735   6.109   1.784   8.398 -0.1241  1.9524  0.5105
  151SAPE  H19S16736   6.102   1.883   8.249  2.3632  4.2220 -0.3167
  151SAPE  C22016737   6.231   1.967   8.406  0.5876 -0.3828  0.1283
  151SAPE  H20R16738   6.145   2.031   8.438  1.5288  1.0527 -0.1615
  151SAPE  H20S16739   6.287   1.927   8.493 -2.7889 -0.2631  2.4763
  151SAPE  H20T16740   6.298   2.027   8.341  1.1469 -0.9446  0.1833
  151SAPE   C3316741   6.326   2.247   6.914 -0.3849 -0.5031 -0.1347
  151SAPE   H3X16742   6.429   2.289   6.911 -1.0300  1.2188  1.5137
  151SAPE   H3Y16743   6.328   2.136   6.920  0.6417 -0.5479 -1.0532
  151SAPE   C3416744   6.249   2.291   7.030 -0.0154  0.3464 -0.3204
  151SAPE   H4X16745   6.152   2.242   7.008 -0.2601  1.2856 -1.4179
  151SAPE   H4Y16746   6.245   2.402   7.016  0.6186  0.4552  0.3585
  151SAPE   C3516747   6.304   2.258   7.169  0.0290 -0.0115 -0.1589
  151SAPE   H5X16748   6.410   2.293   7.174  0.2834 -0.7985 -0.0477
  151SAPE   H5Y16749   6.301   2.149   7.190 -0.0208  0.5064  2.6529
  151SAPE   C3616750   6.224   2.335   7.277  0.2373 -0.3744 -0.1240
  151SAPE   H6X16751   6.117   2.313   7.256  0.2170  0.8432 -1.3877
  151SAPE   H6Y16752   6.251   2.439   7.247 -0.4051  0.1998  1.2654
  151SAPE   C3716753   6.266   2.311   7.415  0.1878 -0.4521 -0.3281
  151SAPE   H7X16754   6.220   2.395   7.471 -0.2599 -1.7498  1.2812
  151SAPE   H7Y16755   6.376   2.306   7.428  0.1255 -1.2040 -0.1075
  151SAPE   C3816756   6.208   2.188   7.477 -0.1770  0.6979  0.2617
  151SAPE   H8X16757   6.229   2.099   7.414  0.4593  0.0919  1.3064
  151SAPE   H8Y16758   6.097   2.195   7.485 -0.2905 -1.6220  0.9682
  151SAPE   C3916759   6.247   2.151   7.627 -0.1082 -0.7371  0.4098
  151SAPE   H9X16760   6.344   2.099   7.613  0.8098  1.2926 -1.1948
  151SAPE   H9Y16761   6.165   2.080   7.650 -0.9961  0.5070  1.1686
  151SAPE  C31016762   6.237   2.263   7.728 -0.0017 -0.1440  0.5744
  151SAPE  H10X16763   6.134   2.306   7.730  0.8739  2.1385 -1.4753
  151SAPE  H10Y16764   6.308   2.343   7.697  1.1266 -0.3301  2.6499
  151SAPE  C31116765   6.274   2.230   7.870  0.0014  0.1546  0.4352
  151SAPE  H11X16766   6.376   2.184   7.877  0.5319  0.8800 -2.1046
  151SAPE  H11Y16767   6.203   2.152   7.903  1.6542 -1.9355 -0.7945
  151SAPE  C31216768   6.251   2.353   7.968  0.0776  0.1634  0.1084
  151SAPE  H12X16769   6.150   2.394   7.946  0.3591  0.2864 -0.9950
  151SAPE  H12Y16770   6.327   2.429   7.939  2.2006 -1.7965  0.3893
  151SAPE  C31316771   6.264   2.324   8.118 -0.3907  0.2239  0.3648
  151SAPE  H13X16772   6.370   2.312   8.150 -1.3362  0.5434  3.7874
  151SAPE  H13Y16773   6.206   2.231   8.136 -1.2657  0.4533 -1.1667
  151SAPE  C31416774   6.201   2.435   8.213  0.4083  0.2506 -0.5318
  151SAPE  H14X16775   6.100   2.465   8.178 -0.1539  0.9827  1.6492
  151SAPE  H14Y16776   6.276   2.517   8.215  0.2207  0.4069  0.8648
  151SAPE  C31516777   6.190   2.383   8.364  0.6901 -0.2399 -0.6634
  151SAPE  H15X16778   6.129   2.290   8.357 -0.9743  0.7637  0.3972
  151SAPE  H15Y16779   6.135   2.444   8.438 -0.1094 -3.6597  1.6761
  151SAPE  C31616780   6.335   2.357   8.422  0.4061 -0.3580 -0.1530
  151SAPE  H16X16781   6.396   2.449   8.413  1.5164 -1.2431 -2.0065
  151SAPE  H16Y16782   6.393   2.283   8.362 -0.0589 -1.4928  0.7721
  151SAPE  C31716783   6.323   2.300   8.564 -0.2570 -0.0063  0.1672
  151SAPE  H17X16784   6.274   2.202   8.550  0.8202 -0.5575  0.2342
  151SAPE  H17Y16785   6.266   2.372   8.627 -2.6657 -0.9566 -0.8714
  151SAPE  C31816786   6.467   2.279   8.616  0.1461 -0.1119 -0.1282
  151SAPE  H18X16787   6.530   2.237   8.534  2.2837  1.4392  0.6845
  151SAPE  H18Y16788   6.470   2.213   8.705 -1.3546 -0.1447 -0.0972
  151SAPE  H18Z16789   6.515   2.375   8.643  0.7485 -0.6849  0.8412
  152SAPE     N16790   3.663   4.947   6.274  0.1048  0.0002 -0.2986
  152SAPE   HN116791   3.599   4.874   6.310  1.1705 -1.1295 -0.6664
  152SAPE   HN216792   3.599   5.013   6.225  2.9972  2.4395 -0.9540
  152SAPE   HN316793   3.743   4.907   6.221  1.6155  1.1088  1.1077
  152SAPE   C1216794   3.719   5.042   6.379 -0.3488  0.2417  0.2828
  152SAPE  H12A16795   3.798   5.101   6.327 -2.1624  0.4148 -2.3406
  152SAPE  H12B16796   3.764   4.977   6.457 -1.9468 -2.0553 -0.6591
  152SAPE   C1116797   3.602   5.124   6.438  0.1201 -0.2885 -0.2874
  152SAPE  H11A16798   3.648   5.191   6.513 -3.1968  1.7529  0.0463
  152SAPE  H11B16799   3.520   5.073   6.494  2.1252 -0.5418  2.5120
  152SAPE     P16800   3.418   5.180   6.264  0.0730  0.0307  0.3727
  152SAPE   O1316801   3.360   5.315   6.218  1.0242 -0.4526 -0.2181
  152SAPE   O1416802   3.463   5.083   6.159  0.0144  0.0091 -0.6003
  152SAPE   O1216803   3.546   5.215   6.342  0.3972 -0.4784 -0.0752
  152SAPE   O1116804   3.327   5.099   6.360 -0.4628 -0.3657 -0.0532
  152SAPE    C116805   3.203   5.167   6.408  0.0932  0.1124 -0.1859
  152SAPE    HA16806   3.150   5.218   6.325 -1.4340 -0.8430  0.1641
  152SAPE    HB16807   3.127   5.098   6.451  0.7370 -0.3961  0.1543
  152SAPE    C216808   3.227   5.277   6.515  0.7641 -0.2698 -0.7757
  152SAPE    HS16809   3.261   5.360   6.449  1.8793  0.7559  1.0338
  152SAPE   O2116810   3.317   5.235   6.616  0.0672 -0.5841  0.3786
  152SAPE   C2116811   3.374   5.337   6.677 -0.1742 -0.1176  0.6117
  152SAPE   O2216812   3.352   5.452   6.644  0.0823 -0.0907  0.4977
  152SAPE   C2216813   3.470   5.280   6.784 -0.2558  0.5143  0.0789
  152SAPE   H2R16814   3.405   5.224   6.855  0.6614  0.0857  0.5913
  152SAPE   H2S16815   3.547   5.209   6.747  0.6304  1.2483  0.4684
  152SAPE    C316816   3.093   5.309   6.586 -0.8260  0.2787  0.6543
  152SAPE    HX16817   3.026   5.339   6.503  0.3642 -0.3035 -0.5232
  152SAPE    HY16818   3.120   5.404   6.637  0.3462 -0.3927  1.3058
  152SAPE   O3116819   3.030   5.212   6.665  0.4325 -0.3891 -0.6544
  152SAPE   C3116820   3.046   5.228   6.798  0.2384  0.5307 -0.2467
  152SAPE   O3216821   3.114   5.311   6.850 -0.2154 -0.1086  0.1402
  152SAPE   C3216822   2.969   5.120   6.880 -0.8268  0.3500 -0.1632
  152SAPE   H2X16823   3.033   5.029   6.891  2.3981  2.6906  1.1403
  152SAPE   H2Y16824   2.868   5.107   6.837 -0.4360 -2.8326 -0.2792
  152SAPE   C2316825   3.554   5.394   6.863  0.2336  0.0266  0.3256
  152SAPE   H3R16826   3.609   5.443   6.780 -2.3167  0.1340 -1.3611
  152SAPE   H3S16827   3.614   5.336   6.935 -2.0695 -0.0208  2.2989
  152SAPE   C2416828   3.481   5.504   6.941  0.0565 -0.6860 -0.0906
  152SAPE   H4R16829   3.424   5.568   6.870 -1.0537  0.7175  1.9818
  152SAPE   H4S16830   3.552   5.574   6.990  0.1656 -0.7426 -0.1689
  152SAPE   C2516831   3.377   5.449   7.036  0.2832 -0.7335 -0.1086
  152SAPE   H5R16832   3.299   5.385   6.993 -2.1981  0.6385  2.1904
  152SAPE   C2616833   3.370   5.473   7.167 -0.1934  0.5194 -0.5921
  152SAPE   H6R16834   3.290   5.417   7.218  1.2094 -1.5447 -0.6134
  152SAPE   C2716835   3.462   5.548   7.264 -0.3669 -0.2673  1.0155
  152SAPE   H7R16836   3.406   5.628   7.317  0.9207  0.9827  0.5404
  152SAPE   H7S16837   3.534   5.599   7.196 -2.3962 -0.0784 -1.0554
  152SAPE   C2816838   3.530   5.446   7.352 -0.3172 -0.3862  0.6071
  152SAPE   H8R16839   3.606   5.388   7.298  0.6138  2.1275 -0.8775
  152SAPE   C2916840   3.518   5.420   7.483 -0.8248 -0.7168  0.0021
  152SAPE   H9R16841   3.585   5.344   7.526  0.2937  0.0169 -0.4452
  152SAPE  C21016842   3.433   5.507   7.575 -0.3828 -0.4274  0.2738
  152SAPE  H10R16843   3.341   5.521   7.515 -0.9547  1.2918  1.5109
  152SAPE  H10S16844   3.496   5.595   7.601 -1.0768  0.0494  0.3345
  152SAPE  C21116845   3.395   5.423   7.696 -0.6173 -0.4263  0.0780
  152SAPE  H11R16846   3.314   5.349   7.687 -1.3067  0.3040  0.1768
  152SAPE  C21216847   3.449   5.433   7.821 -0.8329 -1.0273 -1.4019
  152SAPE  H12R16848   3.430   5.358   7.899 -0.3247 -0.0419 -0.3080
  152SAPE  C21316849   3.547   5.534   7.873  0.7783  0.5858 -0.1153
  152SAPE  H13R16850   3.594   5.597   7.795  2.3483 -2.0726 -1.3921
  152SAPE  H13S16851   3.628   5.486   7.932  1.0687  0.8533 -0.2981
  152SAPE  C21416852   3.476   5.628   7.960 -0.4883 -0.1180  0.7576
  152SAPE  H14R16853   3.421   5.697   7.895  2.0579  2.8760  1.5946
  152SAPE  C21516854   3.466   5.638   8.098 -0.1689 -0.1085  0.3484
  152SAPE  H15R16855   3.407   5.718   8.146 -0.9197  0.3902 -1.3634
  152SAPE  C21616856   3.536   5.541   8.191  0.6408  0.2992  0.3351
  152SAPE  H16R16857   3.559   5.448   8.134 -0.6598 -1.0218  1.9371
  152SAPE  H16S16858   3.470   5.508   8.273  3.3859 -1.1810  2.0227
  152SAPE  C21716859   3.667   5.587   8.256 -0.1413  0.0906  0.0996
  152SAPE  H17R16860   3.701   5.499   8.315  2.0870  0.5604 -0.4161
  152SAPE  H17S16861   3.646   5.675   8.321  0.1176 -0.0715  0.4026
  152SAPE  C21816862   3.778   5.625   8.158 -0.4153  0.2448 -0.5148
  152SAPE  H18R16863   3.750   5.723   8.113  0.8440  1.5497  1.4790
  152SAPE  H18S16864   3.795   5.545   8.082  1.8723 -0.8441  1.0829
  152SAPE  C21916865   3.903   5.666   8.232 -0.2934  0.1570 -0.8736
  152SAPE  H19R16866   3.926   5.602   8.320  0.5259  1.5793 -0.0487
  152SAPE  H19S16867   3.883   5.769   8.266  0.3098  0.1037 -0.3506
  152SAPE  C22016868   4.028   5.671   8.143 -0.5282 -0.6200  0.2848
  152SAPE  H20R16869   3.991   5.717   8.049 -1.0442 -1.4016  0.0922
  152SAPE  H20S16870   4.054   5.563   8.133  0.3540 -0.7100  3.1228
  152SAPE  H20T16871   4.104   5.730   8.198 -0.5362  1.1568 -1.5630
  152SAPE   C3316872   2.948   5.175   7.029  0.3277  0.1274  0.1838
  152SAPE   H3X16873   2.907   5.278   7.034 -0.6464 -0.2665  0.3333
  152SAPE   H3Y16874   3.049   5.181   7.077 -0.2146 -2.2591  1.7037
  152SAPE   C3416875   2.866   5.073   7.108  0.2965 -0.2980  0.4395
  152SAPE   H4X16876   2.915   4.973   7.102  1.4917  0.3998 -2.3811
  152SAPE   H4Y16877   2.762   5.075   7.070  0.1695 -0.1294  0.7994
  152SAPE   C3516878   2.843   5.118   7.253  0.2194  0.2798  0.0416
  152SAPE   H5X16879   2.772   5.041   7.293  1.7194 -1.5804 -0.7965
  152SAPE   H5Y16880   2.795   5.218   7.262  0.5335  0.4790 -0.5075
  152SAPE   C3616881   2.957   5.119   7.349  0.9503  0.4670 -0.1235
  152SAPE   H6X16882   3.034   5.191   7.311  0.0622  0.5368 -1.8640
  152SAPE   H6Y16883   2.995   5.015   7.352 -1.3276 -0.4329 -1.1595
  152SAPE   C3716884   2.915   5.157   7.491  0.4804  0.2954 -0.1996
  152SAPE   H7X16885   2.844   5.078   7.524 -0.1876  0.9231 -0.1039
  152SAPE   H7Y16886   2.873   5.260   7.490 -0.1189  0.0560 -0.5906
  152SAPE   C3816887   3.041   5.149   7.582 -0.7943  0.2622 -0.8248
  152SAPE   H8X16888   3.109   5.236   7.574 -0.8765  0.2229 -2.0004
  152SAPE   H8Y16889   3.097   5.055   7.560 -0.1597  0.7343 -1.2554
  152SAPE   C3916890   2.999   5.144   7.731  0.0147  0.1929 -0.2743
  152SAPE   H9X16891   3.014   5.040   7.770  2.7151  1.2758  1.7526
  152SAPE   H9Y16892   2.889   5.161   7.735  0.2273  1.4910  0.2129
  152SAPE  C31016893   3.076   5.237   7.822  0.4295  0.3491  0.4728
  152SAPE  H10X16894   3.068   5.341   7.784  2.5517  0.7744  1.1328
  152SAPE  H10Y16895   3.184   5.214   7.808  0.3655 -0.0081  0.5617
  152SAPE  C31116896   3.035   5.229   7.975  0.4394  0.4513  0.3458
  152SAPE  H11X16897   2.962   5.145   7.985  0.3189  0.4646 -0.3583
  152SAPE  H11Y16898   2.992   5.327   8.002  1.5935  1.6326 -1.9413
  152SAPE  C31216899   3.165   5.198   8.057 -0.1047  0.0214  1.2371
  152SAPE  H12X16900   3.234   5.280   8.026 -1.8387  1.1573  0.2327
  152SAPE  H12Y16901   3.217   5.107   8.021  0.0755  0.1339  1.2105
  152SAPE  C31316902   3.139   5.188   8.207 -0.1491 -0.2734  0.4626
  152SAPE  H13X16903   3.234   5.186   8.264  0.7480  0.5328 -0.9806
  152SAPE  H13Y16904   3.096   5.086   8.220 -3.6313  1.1868  0.9419
  152SAPE  C31416905   3.034   5.292   8.264 -0.0390  1.1687 -0.3753
  152SAPE  H14X16906   2.940   5.310   8.208 -0.5252  0.8740  0.3397
  152SAPE  H14Y16907   3.097   5.383   8.258  1.0408  0.4336 -0.3559
  152SAPE  C31516908   2.997   5.251   8.408  0.2643 -0.2968 -0.1852
  152SAPE  H15X16909   2.934   5.159   8.405  1.0754 -0.8178 -1.5709
  152SAPE  H15Y16910   2.931   5.333   8.445  3.6140  3.0548 -1.3932
  152SAPE  C31616911   3.114   5.225   8.518  0.0109  0.1455 -0.1307
  152SAPE  H16X16912   3.170   5.134   8.485 -0.0666  0.3220 -0.7530
  152SAPE  H16Y16913   3.061   5.201   8.613  0.1522  0.4389  0.0203
  152SAPE  C31716914   3.221   5.329   8.530  0.3175  0.1212  0.5014
  152SAPE  H17X16915   3.160   5.410   8.576 -1.8123 -0.8965 -0.4727
  152SAPE  H17Y16916   3.252   5.363   8.428  1.4376 -0.0559  0.7749
  152SAPE  C31816917   3.333   5.297   8.628 -0.5273  0.1373 -0.9291
  152SAPE  H18X16918   3.381   5.200   8.604  0.5549  0.3052  0.4995
  152SAPE  H18Y16919   3.280   5.281   8.724 -1.8592  3.6542 -0.9967
  152SAPE  H18Z16920   3.406   5.381   8.633 -1.5950  1.0180  0.3102
  153SAPE     N16921   6.742   5.486   6.037 -0.8956 -0.1612 -0.2298
  153SAPE   HN116922   6.679   5.416   6.080 -0.4084  1.4695  3.3023
  153SAPE   HN216923   6.687   5.572   6.017 -0.0194  0.0223 -1.9892
  153SAPE   HN316924   6.778   5.456   5.944  2.6443 -0.7749  1.2809
  153SAPE   C1216925   6.830   5.509   6.155  0.0663 -0.0680  0.1120
  153SAPE  H12A16926   6.878   5.412   6.181 -1.5669 -0.6990  0.8131
  153SAPE  H12B16927   6.766   5.542   6.239 -0.5623 -0.5849 -0.1625
  153SAPE   C1116928   6.936   5.617   6.118  0.8083 -0.2018  0.1841
  153SAPE  H11A16929   7.029   5.588   6.065  0.3053  0.6174 -1.1664
  153SAPE  H11B16930   6.974   5.651   6.217 -2.2603 -1.6289  1.9279
  153SAPE     P16931   6.849   5.857   6.089 -0.0493  0.0427  0.2354
  153SAPE   O1316932   6.974   5.931   6.064  0.2993 -0.0656  0.8319
  153SAPE   O1416933   6.731   5.908   6.025  0.1702 -0.7104  0.5169
  153SAPE   O1216934   6.866   5.711   6.030 -0.4705  0.3589 -0.2071
  153SAPE   O1116935   6.817   5.836   6.241 -0.3107  0.0509 -0.1517
  153SAPE    C116936   6.683   5.860   6.295 -0.3451 -0.4443 -0.7934
  153SAPE    HA16937   6.592   5.840   6.235 -0.0147  0.4741 -1.6080
  153SAPE    HB16938   6.673   5.795   6.385 -2.3684  0.0202 -0.6662
  153SAPE    C216939   6.686   6.008   6.361  0.3488  0.3455  0.5097
  153SAPE    HS16940   6.715   6.077   6.278  1.7738  0.0751  0.7816
  153SAPE   O2116941   6.785   6.021   6.463 -0.2542  0.2808  0.1608
  153SAPE   C2116942   6.806   6.148   6.505 -0.0369  0.2492  0.8365
  153SAPE   O2216943   6.778   6.245   6.440 -0.3274  0.7637  0.1873
  153SAPE   C2216944   6.877   6.155   6.635  0.4081 -0.0591  0.5673
  153SAPE   H2R16945   6.934   6.060   6.651 -0.8339 -0.5419  2.3472
  153SAPE   H2S16946   6.962   6.224   6.617  0.1930  0.0745  0.0637
  153SAPE    C316947   6.549   6.046   6.417  0.3957  0.2759 -0.5516
  153SAPE    HX16948   6.482   6.057   6.329  0.4938 -1.7872 -0.9207
  153SAPE    HY16949   6.554   6.144   6.468 -1.5858  0.3053 -0.3711
  153SAPE   O3116950   6.505   5.947   6.520 -0.3654  0.2543  0.5746
  153SAPE   C3116951   6.425   5.996   6.612 -0.5142 -0.3751 -1.0371
  153SAPE   O3216952   6.371   6.105   6.609  0.0333 -0.7239  0.5166
  153SAPE   C3216953   6.412   5.897   6.729 -0.0677 -0.6415 -0.0051
  153SAPE   H2X16954   6.503   5.834   6.735  1.1694  1.0213 -1.1297
  153SAPE   H2Y16955   6.329   5.827   6.703 -1.1365  0.0869  1.4164
  153SAPE   C2316956   6.781   6.196   6.755  0.3831 -0.2860  0.3715
  153SAPE   H3R16957   6.708   6.113   6.767  0.9864 -0.4221  3.8331
  153SAPE   H3S16958   6.721   6.284   6.725 -0.1374  0.0757  2.3904
  153SAPE   C2416959   6.853   6.225   6.892  0.2364 -0.3035  0.3890
  153SAPE   H4R16960   6.795   6.297   6.955 -0.4408  1.4626 -2.1555
  153SAPE   H4S16961   6.947   6.275   6.861 -0.4454  0.5673 -0.2860
  153SAPE   C2516962   6.891   6.095   6.965 -1.0552  0.0816 -0.0170
  153SAPE   H5R16963   6.927   6.022   6.892 -0.4623  0.3806 -0.0245
  153SAPE   C2616964   6.879   6.058   7.095  0.4830 -0.2419 -0.2445
  153SAPE   H6R16965   6.916   5.963   7.135  0.2305 -0.8295 -1.4175
  153SAPE   C2716966   6.833   6.155   7.206  0.7501  0.1225  0.0623
  153SAPE   H7R16967   6.793   6.095   7.291 -2.2349  2.2917  0.2654
  153SAPE   H7S16968   6.752   6.215   7.161 -1.0048 -0.7872  1.9225
  153SAPE   C2816969   6.945   6.242   7.250  0.3508  0.5904  0.3572
  153SAPE   H8R16970   6.988   6.300   7.168 -1.2749  2.6596  0.9305
  153SAPE   C2916971   6.999   6.265   7.370 -0.0061 -0.0569  0.9675
  153SAPE   H9R16972   7.081   6.339   7.367 -0.4411  0.3952 -1.0074
  153SAPE  C21016973   6.960   6.216   7.503  0.6634  0.0053 -0.0618
  153SAPE  H10R16974   7.052   6.178   7.552 -0.4413 -1.2884  1.0335
  153SAPE  H10S16975   6.902   6.122   7.501  2.8386 -1.3969  0.7988
  153SAPE  C21116976   6.887   6.302   7.604 -0.8574 -0.3321  0.2637
  153SAPE  H11R16977   6.822   6.381   7.563 -1.7326 -1.8440 -1.3195
  153SAPE  C21216978   6.889   6.309   7.740  0.1870  0.8470  0.5245
  153SAPE  H12R16979   6.813   6.366   7.796  0.7818  1.1130  1.0679
  153SAPE  C21316980   6.973   6.209   7.824 -0.2602 -0.1985 -0.2901
  153SAPE  H13R16981   7.039   6.144   7.763  0.0928  1.9511 -2.3119
  153SAPE  H13S16982   6.918   6.150   7.900 -0.1979  0.6944  0.4571
  153SAPE  C21416983   7.078   6.284   7.907 -0.1629  0.2421  0.1718
  153SAPE  H14R16984   7.174   6.303   7.858 -0.4173 -2.8364 -1.6309
  153SAPE  C21516985   7.072   6.303   8.040 -0.5709 -0.0588  0.0654
  153SAPE  H15R16986   7.161   6.350   8.084 -1.0037  0.6579  0.1943
  153SAPE  C21616987   6.955   6.277   8.135  0.4614  0.5243  0.6724
  153SAPE  H16R16988   6.878   6.243   8.063  2.4510 -0.4643 -1.0241
  153SAPE  H16S16989   6.923   6.372   8.183  1.8411 -0.1338  2.9344
  153SAPE  C21716990   6.977   6.178   8.247  0.0006 -0.1280  0.4735
  153SAPE  H17R16991   7.065   6.200   8.311  2.0166 -2.5513 -1.3828
  153SAPE  H17S16992   7.003   6.078   8.208  4.2020  1.5121 -1.1689
  153SAPE  C21816993   6.846   6.174   8.334 -0.0830  0.0475  0.2424
  153SAPE  H18R16994   6.761   6.160   8.264  0.3470  0.3478 -0.3512
  153SAPE  H18S16995   6.835   6.268   8.392 -4.3620  1.4063 -2.5007
  153SAPE  C21916996   6.833   6.054   8.433  0.2163  0.5341 -0.6426
  153SAPE  H19R16997   6.907   6.057   8.517  1.4296  0.0583 -1.6806
  153SAPE  H19S16998   6.836   5.956   8.380  1.1548  0.8353 -1.1612
  153SAPE  C22016999   6.686   6.051   8.496 -0.4813 -0.4880 -0.5679
  153SAPE  H20R17000   6.674   5.949   8.539 -0.2518 -0.6927 -0.9819
  153SAPE  H20S17001   6.609   6.066   8.417 -2.5720 -2.3399  1.0725
  153SAPE  H20T17002   6.677   6.133   8.570 -2.9788 -0.6626 -0.6431
  153SAPE   C3317003   6.375   5.981   6.846 -0.1643  0.1468 -0.3344
  153SAPE   H3X17004   6.280   6.039   6.839 -0.6304 -0.6815 -1.1712
  153SAPE   H3Y17005   6.448   6.061   6.868  0.9962 -0.8017 -0.6507
  153SAPE   C3417006   6.379   5.894   6.974  0.2900 -0.6442  0.2283
  153SAPE   H4X17007   6.470   5.830   6.972  0.0236 -1.0344  0.4567
  153SAPE   H4Y17008   6.305   5.811   6.970  1.1050 -1.3027 -1.4124
  153SAPE   C3517009   6.356   5.972   7.104 -0.4093  0.6315  0.2234
  153SAPE   H5X17010   6.253   6.010   7.120 -0.2478  0.9444  0.5146
  153SAPE   H5Y17011   6.415   6.065   7.100 -1.7604  1.4224 -3.7643
  153SAPE   C3617012   6.401   5.899   7.226 -0.1681  0.1558 -0.4117
  153SAPE   H6X17013   6.511   5.888   7.222 -0.2163 -0.9934  1.1682
  153SAPE   H6Y17014   6.347   5.802   7.219 -0.1717  0.0719  0.7439
  153SAPE   C3717015   6.357   5.974   7.347  0.1335  0.6189  0.4023
  153SAPE   H7X17016   6.252   6.010   7.337 -0.0323  0.2679  0.8600
  153SAPE   H7Y17017   6.410   6.071   7.356  0.7518  0.0017  3.9410
  153SAPE   C3817018   6.384   5.906   7.481 -1.0314 -0.2753  1.0591
  153SAPE   H8X17019   6.492   5.882   7.487 -1.3015 -1.7363  0.4196
  153SAPE   H8Y17020   6.338   5.805   7.491  0.2545 -1.0851 -0.8111
  153SAPE   C3917021   6.338   5.987   7.605  0.3125 -0.3354  0.1634
  153SAPE   H9X17022   6.231   5.970   7.629  0.1864  1.2332  0.7332
  153SAPE   H9Y17023   6.334   6.094   7.575 -1.7295 -0.4151  0.0697
  153SAPE  C31017024   6.427   5.967   7.727 -0.6338  0.2088 -0.1022
  153SAPE  H10X17025   6.409   6.043   7.806 -2.0645 -0.5037  0.2688
  153SAPE  H10Y17026   6.532   5.987   7.698 -0.3963 -0.5979  0.2133
  153SAPE  C31117027   6.403   5.834   7.795  0.1317  0.7932 -0.4329
  153SAPE  H11X17028   6.497   5.820   7.852 -1.0155  0.6431  1.4444
  153SAPE  H11Y17029   6.391   5.763   7.710  1.5539  1.5785 -1.3222
  153SAPE  C31217030   6.285   5.829   7.893 -0.5041  0.1086  0.1091
  153SAPE  H12X17031   6.288   5.725   7.933 -0.8130  0.3438  0.7379
  153SAPE  H12Y17032   6.192   5.847   7.835  1.0295  2.5745 -1.6973
  153SAPE  C31317033   6.297   5.925   8.010 -0.8898 -0.0814  0.2577
  153SAPE  H13X17034   6.241   6.019   7.992 -1.1071 -0.7040 -2.4834
  153SAPE  H13Y17035   6.405   5.952   8.012 -0.8424 -0.1231 -1.3357
  153SAPE  C31417036   6.260   5.875   8.154 -0.4426  0.8203 -0.4580
  153SAPE  H14X17037   6.329   5.799   8.196 -0.0990  1.3724 -0.0226
  153SAPE  H14Y17038   6.154   5.842   8.144 -0.3918  1.1393 -2.2623
  153SAPE  C31517039   6.266   5.993   8.262  0.9778  0.1731  0.6784
  153SAPE  H15X17040   6.192   6.070   8.232  0.1247 -1.1341 -0.6106
  153SAPE  H15Y17041   6.370   6.032   8.268  0.8182  0.6024  0.6542
  153SAPE  C31617042   6.216   5.941   8.404 -0.2823  0.5340  0.5906
  153SAPE  H16X17043   6.105   5.940   8.403 -0.3403  1.4783  3.2266
  153SAPE  H16Y17044   6.249   6.027   8.466  0.2576  0.8760 -0.1617
  153SAPE  C31717045   6.278   5.811   8.452 -1.1174  0.6582  0.4052
  153SAPE  H17X17046   6.387   5.812   8.431 -0.5938  0.0745  2.9035
  153SAPE  H17Y17047   6.240   5.720   8.401  0.7538 -1.2032  2.2033
  153SAPE  C31817048   6.265   5.798   8.607 -0.5374 -0.0542  0.3528
  153SAPE  H18X17049   6.336   5.862   8.664 -1.3456  0.3845  0.8829
  153SAPE  H18Y17050   6.298   5.698   8.641  2.6952  0.4962 -1.0186
  153SAPE  H18Z17051   6.164   5.813   8.651 -0.0498  1.4454  1.0095
  154SAPE     N17052   4.170   5.077   6.169 -0.0738  0.5533  0.7459
  154SAPE   HN117053   4.178   4.973   6.175  1.0929  0.4463 -2.0051
  154SAPE   HN217054   4.084   5.110   6.120 -1.5388 -2.5826  1.0791
  154SAPE   HN317055   4.252   5.101   6.111 -2.1139  0.1871 -2.4142
  154SAPE   C1217056   4.173   5.151   6.309 -0.3945  0.5431 -0.5862
  154SAPE  H12A17057   4.276   5.128   6.343  0.9684  2.1408 -3.4193
  154SAPE  H12B17058   4.107   5.094   6.378  0.3916  0.1972 -0.1147
  154SAPE   C1117059   4.148   5.294   6.298 -0.4555 -0.0286 -0.0890
  154SAPE  H11A17060   4.153   5.349   6.394  1.7144 -1.2600  0.5341
  154SAPE  H11B17061   4.041   5.307   6.268 -0.6006 -1.4253 -0.2071
  154SAPE     P17062   4.390   5.389   6.232  0.0543 -0.1037 -0.4397
  154SAPE   O1317063   4.482   5.336   6.128 -0.1662  0.3797 -0.1215
  154SAPE   O1417064   4.389   5.538   6.240  0.9135  0.1635  0.2727
  154SAPE   O1217065   4.240   5.352   6.204  0.2281 -0.7033  0.1082
  154SAPE   O1117066   4.424   5.323   6.371  0.4116 -0.1000 -0.2876
  154SAPE    C117067   4.441   5.396   6.494  0.5702 -0.0436  1.1161
  154SAPE    HA17068   4.513   5.480   6.479  0.3517  0.0040  0.3341
  154SAPE    HB17069   4.342   5.437   6.521 -0.5061 -2.2463  0.6321
  154SAPE    C217070   4.487   5.323   6.614 -0.4302 -0.3732  0.2008
  154SAPE    HS17071   4.470   5.371   6.713 -0.4437 -0.1825  0.1049
  154SAPE   O2117072   4.622   5.298   6.594  0.2311 -0.6006  0.4425
  154SAPE   C2117073   4.711   5.395   6.598  0.0742  0.2580 -0.2122
  154SAPE   O2217074   4.689   5.509   6.638 -0.0737 -1.2213 -0.0894
  154SAPE   C2217075   4.838   5.345   6.545 -0.2193  0.3741 -0.3502
  154SAPE   H2R17076   4.851   5.244   6.590 -0.3646  1.5257  2.3664
  154SAPE   H2S17077   4.823   5.346   6.434  1.7815  2.7960 -0.6331
  154SAPE    C317078   4.414   5.181   6.624 -0.3226 -0.5739  0.5360
  154SAPE    HX17079   4.462   5.121   6.704 -1.3569  0.6899  2.1438
  154SAPE    HY17080   4.436   5.123   6.532  0.6667  0.8649 -0.1548
  154SAPE   O3117081   4.271   5.193   6.641  0.1257 -0.7428 -0.2793
  154SAPE   C3117082   4.232   5.205   6.772  0.2348 -0.4705  0.5418
  154SAPE   O3217083   4.301   5.177   6.869 -0.4438 -0.0148 -0.1078
  154SAPE   C3217084   4.078   5.235   6.780  0.4654  0.0428 -1.1486
  154SAPE   H2X17085   4.018   5.183   6.702 -1.8843 -0.5194  0.9629
  154SAPE   H2Y17086   4.077   5.345   6.767  1.1664  0.5281  2.5903
  154SAPE   C2317087   4.955   5.428   6.584 -0.0698 -0.4837 -0.7210
  154SAPE   H3R17088   4.931   5.536   6.568  1.1923  0.1740  1.5741
  154SAPE   H3S17089   5.039   5.402   6.517  0.6170  0.6144 -0.3164
  154SAPE   C2417090   4.991   5.429   6.742 -0.4482  0.4629  0.6825
  154SAPE   H4R17091   4.904   5.482   6.786 -0.1790  1.3197  0.1881
  154SAPE   H4S17092   5.081   5.493   6.750 -0.0720 -0.0519  0.6282
  154SAPE   C2517093   5.015   5.299   6.819 -0.6987 -0.5868  0.4279
  154SAPE   H5R17094   5.072   5.223   6.763 -0.5148  1.0134 -1.6364
  154SAPE   C2617095   4.980   5.264   6.946 -0.2849  0.0585  0.3130
  154SAPE   H6R17096   5.006   5.166   6.989 -1.1000 -1.1422 -1.8565
  154SAPE   C2717097   4.910   5.355   7.041 -0.5553  0.4359  0.2610
  154SAPE   H7R17098   4.807   5.365   7.001  0.1454  2.2278 -1.1545
  154SAPE   H7S17099   4.955   5.456   7.037  1.1988 -0.3436 -0.2894
  154SAPE   C2817100   4.897   5.326   7.189  0.0015  0.6151  0.4197
  154SAPE   H8R17101   4.794   5.325   7.227 -0.3135  0.8938 -0.4214
  154SAPE   C2917102   4.995   5.305   7.276 -0.4869  0.0252 -0.3638
  154SAPE   H9R17103   4.964   5.272   7.376 -1.4020 -0.2164 -0.7130
  154SAPE  C21017104   5.141   5.306   7.269 -0.0240 -0.1795 -1.4190
  154SAPE  H10R17105   5.169   5.276   7.166 -0.6301 -2.0059 -1.0715
  154SAPE  H10S17106   5.182   5.226   7.334 -2.2755 -0.2724 -0.0768
  154SAPE  C21117107   5.204   5.442   7.291 -0.4848  0.2215  0.0950
  154SAPE  H11R17108   5.216   5.509   7.205 -1.0753  0.1206 -0.0687
  154SAPE  C21217109   5.223   5.493   7.416  0.3599  0.8550  0.1770
  154SAPE  H12R17110   5.270   5.592   7.428 -0.8254  1.2986  1.2611
  154SAPE  C21317111   5.201   5.428   7.544  0.9250 -0.3105  0.2791
  154SAPE  H13R17112   5.253   5.495   7.617 -2.5591  2.5288  0.2590
  154SAPE  H13S17113   5.246   5.327   7.535  0.0455 -0.8621  1.9285
  154SAPE  C21417114   5.055   5.421   7.592  0.5443  0.2422 -0.6666
  154SAPE  H14R17115   4.973   5.434   7.520 -1.1766  0.6736  1.3142
  154SAPE  C21517116   5.025   5.379   7.717  0.1282 -0.5977 -0.3045
  154SAPE  H15R17117   4.918   5.393   7.739 -0.1468 -2.6874 -0.2039
  154SAPE  C21617118   5.116   5.347   7.843  0.3027 -0.9130  0.2867
  154SAPE  H16R17119   5.167   5.442   7.869 -3.2784  1.6152 -1.4266
  154SAPE  H16S17120   5.203   5.282   7.819  2.1438  1.2794  0.9075
  154SAPE  C21717121   5.047   5.292   7.975 -0.3409  0.0171  0.0751
  154SAPE  H17R17122   4.999   5.196   7.946  0.1496 -0.0394 -0.5631
  154SAPE  H17S17123   4.977   5.366   8.018 -0.0609  0.1899  0.2331
  154SAPE  C21817124   5.148   5.266   8.091 -0.9584 -0.4257  0.3799
  154SAPE  H18R17125   5.169   5.363   8.141 -2.3305  1.0251 -1.7328
  154SAPE  H18S17126   5.239   5.217   8.050  0.0370  1.1018  0.7374
  154SAPE  C21917127   5.085   5.175   8.195 -0.1057  0.5955  0.7334
  154SAPE  H19R17128   5.054   5.086   8.137 -3.7926  1.7100  0.8972
  154SAPE  H19S17129   4.995   5.230   8.229 -1.4866 -0.4750 -1.1208
  154SAPE  C22017130   5.183   5.142   8.315  0.0359  0.2854 -0.7254
  154SAPE  H20R17131   5.121   5.080   8.383 -1.0719 -0.4869 -2.4027
  154SAPE  H20S17132   5.212   5.230   8.376 -1.4347 -0.4007  1.0357
  154SAPE  H20T17133   5.273   5.088   8.280 -1.1700 -1.3120 -1.4297
  154SAPE   C3317134   4.009   5.218   6.919  0.4683 -0.3470  0.4044
  154SAPE   H3X17135   3.906   5.258   6.916  0.4006 -0.5937 -0.8678
  154SAPE   H3Y17136   4.062   5.268   7.003  1.2391 -0.1474 -0.1895
  154SAPE   C3417137   3.998   5.070   6.962  0.2853  0.0605  0.4882
  154SAPE   H4X17138   4.092   5.041   7.013  0.1918  1.0126  1.2373
  154SAPE   H4Y17139   3.983   5.005   6.874  3.9490 -1.8720  1.2219
  154SAPE   C3517140   3.885   5.049   7.064 -0.1769 -0.2159  0.1417
  154SAPE   H5X17141   3.877   4.942   7.094  2.4513  0.2351  2.7002
  154SAPE   H5Y17142   3.792   5.075   7.010  1.2081  1.2983 -1.6021
  154SAPE   C3617143   3.884   5.136   7.191  0.1966  0.4048  0.8536
  154SAPE   H6X17144   3.878   5.242   7.159  0.4971  0.4476  0.9456
  154SAPE   H6Y17145   3.982   5.111   7.237  0.3302 -0.6572  0.0036
  154SAPE   C3717146   3.761   5.121   7.293  0.2821 -0.5541  0.1343
  154SAPE   H7X17147   3.673   5.082   7.237  0.3995  0.7805 -1.0110
  154SAPE   H7Y17148   3.726   5.225   7.312  0.2364 -1.2188  4.0166
  154SAPE   C3817149   3.804   5.043   7.418  0.0637  0.5862  1.3645
  154SAPE   H8X17150   3.732   5.067   7.498 -1.8187 -0.9689  0.1745
  154SAPE   H8Y17151   3.899   5.077   7.465  1.1737  0.1351 -0.4711
  154SAPE   C3917152   3.795   4.890   7.398 -0.6334  1.2538  0.7148
  154SAPE   H9X17153   3.854   4.851   7.313 -1.6165 -0.1784  0.6573
  154SAPE   H9Y17154   3.688   4.871   7.372 -0.4243  2.0747 -0.7544
  154SAPE  C31017155   3.828   4.809   7.530  0.1631  0.6372 -0.0519
  154SAPE  H10X17156   3.770   4.715   7.536  2.2483 -0.6838 -0.1326
  154SAPE  H10Y17157   3.783   4.874   7.608  0.9612  0.4543  0.5663
  154SAPE  C31117158   3.972   4.777   7.565  0.6371 -0.4492 -0.0264
  154SAPE  H11X17159   4.037   4.863   7.539 -1.3398  0.4772 -1.9741
  154SAPE  H11Y17160   4.008   4.689   7.507  1.1510 -1.8100  2.2717
  154SAPE  C31217161   3.989   4.775   7.723  0.4756  0.1530  0.1760
  154SAPE  H12X17162   3.942   4.869   7.760  1.4193  0.7067 -0.0338
  154SAPE  H12Y17163   4.098   4.779   7.742  0.5801 -1.6993  0.1228
  154SAPE  C31317164   3.949   4.641   7.788 -0.9300 -0.0212  0.1905
  154SAPE  H13X17165   4.035   4.572   7.796 -1.0217 -0.2069 -0.4367
  154SAPE  H13Y17166   3.866   4.591   7.734 -1.5101  0.7728  0.3364
  154SAPE  C31417167   3.903   4.650   7.927 -0.1779 -0.4471  0.3752
  154SAPE  H14X17168   3.872   4.544   7.945 -1.7035  0.2826  2.3153
  154SAPE  H14Y17169   3.814   4.716   7.922  1.2344  1.4624  0.2361
  154SAPE  C31517170   3.992   4.725   8.026 -0.4579  0.3547 -0.3109
  154SAPE  H15X17171   3.939   4.718   8.124 -1.3857  1.6677 -0.7011
  154SAPE  H15Y17172   4.007   4.832   8.002  2.0340 -0.2476 -1.5443
  154SAPE  C31617173   4.133   4.660   8.048 -0.4611  0.4122 -0.1360
  154SAPE  H16X17174   4.192   4.717   8.122  0.1453 -0.6868  0.2498
  154SAPE  H16Y17175   4.176   4.655   7.945  2.0794  1.7099  0.8278
  154SAPE  C31717176   4.138   4.519   8.106 -0.0939 -0.2963 -0.2358
  154SAPE  H17X17177   4.083   4.449   8.038 -0.1148  1.1270 -1.6968
  154SAPE  H17Y17178   4.107   4.515   8.213  4.3594  0.5065  1.1743
  154SAPE  C31817179   4.274   4.455   8.105 -0.5273  0.0161 -0.3070
  154SAPE  H18X17180   4.346   4.525   8.154 -1.6031  0.3845  0.7985
  154SAPE  H18Y17181   4.297   4.436   7.999 -0.4626 -0.2417 -0.2455
  154SAPE  H18Z17182   4.272   4.366   8.172  0.2606 -0.7004 -1.2325
  155SAPE     N17183   4.283   5.963   6.274 -0.3292  0.6067  0.4413
  155SAPE   HN117184   4.192   5.958   6.224  0.8835 -1.4966 -1.6398
  155SAPE   HN217185   4.295   5.874   6.326  0.8023 -0.5650 -1.7703
  155SAPE   HN317186   4.286   6.051   6.329 -0.5111  0.2133  1.0962
  155SAPE   C1217187   4.367   5.968   6.156 -1.2258  0.3648  0.4620
  155SAPE  H12A17188   4.366   6.063   6.099 -0.4681 -0.1333 -0.4048
  155SAPE  H12B17189   4.340   5.890   6.081 -1.4827  1.0822 -0.1981
  155SAPE   C1117190   4.520   5.938   6.180 -0.0595  0.1568 -0.0210
  155SAPE  H11A17191   4.562   5.906   6.083 -0.3332 -1.7901  0.4819
  155SAPE  H11B17192   4.532   5.857   6.256  0.2034  0.5307  0.3385
  155SAPE     P17193   4.740   6.058   6.287  0.1355 -0.0517 -0.0809
  155SAPE   O1317194   4.843   5.996   6.195 -0.0953 -0.2823 -0.0211
  155SAPE   O1417195   4.765   6.200   6.333 -0.0738  0.1555  0.0931
  155SAPE   O1217196   4.594   6.050   6.223  0.0615  0.6892  0.2757
  155SAPE   O1117197   4.726   5.961   6.408 -0.7078 -0.7122 -0.1983
  155SAPE    C117198   4.634   5.975   6.515  0.1355 -0.1763 -0.2613
  155SAPE    HA17199   4.572   6.065   6.494  0.0347 -0.3261 -0.6157
  155SAPE    HB17200   4.565   5.889   6.525 -2.5030  1.7787 -1.1585
  155SAPE    C217201   4.704   6.014   6.646  0.1097 -0.0931 -0.4178
  155SAPE    HS17202   4.772   6.097   6.616 -1.4850  1.5283  0.3003
  155SAPE   O2117203   4.782   5.900   6.687  0.5691  0.3160 -0.4724
  155SAPE   C2117204   4.888   5.920   6.758 -0.7956 -0.0967 -0.1950
  155SAPE   O2217205   4.939   6.027   6.786  0.3662 -0.5392  0.2755
  155SAPE   C2217206   4.948   5.784   6.810  0.0081  0.0642  0.6209
  155SAPE   H2R17207   4.862   5.715   6.825 -0.2547  0.2876  0.1387
  155SAPE   H2S17208   5.009   5.758   6.720 -0.3411  2.4563 -0.3377
  155SAPE    C317209   4.594   6.047   6.755  0.1158 -0.4193 -0.2170
  155SAPE    HX17210   4.534   5.958   6.783 -1.5532  1.5426  2.8678
  155SAPE    HY17211   4.520   6.113   6.705  0.8506 -0.4801 -1.4033
  155SAPE   O3117212   4.649   6.109   6.880  0.9342 -0.9754 -0.0383
  155SAPE   C3117213   4.699   6.230   6.875 -0.1378 -1.1622 -0.1949
  155SAPE   O3217214   4.699   6.303   6.776 -0.6487 -0.1988  0.3901
  155SAPE   C3217215   4.778   6.265   7.000 -0.3005 -0.4395  0.2665
  155SAPE   H2X17216   4.790   6.375   6.998  2.0309 -0.6533  0.5541
  155SAPE   H2Y17217   4.878   6.216   7.002 -1.1768 -2.2909  0.0646
  155SAPE   C2317218   5.047   5.800   6.935 -0.5092  0.7127 -0.0227
  155SAPE   H3R17219   5.122   5.878   6.910  0.7912 -0.7491 -0.7656
  155SAPE   H3S17220   5.092   5.701   6.960  1.5974  1.3376 -1.2185
  155SAPE   C2417221   4.969   5.849   7.062  0.6999  1.0309  0.1870
  155SAPE   H4R17222   4.886   5.916   7.032  0.0091 -0.3134 -1.0137
  155SAPE   H4S17223   5.040   5.908   7.123 -0.7919  0.8056  2.1960
  155SAPE   C2517224   4.908   5.731   7.139 -0.4129  0.2116  0.5845
  155SAPE   H5R17225   4.829   5.679   7.082  1.2451  0.3752 -1.9669
  155SAPE   C2617226   4.909   5.702   7.268  0.0010 -0.1161  0.2723
  155SAPE   H6R17227   4.864   5.607   7.302  1.7740 -1.2711 -0.5112
  155SAPE   C2717228   4.987   5.780   7.370  0.3067  0.2227 -0.3252
  155SAPE   H7R17229   5.085   5.794   7.320  0.5116 -0.4575 -0.1169
  155SAPE   H7S17230   5.012   5.707   7.451 -1.2805 -1.6727 -1.4896
  155SAPE   C2817231   4.939   5.923   7.417  0.1846 -0.1542 -0.4070
  155SAPE   H8R17232   4.946   6.003   7.342  0.7327  0.9092  0.7663
  155SAPE   C2917233   4.918   5.944   7.554  0.2163  0.4295 -0.3437
  155SAPE   H9R17234   4.886   6.046   7.579 -2.1941  0.0778 -1.8004
  155SAPE  C21017235   4.938   5.834   7.664  0.5655 -0.3410 -0.3131
  155SAPE  H10R17236   5.038   5.785   7.659  0.4296 -0.4484 -2.2925
  155SAPE  H10S17237   4.861   5.756   7.644  0.2360 -0.0238 -0.2825
  155SAPE  C21117238   4.931   5.891   7.807 -0.5190 -0.2827  0.7448
  155SAPE  H11R17239   4.934   6.001   7.818 -1.0837 -0.1665 -0.1879
  155SAPE  C21217240   4.929   5.816   7.917 -0.7062  0.9079  0.3538
  155SAPE  H12R17241   4.943   5.865   8.014 -0.1336  1.1016  0.1788
  155SAPE  C21317242   4.919   5.667   7.919 -0.4465  0.5204 -0.6703
  155SAPE  H13R17243   5.007   5.619   7.966  0.1176  3.9758  1.9665
  155SAPE  H13S17244   4.910   5.633   7.813 -1.1200 -0.2569 -0.3777
  155SAPE  C21417245   4.798   5.612   7.993  0.2927 -0.3508 -0.1183
  155SAPE  H14R17246   4.726   5.559   7.930  0.2478  0.6952 -0.9767
  155SAPE  C21517247   4.759   5.627   8.121  0.4002  0.0931 -0.5800
  155SAPE  H15R17248   4.668   5.575   8.153 -0.6888  0.3947 -3.0568
  155SAPE  C21617249   4.832   5.704   8.239  0.2442 -0.6400  0.1590
  155SAPE  H16R17250   4.753   5.766   8.287  0.4827  0.7354 -1.1925
  155SAPE  H16S17251   4.923   5.760   8.209  0.7668 -0.5129  1.9123
  155SAPE  C21717252   4.893   5.606   8.335  0.2319 -0.5864 -0.1035
  155SAPE  H17R17253   4.940   5.527   8.273 -1.1430 -0.9462 -0.6984
  155SAPE  H17S17254   4.820   5.547   8.394  0.2316 -1.4830 -0.9927
  155SAPE  C21817255   5.008   5.659   8.426  0.1093 -0.2622  0.6994
  155SAPE  H18R17256   5.081   5.713   8.363 -0.9185 -0.0756 -0.3426
  155SAPE  H18S17257   5.075   5.579   8.466  0.2929 -0.0188  0.8833
  155SAPE  C21917258   4.958   5.744   8.548 -0.0622 -0.4669  0.2678
  155SAPE  H19R17259   4.895   5.825   8.505  1.1711 -0.0342 -0.7773
  155SAPE  H19S17260   5.043   5.800   8.592  0.2858 -0.7467 -0.0468
  155SAPE  C22017261   4.878   5.685   8.666  0.1423 -0.1550  1.4034
  155SAPE  H20R17262   4.929   5.608   8.728  1.5951 -2.1385 -2.0964
  155SAPE  H20S17263   4.775   5.655   8.635  0.3692 -0.6148  1.0844
  155SAPE  H20T17264   4.863   5.768   8.739 -1.3117  0.3885  0.5088
  155SAPE   C3317265   4.695   6.226   7.121  0.2140 -0.2587 -0.0105
  155SAPE   H3X17266   4.779   6.202   7.190  2.2365 -1.6846 -2.8570
  155SAPE   H3Y17267   4.632   6.135   7.121  1.5270 -1.3169  5.0627
  155SAPE   C3417268   4.617   6.341   7.180 -0.0369 -0.2492  0.3828
  155SAPE   H4X17269   4.553   6.377   7.097 -0.6674  0.4341  1.1580
  155SAPE   H4Y17270   4.686   6.426   7.202  0.7240 -0.5878 -0.6503
  155SAPE   C3517271   4.543   6.295   7.309 -0.0777  0.2844  0.3302
  155SAPE   H5X17272   4.459   6.225   7.294 -1.0946  1.1913  1.7053
  155SAPE   H5Y17273   4.494   6.385   7.352 -2.4156 -0.5814 -0.4487
  155SAPE   C3617274   4.637   6.229   7.416  0.7008  0.6714 -0.1402
  155SAPE   H6X17275   4.743   6.260   7.406  0.7786  0.1140 -1.0579
  155SAPE   H6Y17276   4.624   6.122   7.388 -0.0201 -0.0710  2.8212
  155SAPE   C3717277   4.580   6.249   7.561 -0.4892  0.2324 -0.4273
  155SAPE   H7X17278   4.483   6.196   7.562 -0.2079 -0.3048 -1.1137
  155SAPE   H7Y17279   4.572   6.356   7.590  0.0098 -0.2287  1.5026
  155SAPE   C3817280   4.671   6.181   7.665  0.9704 -0.0705 -0.2518
  155SAPE   H8X17281   4.753   6.247   7.701  1.3563  0.1083 -1.4355
  155SAPE   H8Y17282   4.705   6.083   7.625 -0.0097 -0.7215  0.4993
  155SAPE   C3917283   4.589   6.166   7.796  0.4795 -0.1600  0.7176
  155SAPE   H9X17284   4.495   6.109   7.784 -0.6219  1.0861  2.9815
  155SAPE   H9Y17285   4.547   6.262   7.833  0.5017 -0.5910  1.8980
  155SAPE  C31017286   4.670   6.103   7.912  0.3461  0.1238 -0.2202
  155SAPE  H10X17287   4.759   6.164   7.939 -1.2708  1.3508  2.4720
  155SAPE  H10Y17288   4.713   6.008   7.873 -1.0818  0.8453 -3.7619
  155SAPE  C31117289   4.586   6.078   8.038  0.3793  0.4093 -0.7109
  155SAPE  H11X17290   4.491   6.028   8.009 -0.5897  1.9893 -0.3588
  155SAPE  H11Y17291   4.561   6.180   8.076 -1.5600  0.4665 -2.0712
  155SAPE  C31217292   4.658   5.995   8.151 -0.2199  0.0952  0.1491
  155SAPE  H12X17293   4.716   5.917   8.098 -2.0372 -3.6307  3.4086
  155SAPE  H12Y17294   4.594   5.931   8.215  0.6593 -2.8930 -1.8477
  155SAPE  C31317295   4.753   6.076   8.239  0.5219 -0.2980  0.7732
  155SAPE  H13X17296   4.782   6.156   8.168 -0.2470  0.6385  1.4876
  155SAPE  H13Y17297   4.840   6.012   8.264  0.5122 -0.7730 -0.4091
  155SAPE  C31417298   4.680   6.139   8.360 -0.4495 -0.2307  0.2889
  155SAPE  H14X17299   4.585   6.190   8.331  0.7094  0.7450 -1.9162
  155SAPE  H14Y17300   4.746   6.214   8.409  1.3643 -0.1469 -2.2140
  155SAPE  C31517301   4.663   6.036   8.468 -0.2173 -0.4188 -0.3777
  155SAPE  H15X17302   4.760   5.986   8.488 -0.7691 -1.0750  0.7504
  155SAPE  H15Y17303   4.608   5.952   8.420  0.5796  0.8890 -3.6759
  155SAPE  C31617304   4.594   6.068   8.603 -0.4325  0.4070  0.2143
  155SAPE  H16X17305   4.590   5.969   8.653  0.4400  0.4331  0.3515
  155SAPE  H16Y17306   4.496   6.111   8.573  0.8210  1.4509 -2.5012
  155SAPE  C31717307   4.660   6.177   8.685 -0.1857 -0.7558  0.0103
  155SAPE  H17X17308   4.587   6.181   8.768 -0.6463 -0.5392 -0.3953
  155SAPE  H17Y17309   4.664   6.272   8.626  1.7065 -1.6589 -1.3647
  155SAPE  C31817310   4.802   6.150   8.742 -0.0397  0.0663 -0.3758
  155SAPE  H18X17311   4.823   6.041   8.753 -2.1110 -0.4384 -1.2703
  155SAPE  H18Y17312   4.822   6.208   8.834 -0.4464 -0.7707  0.2509
  155SAPE  H18Z17313   4.867   6.184   8.659  0.9296  2.3690  1.2681
  156SAPE     N17314   3.070   0.021   5.926  0.1440  0.3913 -0.0874
  156SAPE   HN117315   3.020   0.111   5.919 -0.6164  0.0171  0.5484
  156SAPE   HN217316   3.131   0.034   6.010 -0.1528 -1.1256  0.3823
  156SAPE   HN317317   3.132   0.003   5.844  1.1269  2.2636  0.2213
  156SAPE   C1217318   2.983  -0.100   5.950 -0.1822 -0.1647 -0.0591
  156SAPE  H12A17319   3.050  -0.188   5.950  0.7992  0.5471  1.9726
  156SAPE  H12B17320   2.902  -0.118   5.877 -1.8095  1.5821  1.2456
  156SAPE   C1117321   2.910  -0.069   6.083  0.1969 -0.1291  0.3236
  156SAPE  H11A17322   2.813  -0.016   6.072  0.8534  1.0264  0.0565
  156SAPE  H11B17323   2.967   0.003   6.145 -0.2845 -0.6431  1.3867
  156SAPE     P17324   2.953  -0.259   6.263  0.0451 -0.1107  0.1686
  156SAPE   O1317325   2.901  -0.394   6.267 -0.0378  0.0476  0.0287
  156SAPE   O1417326   3.092  -0.228   6.233 -0.3859  0.0199 -0.2302
  156SAPE   O1217327   2.873  -0.193   6.145 -0.9859 -0.2136 -0.8644
  156SAPE   O1117328   2.917  -0.184   6.395  0.1472  0.1469  0.5995
  156SAPE    C117329   2.780  -0.163   6.429 -0.1239 -0.2585 -0.1388
  156SAPE    HA17330   2.751  -0.056   6.417 -1.1847 -0.6508 -1.1110
  156SAPE    HB17331   2.714  -0.234   6.375 -2.1954  1.3678  0.1710
  156SAPE    C217332   2.737  -0.179   6.588  0.2072  0.6414 -0.1683
  156SAPE    HS17333   2.628  -0.160   6.602  0.0352 -0.7990  0.5432
  156SAPE   O2117334   2.817  -0.099   6.665 -0.4355 -0.2828 -0.1693
  156SAPE   C2117335   2.778   0.028   6.666  0.0750 -0.6677 -0.0823
  156SAPE   O2217336   2.681   0.072   6.603  0.1356 -0.1801 -0.2522
  156SAPE   C2217337   2.856   0.105   6.771 -0.5569  0.5057 -0.0154
  156SAPE   H2R17338   2.961   0.068   6.765 -1.0083 -0.8646  0.3699
  156SAPE   H2S17339   2.865   0.213   6.746  0.1183 -0.2251 -3.1255
  156SAPE    C317340   2.755  -0.327   6.638 -1.1018 -0.6341  0.6644
  156SAPE    HX17341   2.852  -0.372   6.609  0.0456  1.1056  1.7572
  156SAPE    HY17342   2.680  -0.389   6.583 -0.9907  1.5597 -2.0376
  156SAPE   O3117343   2.731  -0.342   6.777  0.4190 -0.6182  0.0822
  156SAPE   C3117344   2.723  -0.468   6.822  0.4973  0.6600 -0.3789
  156SAPE   O3217345   2.717  -0.568   6.752 -0.3630  0.4142 -0.1143
  156SAPE   C3217346   2.699  -0.464   6.970 -0.0060  0.4631 -0.3735
  156SAPE   H2X17347   2.602  -0.512   6.993  0.0692  1.4322  2.1049
  156SAPE   H2Y17348   2.702  -0.359   7.006 -1.6589  0.6744 -0.8162
  156SAPE   C2317349   2.817   0.080   6.917 -0.1984  0.2348 -0.4253
  156SAPE   H3R17350   2.815  -0.026   6.950  1.5199  0.4499  0.4648
  156SAPE   H3S17351   2.713   0.119   6.927 -0.3150 -0.0182 -0.6571
  156SAPE   C2417352   2.909   0.163   7.016  0.1016  0.0591 -0.1343
  156SAPE   H4R17353   2.915   0.264   6.971 -0.3423 -0.6230 -1.7825
  156SAPE   H4S17354   3.011   0.119   7.014  0.4195  0.8394 -1.5466
  156SAPE   C2517355   2.868   0.168   7.165 -0.6311 -0.2683 -0.4089
  156SAPE   H5R17356   2.771   0.219   7.171 -0.9998 -0.9627 -0.5224
  156SAPE   C2617357   2.930   0.151   7.282  0.8859 -0.3458 -0.0230
  156SAPE   H6R17358   2.871   0.182   7.369 -0.0987 -1.9603 -0.0904
  156SAPE   C2717359   3.073   0.114   7.294 -0.4152  0.0626 -0.0181
  156SAPE   H7R17360   3.127   0.210   7.282  0.0972 -0.3952 -1.6508
  156SAPE   H7S17361   3.117   0.057   7.209  0.8162  2.3406 -0.9645
  156SAPE   C2817362   3.111   0.032   7.416  0.6817  0.0967  0.3330
  156SAPE   H8R17363   3.129  -0.076   7.412  0.0227 -0.0033 -0.0246
  156SAPE   C2917364   3.099   0.077   7.544  0.0544 -0.5625  0.3417
  156SAPE   H9R17365   3.132   0.003   7.618  0.6327  0.9448  1.6082
  156SAPE  C21017366   3.057   0.214   7.598 -0.4441  0.7777 -0.1249
  156SAPE  H10R17367   2.953   0.241   7.569 -1.0076  1.2540  2.2455
  156SAPE  H10S17368   3.125   0.290   7.557  0.9438 -0.6297 -0.4868
  156SAPE  C21117369   3.044   0.200   7.751  0.0863 -0.2182 -0.5654
  156SAPE  H11R17370   3.044   0.098   7.791 -1.0769 -0.6895 -1.7331
  156SAPE  C21217371   3.050   0.296   7.837 -0.5018  0.1897  0.1808
  156SAPE  H12R17372   3.059   0.270   7.944 -0.4773 -1.1627 -0.1466
  156SAPE  C21317373   3.052   0.446   7.805 -0.4759  0.0209  0.1567
  156SAPE  H13R17374   3.108   0.458   7.710 -1.7321 -0.3311 -0.6398
  156SAPE  H13S17375   3.098   0.497   7.893 -0.5552 -0.3024  0.3858
  156SAPE  C21417376   2.912   0.497   7.775 -0.0184  0.2577 -0.9324
  156SAPE  H14R17377   2.857   0.436   7.702  0.4696 -1.7011  0.3058
  156SAPE  C21517378   2.847   0.601   7.827  0.4066  0.7934 -0.8123
  156SAPE  H15R17379   2.743   0.627   7.803 -0.8915 -1.6796  1.8407
  156SAPE  C21617380   2.904   0.698   7.932  0.5303 -0.6028  0.1794
  156SAPE  H16R17381   2.963   0.778   7.882  1.6591 -0.4760  1.6903
  156SAPE  H16S17382   2.972   0.648   8.005 -0.7236 -1.0313  1.0716
  156SAPE  C21717383   2.791   0.757   8.020 -0.2993 -0.4825  0.5173
  156SAPE  H17R17384   2.725   0.821   7.958  1.7789  1.9823  0.7766
  156SAPE  H17S17385   2.843   0.824   8.091 -1.9746  1.6578 -0.2241
  156SAPE  C21817386   2.717   0.653   8.098  0.5024  0.0699 -0.3733
  156SAPE  H18R17387   2.787   0.613   8.174 -1.0662  0.4470  1.3225
  156SAPE  H18S17388   2.694   0.561   8.040  0.6248  1.2379 -2.2968
  156SAPE  C21917389   2.587   0.705   8.166 -0.8248 -0.0482  0.0903
  156SAPE  H19R17390   2.590   0.803   8.218 -1.3376 -0.0435  0.1201
  156SAPE  H19S17391   2.548   0.628   8.236 -0.6002  0.6190  0.9692
  156SAPE  C22017392   2.483   0.730   8.052  0.1812  0.4350 -0.0937
  156SAPE  H20R17393   2.472   0.638   7.991 -0.3576  0.9952 -0.8325
  156SAPE  H20S17394   2.515   0.814   7.987 -0.0820  0.0086 -0.7777
  156SAPE  H20T17395   2.384   0.742   8.101  1.1048  1.7081  1.5371
  156SAPE   C3317396   2.804  -0.551   7.053  0.9989 -0.5545  0.2213
  156SAPE   H3X17397   2.906  -0.507   7.039 -0.1488  2.0721 -0.1907
  156SAPE   H3Y17398   2.817  -0.654   7.013 -1.1990 -0.5958 -0.4639
  156SAPE   C3417399   2.795  -0.552   7.204 -0.2527  0.0625  0.0938
  156SAPE   H4X17400   2.774  -0.453   7.250 -0.6377  0.0848 -0.1330
  156SAPE   H4Y17401   2.893  -0.568   7.254  1.3823  3.3105 -1.9414
  156SAPE   C3517402   2.681  -0.642   7.256 -0.0266 -0.1605  0.1967
  156SAPE   H5X17403   2.668  -0.739   7.203 -0.0349 -1.1509  1.9553
  156SAPE   H5Y17404   2.584  -0.590   7.276 -0.7931 -1.9424  1.2657
  156SAPE   C3617405   2.714  -0.690   7.397 -0.1249 -0.4331  0.2928
  156SAPE   H6X17406   2.816  -0.732   7.411  0.0560 -0.1468 -0.1372
  156SAPE   H6Y17407   2.637  -0.761   7.431 -1.2036  1.2977  1.5095
  156SAPE   C3717408   2.720  -0.576   7.495 -0.3646  0.0020  0.0086
  156SAPE   H7X17409   2.630  -0.512   7.483 -2.1507 -2.2432  1.1586
  156SAPE   H7Y17410   2.813  -0.516   7.485 -0.2223 -0.0855  0.7970
  156SAPE   C3817411   2.712  -0.622   7.642  0.4985  0.3845 -0.2022
  156SAPE   H8X17412   2.809  -0.674   7.660 -0.0157 -1.0319 -1.4647
  156SAPE   H8Y17413   2.628  -0.694   7.636  0.7146  0.3179 -3.4730
  156SAPE   C3917414   2.679  -0.512   7.745  0.4205  0.0035 -0.2483
  156SAPE   H9X17415   2.582  -0.459   7.734  0.6505  0.6815  0.8374
  156SAPE   H9Y17416   2.761  -0.437   7.735 -0.6158  1.2567  0.5216
  156SAPE  C31017417   2.694  -0.572   7.888 -0.0425  0.3288  0.6252
  156SAPE  H10X17418   2.803  -0.593   7.899 -0.3764 -1.2118  1.1116
  156SAPE  H10Y17419   2.639  -0.669   7.892  1.0788 -0.3367  0.2436
  156SAPE  C31117420   2.623  -0.503   8.003 -0.2974  0.2488  0.3319
  156SAPE  H11X17421   2.513  -0.514   8.002 -0.4807  1.6829  2.4051
  156SAPE  H11Y17422   2.652  -0.397   7.991 -1.4094  0.3265 -1.9150
  156SAPE  C31217423   2.662  -0.552   8.140 -0.9291  0.0011  0.0822
  156SAPE  H12X17424   2.771  -0.533   8.138 -1.1042  1.6744  3.2589
  156SAPE  H12Y17425   2.639  -0.660   8.151  0.3054 -0.5776 -2.4779
  156SAPE  C31317426   2.611  -0.462   8.258 -0.8172 -0.6740  0.8958
  156SAPE  H13X17427   2.501  -0.447   8.245 -0.3806  2.0924 -0.0205
  156SAPE  H13Y17428   2.673  -0.371   8.243  1.0149 -1.5198  3.1385
  156SAPE  C31417429   2.656  -0.502   8.396  0.7142 -0.1740  0.1886
  156SAPE  H14X17430   2.654  -0.406   8.451  0.1545  0.4481 -0.9145
  156SAPE  H14Y17431   2.757  -0.548   8.405  0.8322  0.4626  2.3224
  156SAPE  C31517432   2.566  -0.603   8.474 -0.0693  0.8110 -0.3034
  156SAPE  H15X17433   2.585  -0.699   8.423 -1.1509  0.7374 -0.5784
  156SAPE  H15Y17434   2.460  -0.571   8.465 -1.9754 -4.8282  0.3955
  156SAPE  C31617435   2.612  -0.614   8.622 -0.5430  0.2632 -0.4861
  156SAPE  H16X17436   2.621  -0.514   8.670 -0.2793 -0.5732  1.2398
  156SAPE  H16Y17437   2.714  -0.656   8.635  1.0278  4.0556  0.1120
  156SAPE  C31717438   2.509  -0.694   8.698  0.2244  0.3765 -0.0062
  156SAPE  H17X17439   2.424  -0.622   8.704 -1.3333 -1.4369  0.1766
  156SAPE  H17Y17440   2.534  -0.711   8.805 -0.5764  0.3397  0.1775
  156SAPE  C31817441   2.469  -0.829   8.637 -0.1346 -0.4006 -0.6040
  156SAPE  H18X17442   2.557  -0.894   8.619  1.1865  0.6245  1.8394
  156SAPE  H18Y17443   2.423  -0.808   8.538 -1.5077  1.1732  0.3438
  156SAPE  H18Z17444   2.399  -0.885   8.702 -0.5139 -0.6308 -1.2100
  157SAPE     N17445   0.445   1.903   5.998 -0.0865 -0.3332  0.5387
  157SAPE   HN117446   0.459   1.881   5.897  2.2143 -3.6522  1.4930
  157SAPE   HN217447   0.348   1.870   6.018  1.0343 -2.9757  1.8055
  157SAPE   HN317448   0.449   2.005   6.017  1.3011 -0.4908  1.1858
  157SAPE   C1217449   0.535   1.832   6.085  0.2490  0.9485 -0.0699
  157SAPE  H12A17450   0.547   1.882   6.183 -2.3196  1.2159  0.1453
  157SAPE  H12B17451   0.636   1.827   6.038  0.4895 -1.3294  0.6078
  157SAPE   C1117452   0.503   1.687   6.112  0.4215  0.3978 -0.0997
  157SAPE  H11A17453   0.584   1.638   6.170  0.0915  0.4515  0.4080
  157SAPE  H11B17454   0.518   1.642   6.012  0.3624  0.4452 -0.1301
  157SAPE     P17455   0.327   1.544   6.242  0.4545  0.0550  0.2387
  157SAPE   O1317456   0.180   1.544   6.260 -0.3185 -0.0587 -0.1227
  157SAPE   O1417457   0.383   1.415   6.192  0.5463 -0.2605  0.2419
  157SAPE   O1217458   0.370   1.663   6.149  0.9382  0.6385  0.4623
  157SAPE   O1117459   0.394   1.592   6.379 -0.3791 -0.3808 -0.4993
  157SAPE    C117460   0.380   1.730   6.420  0.7084  0.3488  0.7285
  157SAPE    HA17461   0.443   1.794   6.355  0.0402 -1.4322 -1.7618
  157SAPE    HB17462   0.280   1.775   6.405  1.2455  1.6869  1.1389
  157SAPE    C217463   0.411   1.749   6.566  0.2983 -0.3127  0.2210
  157SAPE    HS17464   0.403   1.860   6.571  1.9535 -0.1917  0.3767
  157SAPE   O2117465   0.540   1.686   6.605 -0.1188  0.5553 -0.0645
  157SAPE   C2117466   0.640   1.773   6.594  0.3305 -0.7779 -0.2250
  157SAPE   O2217467   0.625   1.885   6.545  0.2664 -0.0932  0.5444
  157SAPE   C2217468   0.774   1.711   6.625  0.0375  0.0058 -0.2105
  157SAPE   H2R17469   0.764   1.604   6.655  0.8406  0.1310  0.5145
  157SAPE   H2S17470   0.830   1.719   6.530  2.1399 -0.1326  0.9993
  157SAPE    C317471   0.298   1.693   6.657  0.0474  0.3191  0.1031
  157SAPE    HX17472   0.278   1.588   6.627 -0.6873  0.7319 -0.8567
  157SAPE    HY17473   0.209   1.759   6.644  0.1359  0.4202  0.0123
  157SAPE   O3117474   0.334   1.689   6.793  0.2028 -0.2597  0.1113
  157SAPE   C3117475   0.390   1.585   6.851  0.1685 -0.1852  0.1415
  157SAPE   O3217476   0.435   1.485   6.791 -0.3398  0.1237 -1.0973
  157SAPE   C3217477   0.387   1.606   7.006 -0.9697 -0.0743 -0.2334
  157SAPE   H2X17478   0.320   1.689   7.036 -0.9651 -0.2173  0.1711
  157SAPE   H2Y17479   0.491   1.637   7.028 -1.0055  0.6014 -0.9633
  157SAPE   C2317480   0.849   1.787   6.737  0.0854  0.4487  0.4029
  157SAPE   H3R17481   0.870   1.894   6.717  0.0301  0.5411  0.8393
  157SAPE   H3S17482   0.952   1.745   6.747 -0.0735  0.5039  2.3068
  157SAPE   C2417483   0.798   1.783   6.885  0.3225  0.3893 -0.5933
  157SAPE   H4R17484   0.710   1.848   6.903  0.2301  0.3633 -0.9611
  157SAPE   H4S17485   0.875   1.846   6.935 -0.9948  1.2670  0.3319
  157SAPE   C2517486   0.798   1.651   6.955 -0.3614 -0.2093 -1.0590
  157SAPE   H5R17487   0.806   1.563   6.889  3.0548 -0.7490 -0.0595
  157SAPE   C2617488   0.796   1.631   7.086  0.6007 -0.7814  0.0647
  157SAPE   H6R17489   0.801   1.527   7.122 -1.0229 -0.7140  0.5534
  157SAPE   C2717490   0.771   1.725   7.202  0.4438  0.4248  0.0071
  157SAPE   H7R17491   0.717   1.663   7.276  2.9902  0.1515  1.6911
  157SAPE   H7S17492   0.699   1.805   7.174  0.8259  0.2907 -1.3824
  157SAPE   C2817493   0.892   1.800   7.243 -0.1126  0.4693  0.1432
  157SAPE   H8R17494   0.910   1.899   7.198 -1.3811  1.3802  1.5994
  157SAPE   C2917495   0.981   1.763   7.340  0.8109 -0.3735  0.1568
  157SAPE   H9R17496   1.077   1.816   7.352  0.9848 -0.5371 -0.4673
  157SAPE  C21017497   0.978   1.637   7.426  0.5711  0.0293 -0.1313
  157SAPE  H10R17498   1.070   1.618   7.485 -0.4124 -0.3970  1.2903
  157SAPE  H10S17499   0.972   1.550   7.357 -1.4044 -0.4762  0.6365
  157SAPE  C21117500   0.859   1.636   7.525 -0.2940 -0.0293  0.2376
  157SAPE  H11R17501   0.763   1.597   7.488  0.8483 -0.9500 -1.8217
  157SAPE  C21217502   0.872   1.674   7.652  0.3810 -0.3397  0.1369
  157SAPE  H12R17503   0.781   1.672   7.714 -0.5754 -0.0561 -1.2137
  157SAPE  C21317504   1.002   1.721   7.717 -0.0441  0.6675 -0.3913
  157SAPE  H13R17505   1.078   1.757   7.644 -0.8578  1.1265 -1.0055
  157SAPE  H13S17506   1.048   1.626   7.753 -0.8940  0.3362 -0.1629
  157SAPE  C21417507   0.991   1.830   7.819 -0.0085 -0.2538 -0.4102
  157SAPE  H14R17508   1.050   1.921   7.797 -0.8347  0.3052 -0.3388
  157SAPE  C21517509   0.931   1.830   7.937  0.0786  0.0948 -0.5391
  157SAPE  H15R17510   0.926   1.909   8.013 -0.5009 -1.0642  0.6351
  157SAPE  C21617511   0.855   1.715   7.994  0.6850 -0.1584 -0.1553
  157SAPE  H16R17512   0.875   1.616   7.948  1.1295  0.4848 -1.3668
  157SAPE  H16S17513   0.744   1.719   7.990  0.7309  0.3709 -1.1023
  157SAPE  C21717514   0.883   1.679   8.144  0.5500  0.4240 -0.3148
  157SAPE  H17R17515   0.871   1.571   8.168 -2.3551  0.9641  0.9326
  157SAPE  H17S17516   0.811   1.738   8.204 -2.0832  0.2006 -3.1089
  157SAPE  C21817517   1.026   1.716   8.180 -0.0575 -1.1540 -0.0089
  157SAPE  H18R17518   1.042   1.824   8.199 -0.5848 -1.4061  1.9355
  157SAPE  H18S17519   1.095   1.686   8.098 -0.2906 -1.9219  0.0764
  157SAPE  C21917520   1.077   1.650   8.310 -0.2940 -0.1700 -0.4089
  157SAPE  H19R17521   1.182   1.675   8.338 -0.1306 -1.3422  0.0208
  157SAPE  H19S17522   1.088   1.541   8.294 -0.1240 -0.0022 -1.4771
  157SAPE  C22017523   1.008   1.680   8.441  0.0664 -0.5297 -0.0511
  157SAPE  H20R17524   0.967   1.783   8.429 -3.0312 -1.4063  2.5037
  157SAPE  H20S17525   1.069   1.668   8.533  0.7100  0.2213 -0.3705
  157SAPE  H20T17526   0.919   1.614   8.442  1.4925 -2.4585  0.6741
  157SAPE   C3317527   0.360   1.481   7.094 -0.4600  0.1188 -0.0548
  157SAPE   H3X17528   0.410   1.394   7.046 -0.7976 -0.2741  0.2979
  157SAPE   H3Y17529   0.253   1.450   7.095  0.2280 -2.3599  1.7273
  157SAPE   C3417530   0.398   1.498   7.243 -0.5090  0.1072  0.7248
  157SAPE   H4X17531   0.509   1.496   7.255  0.0102  0.3172 -3.2413
  157SAPE   H4Y17532   0.364   1.417   7.310  1.1996  0.6228  2.2427
  157SAPE   C3517533   0.345   1.630   7.293 -0.1022 -0.0116  0.1761
  157SAPE   H5X17534   0.236   1.637   7.277 -0.1818  2.2229  1.5511
  157SAPE   H5Y17535   0.394   1.710   7.233  1.9476 -2.4930 -1.6039
  157SAPE   C3617536   0.361   1.645   7.443  0.3461  0.7191 -0.2253
  157SAPE   H6X17537   0.306   1.558   7.485  0.5631  1.1337  0.9320
  157SAPE   H6Y17538   0.318   1.739   7.484  0.2007  0.3586  0.4561
  157SAPE   C3717539   0.501   1.630   7.509 -0.0135  0.0197  0.3002
  157SAPE   H7X17540   0.584   1.695   7.474  2.4127 -3.0483  0.1262
  157SAPE   H7Y17541   0.530   1.528   7.475 -2.4346 -0.8828  0.8456
  157SAPE   C3817542   0.491   1.625   7.661 -0.1378  0.0175  0.3803
  157SAPE   H8X17543   0.590   1.611   7.711  0.4681  0.2710 -0.7293
  157SAPE   H8Y17544   0.427   1.541   7.694 -0.9765  0.8790  0.9467
  157SAPE   C3917545   0.450   1.766   7.725  0.0958  0.5382  0.7360
  157SAPE   H9X17546   0.348   1.795   7.691  0.6457  0.6173 -0.9137
  157SAPE   H9Y17547   0.512   1.845   7.676 -1.3476  0.8577 -0.6320
  157SAPE  C31017548   0.468   1.780   7.874 -0.0318  0.4354 -0.4978
  157SAPE  H10X17549   0.568   1.818   7.902  0.6000 -1.4814 -0.0374
  157SAPE  H10Y17550   0.458   1.682   7.927 -0.6182  0.7825  0.0390
  157SAPE  C31117551   0.352   1.870   7.932  0.5113 -0.4095  0.3629
  157SAPE  H11X17552   0.252   1.824   7.917  1.4701 -2.9029  1.3659
  157SAPE  H11Y17553   0.370   1.962   7.871 -1.3617 -0.0629  0.3134
  157SAPE  C31217554   0.364   1.914   8.083 -0.4278 -0.0734 -0.2933
  157SAPE  H12X17555   0.282   1.984   8.109  0.5453  0.6003  0.9710
  157SAPE  H12Y17556   0.462   1.965   8.090  0.5449 -1.7371 -1.2927
  157SAPE  C31317557   0.362   1.798   8.195  0.3694  0.3799 -0.0067
  157SAPE  H13X17558   0.431   1.720   8.157 -0.0254 -1.3127  2.6466
  157SAPE  H13Y17559   0.261   1.754   8.179  0.0550  0.5288  1.5662
  157SAPE  C31417560   0.390   1.832   8.337  0.0569  0.8238 -0.2409
  157SAPE  H14X17561   0.330   1.762   8.399 -0.7720 -0.2654 -2.2117
  157SAPE  H14Y17562   0.347   1.930   8.369  2.1477  1.8020 -0.3548
  157SAPE  C31517563   0.537   1.839   8.376 -0.7852  0.0098  1.1306
  157SAPE  H15X17564   0.590   1.925   8.331 -2.2561 -0.6554 -2.0091
  157SAPE  H15Y17565   0.595   1.754   8.336 -0.4956  0.7888 -0.1090
  157SAPE  C31617566   0.556   1.851   8.527 -0.2278 -0.3809 -0.3716
  157SAPE  H16X17567   0.501   1.764   8.571  0.7065 -0.9074 -0.2354
  157SAPE  H16Y17568   0.516   1.944   8.572  0.8334  0.0849 -0.3831
  157SAPE  C31717569   0.705   1.844   8.566 -0.4835  0.0627  0.4457
  157SAPE  H17X17570   0.752   1.938   8.528  0.8933 -0.1374  1.6096
  157SAPE  H17Y17571   0.752   1.756   8.518 -2.5208  0.0782 -1.6491
  157SAPE  C31817572   0.719   1.853   8.715  0.2097 -0.5655 -0.4675
  157SAPE  H18X17573   0.696   1.757   8.766  0.5190 -0.3052  0.1634
  157SAPE  H18Y17574   0.646   1.922   8.763  1.4864  1.4070 -1.3100
  157SAPE  H18Z17575   0.821   1.891   8.739  1.0276 -2.4493 -0.9046
  158SAPE     N17576   2.235   5.362   6.136 -0.6579 -0.1325 -0.0046
  158SAPE   HN117577   2.251   5.385   6.036 -0.2710  0.3630  0.1709
  158SAPE   HN217578   2.325   5.341   6.184 -0.5147  1.6910  0.5500
  158SAPE   HN317579   2.164   5.286   6.146 -0.5171 -0.8228 -3.6665
  158SAPE   C1217580   2.186   5.494   6.203 -0.4653 -0.2665 -0.2760
  158SAPE  H12A17581   2.179   5.468   6.311 -0.2821 -0.2898 -0.2709
  158SAPE  H12B17582   2.083   5.518   6.167 -0.6078 -0.1712  0.1883
  158SAPE   C1117583   2.295   5.614   6.201  0.3141 -0.2703  0.5507
  158SAPE  H11A17584   2.268   5.698   6.268  2.9376 -0.5723  2.0230
  158SAPE  H11B17585   2.307   5.640   6.094  0.7680  0.8984  0.8859
  158SAPE     P17586   2.541   5.665   6.258 -0.3133 -0.2616 -0.5206
  158SAPE   O1317587   2.665   5.592   6.236 -0.0857 -0.3182 -0.0551
  158SAPE   O1417588   2.519   5.784   6.174  0.0047 -0.1489  0.6696
  158SAPE   O1217589   2.426   5.565   6.236  0.0446  0.1158 -0.1921
  158SAPE   O1117590   2.518   5.689   6.415  0.8532 -0.3454  0.4271
  158SAPE    C117591   2.497   5.582   6.506  0.6295 -0.8607 -0.3165
  158SAPE    HA17592   2.420   5.512   6.468 -0.5924  0.2712  0.0321
  158SAPE    HB17593   2.597   5.535   6.523  0.3975 -1.5212 -0.7480
  158SAPE    C217594   2.465   5.634   6.646  0.4573  0.1476 -0.0263
  158SAPE    HS17595   2.471   5.548   6.716  1.0726 -0.1050 -0.3769
  158SAPE   O2117596   2.332   5.693   6.650  0.3022  0.0829  0.3652
  158SAPE   C2117597   2.240   5.599   6.661  0.4805 -0.2954 -0.4516
  158SAPE   O2217598   2.254   5.481   6.668  0.4763  0.3182 -0.1022
  158SAPE   C2217599   2.109   5.671   6.680 -0.7635 -0.4565 -0.6170
  158SAPE   H2R17600   2.076   5.725   6.588  0.5859  0.6145 -0.4887
  158SAPE   H2S17601   2.036   5.593   6.710 -3.3492  2.3847  0.7500
  158SAPE    C317602   2.578   5.737   6.701  0.4815  0.0658  0.4701
  158SAPE    HX17603   2.630   5.799   6.625  1.4940  1.3076  2.1243
  158SAPE    HY17604   2.652   5.662   6.734 -2.6114 -3.8960 -1.1845
  158SAPE   O3117605   2.535   5.809   6.812 -0.0625  0.1038  0.5368
  158SAPE   C3117606   2.488   5.927   6.791 -0.0590 -0.0644 -0.1866
  158SAPE   O3217607   2.489   5.986   6.681 -0.0494  1.0514  0.2185
  158SAPE   C3217608   2.427   5.986   6.914  0.2332 -0.2574  1.2250
  158SAPE   H2X17609   2.507   6.007   6.989  1.5014 -0.7282  0.0303
  158SAPE   H2Y17610   2.348   5.918   6.953 -0.0009 -1.9518 -2.0270
  158SAPE   C2317611   2.120   5.782   6.791  0.1824 -0.0112  0.0819
  158SAPE   H3R17612   2.047   5.860   6.759 -0.0359 -0.2128  0.0869
  158SAPE   H3S17613   2.217   5.835   6.790 -1.0947  2.4224 -2.9841
  158SAPE   C2417614   2.080   5.733   6.929  0.0034  0.5141  0.7087
  158SAPE   H4R17615   1.974   5.698   6.928 -0.0459  0.6384  1.5297
  158SAPE   H4S17616   2.093   5.815   7.002  0.4844  0.4441  0.7051
  158SAPE   C2517617   2.170   5.614   6.976 -0.5235  0.5129 -0.0878
  158SAPE   H5R17618   2.137   5.517   6.936  0.0867  0.4197 -0.3580
  158SAPE   C2617619   2.251   5.608   7.080 -0.1319 -1.0374  0.1481
  158SAPE   H6R17620   2.299   5.515   7.115 -0.5149 -0.8577  1.1807
  158SAPE   C2717621   2.291   5.720   7.170  0.0046  0.7808 -0.6573
  158SAPE   H7R17622   2.253   5.700   7.272  1.6753  1.4075  0.1193
  158SAPE   H7S17623   2.251   5.817   7.133  0.5429  0.0671 -3.2697
  158SAPE   C2817624   2.441   5.732   7.156 -0.3427 -0.5230 -0.2105
  158SAPE   H8R17625   2.492   5.693   7.066 -0.0157 -0.4197 -0.0733
  158SAPE   C2917626   2.526   5.769   7.255 -0.0417 -0.3375 -0.5522
  158SAPE   H9R17627   2.636   5.765   7.245  0.3194  2.3366  1.7826
  158SAPE  C21017628   2.483   5.802   7.399 -0.2401 -0.8743  0.0379
  158SAPE  H10R17629   2.573   5.835   7.455  0.8931 -2.6682 -0.6870
  158SAPE  H10S17630   2.450   5.712   7.455 -0.8211 -0.1038  0.9538
  158SAPE  C21117631   2.373   5.910   7.411 -0.2917  0.2018 -0.4464
  158SAPE  H11R17632   2.343   5.948   7.312 -0.8054 -0.0801 -0.3997
  158SAPE  C21217633   2.305   5.938   7.520 -0.0617 -0.3769 -0.0842
  158SAPE  H12R17634   2.229   6.018   7.517 -0.9399 -1.2273 -0.8952
  158SAPE  C21317635   2.333   5.876   7.656  0.0319  0.0729  0.2139
  158SAPE  H13R17636   2.418   5.806   7.647  1.1161  1.4844 -0.8094
  158SAPE  H13S17637   2.238   5.824   7.681  0.0254 -0.4069 -0.7989
  158SAPE  C21417638   2.359   5.983   7.758 -0.6766  0.2748  0.0905
  158SAPE  H14R17639   2.313   6.081   7.737 -1.5325 -0.3435 -1.0338
  158SAPE  C21517640   2.429   5.978   7.871  0.2143  0.7413 -0.7682
  158SAPE  H15R17641   2.438   6.071   7.929  0.3854 -0.9625  2.0181
  158SAPE  C21617642   2.520   5.863   7.916  0.3379 -0.3534 -0.3658
  158SAPE  H16R17643   2.623   5.899   7.901 -0.0486  0.5584 -0.8569
  158SAPE  H16S17644   2.506   5.770   7.856  0.6284 -0.1731 -0.7128
  158SAPE  C21717645   2.475   5.826   8.061 -0.1666 -0.5065 -0.8764
  158SAPE  H17R17646   2.367   5.800   8.057 -0.7214  1.6579 -0.5417
  158SAPE  H17S17647   2.479   5.907   8.137 -2.2446 -1.3743  0.1959
  158SAPE  C21817648   2.560   5.713   8.123 -0.6420 -0.3379  0.3186
  158SAPE  H18R17649   2.665   5.748   8.121 -0.7240 -0.1299 -1.4422
  158SAPE  H18S17650   2.547   5.627   8.053  0.9690 -0.7880  0.5666
  158SAPE  C21917651   2.519   5.685   8.267  0.6232 -0.4320 -0.3419
  158SAPE  H19R17652   2.408   5.680   8.267  0.6350 -1.2276  1.3688
  158SAPE  H19S17653   2.543   5.773   8.330  0.2737  0.2690 -1.1828
  158SAPE  C22017654   2.570   5.557   8.317  0.4937  0.0933  0.5068
  158SAPE  H20R17655   2.524   5.548   8.418 -0.2302  2.5181  0.4255
  158SAPE  H20S17656   2.680   5.557   8.326  0.6608 -1.2697 -1.2740
  158SAPE  H20T17657   2.538   5.482   8.242 -2.4554  2.1662 -0.4152
  158SAPE   C3317658   2.340   6.111   6.881 -0.0485  0.2355  0.7019
  158SAPE   H3X17659   2.273   6.094   6.794  2.2599 -0.3566 -0.9996
  158SAPE   H3Y17660   2.402   6.196   6.845 -0.6778  0.0729 -0.8009
  158SAPE   C3417661   2.236   6.149   6.993 -0.0881 -0.0452 -0.3513
  158SAPE   H4X17662   2.203   6.052   7.037  0.3266 -0.6465 -1.3374
  158SAPE   H4Y17663   2.151   6.210   6.954  1.3733  1.7449 -0.7686
  158SAPE   C3517664   2.308   6.235   7.098  0.2885  0.3744 -0.6950
  158SAPE   H5X17665   2.339   6.333   7.053  2.2993  1.2432  2.4036
  158SAPE   H5Y17666   2.399   6.173   7.111 -2.0435 -2.7424  1.3881
  158SAPE   C3617667   2.236   6.249   7.233 -0.3433  0.4469 -0.0440
  158SAPE   H6X17668   2.225   6.145   7.271 -1.6525 -0.5013 -2.8726
  158SAPE   H6Y17669   2.136   6.295   7.214  0.4860  0.7483 -4.1722
  158SAPE   C3717670   2.305   6.336   7.336 -0.2391  0.0869  0.1454
  158SAPE   H7X17671   2.409   6.309   7.365  0.2330  2.7319  1.0093
  158SAPE   H7Y17672   2.305   6.435   7.285 -0.0641  1.5093  2.8303
  158SAPE   C3817673   2.223   6.352   7.460  0.1648 -0.0857  0.2093
  158SAPE   H8X17674   2.191   6.249   7.487  1.6606 -0.7590 -0.5010
  158SAPE   H8Y17675   2.135   6.411   7.426  0.7596 -0.4627 -2.0814
  158SAPE   C3917676   2.294   6.436   7.571 -0.0972  0.3228 -0.2237
  158SAPE   H9X17677   2.281   6.544   7.550  0.0717  0.4887  0.5231
  158SAPE   H9Y17678   2.403   6.419   7.564 -0.0349 -0.0348  1.4407
  158SAPE  C31017679   2.239   6.423   7.713 -0.2237  0.3406  0.1495
  158SAPE  H10X17680   2.245   6.321   7.757 -2.3822  0.8225  1.6873
  158SAPE  H10Y17681   2.131   6.448   7.721 -0.2207 -0.1333  2.0607
  158SAPE  C31117682   2.322   6.510   7.809  0.2119 -0.3838  0.2676
  158SAPE  H11X17683   2.297   6.617   7.794 -0.9789 -0.6770  0.1150
  158SAPE  H11Y17684   2.432   6.495   7.803  0.5744  1.6666  1.0849
  158SAPE  C31217685   2.289   6.484   7.959 -0.6720  0.7647 -0.0189
  158SAPE  H12X17686   2.318   6.380   7.988 -0.2684  1.1762  1.0942
  158SAPE  H12Y17687   2.179   6.479   7.969 -0.4988 -0.2420  1.5399
  158SAPE  C31317688   2.330   6.598   8.062 -0.4571  0.2604 -0.3233
  158SAPE  H13X17689   2.285   6.692   8.024  1.0687  1.3732  0.5598
  158SAPE  H13Y17690   2.440   6.612   8.070 -0.3328 -0.8600  0.0073
  158SAPE  C31417691   2.279   6.565   8.198 -0.6909 -1.0307 -0.0968
  158SAPE  H14X17692   2.301   6.461   8.232  1.9951  0.0207  1.5243
  158SAPE  H14Y17693   2.168   6.560   8.199 -0.8604  0.7874 -3.2474
  158SAPE  C31517694   2.323   6.661   8.308 -0.0915 -0.2177  0.4691
  158SAPE  H15X17695   2.265   6.755   8.301  1.1281  0.5040 -0.1398
  158SAPE  H15Y17696   2.432   6.683   8.301  0.3373 -2.2380  0.5703
  158SAPE  C31617697   2.287   6.604   8.450  0.4880  0.2728  0.1114
  158SAPE  H16X17698   2.348   6.513   8.469 -0.8338 -0.3619  1.3601
  158SAPE  H16Y17699   2.177   6.590   8.450  0.3384  1.3024  2.4949
  158SAPE  C31717700   2.308   6.700   8.572  0.7702  0.2881  0.3835
  158SAPE  H17X17701   2.288   6.645   8.666  0.3195 -1.2609 -0.5959
  158SAPE  H17Y17702   2.245   6.791   8.556 -0.7742 -0.8080  0.0787
  158SAPE  C31817703   2.457   6.747   8.572 -0.2554 -0.1810  0.2886
  158SAPE  H18X17704   2.470   6.824   8.650 -2.1982  0.1321  0.3190
  158SAPE  H18Y17705   2.483   6.784   8.470 -0.1701 -0.1951  0.3051
  158SAPE  H18Z17706   2.527   6.663   8.593 -1.8124 -1.4606  0.4346
  159SAPE     N17707   1.119   2.530   6.310  0.2972  0.3700  0.6643
  159SAPE   HN117708   1.159   2.467   6.237  0.1174  0.8529  0.1391
  159SAPE   HN217709   1.018   2.549   6.295  0.9041  2.7434 -0.7176
  159SAPE   HN317710   1.170   2.620   6.303 -1.3190  1.3243  0.9614
  159SAPE   C1217711   1.147   2.480   6.445  0.4894 -0.0779  0.1651
  159SAPE  H12A17712   1.055   2.435   6.488  0.5121  0.0946  0.3965
  159SAPE  H12B17713   1.167   2.566   6.513  0.2185  0.5952 -0.6031
  159SAPE   C1117714   1.264   2.387   6.445 -0.3399  0.7901  0.1073
  159SAPE  H11A17715   1.293   2.365   6.550  0.9843 -0.1097 -0.4416
  159SAPE  H11B17716   1.355   2.426   6.396  0.7973 -0.0595  1.5168
  159SAPE     P17717   1.244   2.229   6.227  0.0667  0.1247 -0.3913
  159SAPE   O1317718   1.157   2.119   6.179  0.0088 -0.6672  0.2803
  159SAPE   O1417719   1.223   2.352   6.150  0.0678  0.2660  0.3524
  159SAPE   O1217720   1.225   2.266   6.379 -0.3492 -0.6500  0.2403
  159SAPE   O1117721   1.396   2.188   6.224  0.5567  0.3679 -0.2083
  159SAPE    C117722   1.441   2.055   6.251  0.5947 -0.0932  0.0314
  159SAPE    HA17723   1.386   1.977   6.194  1.3878 -0.0745 -0.7637
  159SAPE    HB17724   1.548   2.044   6.224  0.8680  1.7408  0.3203
  159SAPE    C217725   1.444   2.007   6.402 -0.6015  0.1609  0.3484
  159SAPE    HS17726   1.511   1.920   6.412 -1.0359 -0.3087 -0.7462
  159SAPE   O2117727   1.310   1.988   6.459 -0.3845 -0.6971  0.1262
  159SAPE   C2117728   1.261   1.867   6.431  0.1323 -0.8227 -0.0206
  159SAPE   O2217729   1.298   1.796   6.341  0.0431 -0.0156  0.7686
  159SAPE   C2217730   1.156   1.820   6.535  0.1002  0.5020  0.0319
  159SAPE   H2R17731   1.098   1.907   6.572 -1.8367 -0.7512  0.0384
  159SAPE   H2S17732   1.085   1.744   6.493 -0.1996  0.8008 -0.0078
  159SAPE    C317733   1.525   2.109   6.499  0.1014 -0.5482  0.0883
  159SAPE    HX17734   1.449   2.185   6.529  1.5186  0.7428  0.4298
  159SAPE    HY17735   1.609   2.150   6.440 -0.4758  0.4484 -0.0541
  159SAPE   O3117736   1.572   2.041   6.623 -0.0943  0.4840  0.1532
  159SAPE   C3117737   1.598   2.129   6.721  0.6284  0.6513  0.7745
  159SAPE   O3217738   1.561   2.245   6.721  0.2845 -0.3774 -0.5030
  159SAPE   C3217739   1.664   2.062   6.840 -0.3798  0.7459 -0.1652
  159SAPE   H2X17740   1.768   2.053   6.802  0.1154  0.0303  1.3425
  159SAPE   H2Y17741   1.618   1.962   6.850 -1.0555  1.0980  0.3257
  159SAPE   C2317742   1.224   1.745   6.655  0.5410 -0.1220 -0.1657
  159SAPE   H3R17743   1.288   1.664   6.613 -0.4252 -0.5960 -0.7368
  159SAPE   H3S17744   1.141   1.705   6.717  0.5504 -2.2357 -1.4744
  159SAPE   C2417745   1.301   1.837   6.757 -0.5394 -0.2950  0.1231
  159SAPE   H4R17746   1.375   1.900   6.705 -0.2047 -0.9999 -0.2623
  159SAPE   H4S17747   1.360   1.772   6.826  0.6557 -0.1631 -0.7623
  159SAPE   C2517748   1.212   1.949   6.809  0.3679 -0.0168 -0.7946
  159SAPE   H5R17749   1.187   2.015   6.724  3.1751 -1.4594 -2.8516
  159SAPE   C2617750   1.164   1.967   6.934 -0.3046 -0.0070 -0.1511
  159SAPE   H6R17751   1.111   2.060   6.960 -0.4907  0.5585 -2.4411
  159SAPE   C2717752   1.182   1.867   7.043  0.2965  0.2086 -0.2244
  159SAPE   H7R17753   1.134   1.771   7.014  1.1811 -0.8613  1.7502
  159SAPE   H7S17754   1.120   1.916   7.120 -3.0348 -1.8681 -1.4614
  159SAPE   C2817755   1.323   1.842   7.099 -0.3998  0.3986 -0.0546
  159SAPE   H8R17756   1.373   1.749   7.069  0.8438  0.3959  1.9665
  159SAPE   C2917757   1.395   1.918   7.185  0.1410  0.5924  0.8671
  159SAPE   H9R17758   1.484   1.876   7.233 -1.3240 -0.4386  2.7319
  159SAPE  C21017759   1.335   2.048   7.234  0.6251 -0.3146 -0.2814
  159SAPE  H10R17760   1.289   2.102   7.149  0.7975  0.2735 -0.0071
  159SAPE  H10S17761   1.418   2.119   7.256 -1.6400  2.0019  0.9364
  159SAPE  C21117762   1.233   2.044   7.349  0.0889  0.1470  0.0489
  159SAPE  H11R17763   1.137   2.095   7.331 -0.0494  1.4234  3.8689
  159SAPE  C21217764   1.261   2.011   7.472  0.1260 -0.0444  0.2916
  159SAPE  H12R17765   1.178   2.022   7.544 -0.9794 -0.1678 -0.9603
  159SAPE  C21317766   1.391   1.958   7.533 -0.1247  0.6490 -0.0781
  159SAPE  H13R17767   1.417   1.999   7.633 -0.3060 -0.1472  0.3058
  159SAPE  H13S17768   1.479   1.992   7.474  0.5237 -0.2497  0.3487
  159SAPE  C21417769   1.397   1.806   7.532  0.0462 -0.1901  0.5634
  159SAPE  H14R17770   1.416   1.759   7.434  0.1049 -0.3296  0.6412
  159SAPE  C21517771   1.378   1.728   7.638 -0.1158  0.0641 -0.4294
  159SAPE  H15R17772   1.413   1.623   7.640  2.8606  0.9952  2.4360
  159SAPE  C21617773   1.346   1.774   7.779  0.4032  0.2751  0.1743
  159SAPE  H16R17774   1.288   1.697   7.833  0.6622  1.0563  1.5997
  159SAPE  H16S17775   1.294   1.871   7.793  1.2856  0.4784  2.1502
  159SAPE  C21717776   1.474   1.800   7.871 -0.5593 -0.2523  0.3584
  159SAPE  H17R17777   1.510   1.900   7.838 -0.1308 -0.9356 -1.2925
  159SAPE  H17S17778   1.552   1.722   7.853  1.3910  1.0477  2.8106
  159SAPE  C21817779   1.432   1.807   8.024 -0.1800 -0.6728  0.4679
  159SAPE  H18R17780   1.410   1.704   8.059  1.9029 -0.6261  2.0549
  159SAPE  H18S17781   1.339   1.868   8.028 -1.0642 -2.0282  0.7829
  159SAPE  C21917782   1.534   1.876   8.117 -0.4729 -0.2530  0.5939
  159SAPE  H19R17783   1.494   1.859   8.219 -0.7606 -0.7681  0.3996
  159SAPE  H19S17784   1.552   1.985   8.106 -1.2240  0.0201  1.9974
  159SAPE  C22017785   1.668   1.796   8.108  0.0587 -0.1183  0.9170
  159SAPE  H20R17786   1.727   1.801   8.202  2.9079 -2.6064 -0.6033
  159SAPE  H20S17787   1.733   1.836   8.027  1.3529  1.2378  2.5777
  159SAPE  H20T17788   1.654   1.688   8.089 -0.0823 -0.9748  5.3480
  159SAPE   C3317789   1.656   2.136   6.972 -0.2611  0.2321 -0.4055
  159SAPE   H3X17790   1.667   2.052   7.045 -1.1276 -0.7235 -1.3572
  159SAPE   H3Y17791   1.553   2.171   6.995 -0.7058 -1.6142  0.5302
  159SAPE   C3417792   1.767   2.239   6.998  0.1677  0.1775  0.2351
  159SAPE   H4X17793   1.743   2.330   6.939 -0.6468 -0.7595 -0.9118
  159SAPE   H4Y17794   1.870   2.212   6.967  0.5037  0.0705  1.3973
  159SAPE   C3517795   1.764   2.278   7.143 -0.1633 -0.3954  0.1117
  159SAPE   H5X17796   1.848   2.349   7.156  1.2456 -2.1237  0.6489
  159SAPE   H5Y17797   1.787   2.189   7.205 -1.4298 -1.1891 -0.5521
  159SAPE   C3617798   1.641   2.346   7.192 -0.3005 -0.1514  0.3361
  159SAPE   H6X17799   1.553   2.278   7.187 -1.1010  0.9451 -0.6581
  159SAPE   H6Y17800   1.621   2.424   7.117  0.2013 -2.3642 -2.1626
  159SAPE   C3717801   1.645   2.404   7.339 -0.1088  0.2288 -0.4184
  159SAPE   H7X17802   1.557   2.471   7.354  0.2945  0.3878  1.3304
  159SAPE   H7Y17803   1.739   2.461   7.356  0.2840 -0.2728 -0.9381
  159SAPE   C3817804   1.645   2.298   7.451  0.0089 -0.3396 -0.3108
  159SAPE   H8X17805   1.720   2.224   7.414  1.4502  0.6918  0.5055
  159SAPE   H8Y17806   1.548   2.245   7.448 -1.9205  3.0964 -2.2587
  159SAPE   C3917807   1.679   2.360   7.585 -0.8369  0.2927 -0.0179
  159SAPE   H9X17808   1.611   2.444   7.609  1.1193  1.6009  1.1292
  159SAPE   H9Y17809   1.783   2.399   7.588 -0.8755  0.3138  1.3425
  159SAPE  C31017810   1.676   2.251   7.692  0.6474  0.0415 -0.9670
  159SAPE  H10X17811   1.733   2.160   7.663  2.7667  1.5930 -1.8196
  159SAPE  H10Y17812   1.570   2.222   7.706  0.8149 -0.0761  0.1607
  159SAPE  C31117813   1.722   2.308   7.827 -0.0901 -0.3320  0.5063
  159SAPE  H11X17814   1.641   2.368   7.875  0.7218  0.1222  1.3336
  159SAPE  H11Y17815   1.808   2.378   7.823 -0.9781  0.6953 -0.7301
  159SAPE  C31217816   1.757   2.188   7.916  0.3908  0.5573 -0.2088
  159SAPE  H12X17817   1.823   2.124   7.854  1.3053 -0.2454  1.5658
  159SAPE  H12Y17818   1.668   2.123   7.936 -0.8005  2.1736 -0.1667
  159SAPE  C31317819   1.837   2.226   8.030 -0.2501  0.2520  0.3879
  159SAPE  H13X17820   1.779   2.293   8.096  3.6479  2.2762  1.9449
  159SAPE  H13Y17821   1.933   2.273   7.999 -1.2481  0.4255 -2.5895
  159SAPE  C31417822   1.860   2.100   8.122 -0.7388 -0.3799 -0.3530
  159SAPE  H14X17823   1.916   2.026   8.059 -0.0187  0.5834 -0.8648
  159SAPE  H14Y17824   1.763   2.063   8.160 -0.5400  0.7965  1.3370
  159SAPE  C31517825   1.953   2.136   8.241 -0.2913 -0.4352  0.2810
  159SAPE  H15X17826   1.888   2.210   8.290 -1.9733 -1.4063 -0.4519
  159SAPE  H15Y17827   2.044   2.183   8.198 -0.8489  1.8214  1.5182
  159SAPE  C31617828   1.980   2.029   8.347 -0.0810 -0.2726 -0.0508
  159SAPE  H16X17829   2.039   1.947   8.301  0.6708  0.1968  0.0537
  159SAPE  H16Y17830   1.879   1.988   8.367  0.0710 -0.6009  0.0438
  159SAPE  C31717831   2.054   2.076   8.467  0.0223  0.0567  0.3263
  159SAPE  H17X17832   1.996   2.145   8.531  0.8760  2.7594 -1.7280
  159SAPE  H17Y17833   2.149   2.128   8.444 -0.3658  0.4425 -0.4059
  159SAPE  C31817834   2.090   1.949   8.552  0.3078 -0.3131 -0.4239
  159SAPE  H18X17835   2.180   1.901   8.508  0.3056 -1.4397  0.7686
  159SAPE  H18Y17836   2.004   1.880   8.561  1.1805 -1.2766  0.5673
  159SAPE  H18Z17837   2.122   1.971   8.656  0.4700  0.0369 -0.5440
  160SAPE     N17838   2.332   1.308   6.453 -0.3028 -0.1898  0.0025
  160SAPE   HN117839   2.414   1.354   6.407  0.5123 -2.5225 -0.9839
  160SAPE   HN217840   2.327   1.208   6.426  0.7396  0.4961 -2.9503
  160SAPE   HN317841   2.246   1.351   6.413 -0.2004 -1.2298 -1.3562
  160SAPE   C1217842   2.327   1.340   6.601 -0.1697 -0.0769 -0.0571
  160SAPE  H12A17843   2.290   1.444   6.614 -1.0781 -0.6078  1.7162
  160SAPE  H12B17844   2.428   1.325   6.645  0.7640 -2.1133 -2.7344
  160SAPE   C1117845   2.226   1.242   6.663  0.5829  0.1432 -0.2649
  160SAPE  H11A17846   2.122   1.253   6.627 -0.4533 -1.6670  2.0176
  160SAPE  H11B17847   2.212   1.268   6.770 -0.2474 -0.9720 -0.0852
  160SAPE     P17848   2.234   0.997   6.582  0.3450  0.0706 -0.5631
  160SAPE   O1317849   2.098   0.942   6.600 -0.2056  0.4901  0.2810
  160SAPE   O1417850   2.271   1.044   6.445  0.1445  0.0737  0.1875
  160SAPE   O1217851   2.270   1.112   6.669  0.2176 -0.5595  0.7843
  160SAPE   O1117852   2.333   0.884   6.628  0.6348  0.4993 -0.2600
  160SAPE    C117853   2.461   0.907   6.685 -0.5662  0.1604  0.8292
  160SAPE    HA17854   2.525   0.857   6.609 -1.2304 -0.7025  0.8214
  160SAPE    HB17855   2.500   1.011   6.684  0.4814 -0.2286  0.0914
  160SAPE    C217856   2.472   0.843   6.826 -0.2920 -0.4168  0.0244
  160SAPE    HS17857   2.436   0.738   6.821 -2.0849  0.2801 -2.1139
  160SAPE   O2117858   2.391   0.933   6.916 -0.0010 -0.9385  0.1680
  160SAPE   C2117859   2.268   0.893   6.934  0.5497 -0.8984  0.0996
  160SAPE   O2217860   2.222   0.783   6.908 -0.2314  0.2265  0.4971
  160SAPE   C2217861   2.191   1.006   7.003 -0.4555 -0.3232  0.8808
  160SAPE   H2R17862   2.266   1.079   7.040 -1.2861  0.7468  0.4791
  160SAPE   H2S17863   2.131   1.058   6.926  2.1207 -1.7065 -2.1511
  160SAPE    C317864   2.614   0.823   6.879  0.1605  0.2528  0.0694
  160SAPE    HX17865   2.641   0.925   6.915  0.5535  0.4383 -0.7563
  160SAPE    HY17866   2.680   0.801   6.793  0.2467 -1.2614  0.5195
  160SAPE   O3117867   2.641   0.718   6.980 -0.1759  0.0322 -0.3870
  160SAPE   C3117868   2.621   0.591   6.944 -0.8663  0.0690 -0.6237
  160SAPE   O3217869   2.572   0.557   6.841 -0.2978 -0.0929 -0.7843
  160SAPE   C3217870   2.664   0.493   7.055 -0.3458  0.5555 -0.7024
  160SAPE   H2X17871   2.774   0.494   7.065 -0.3834  0.2575 -0.2490
  160SAPE   H2Y17872   2.644   0.391   7.017 -0.9182  0.2763  0.3253
  160SAPE   C2317873   2.094   0.957   7.113 -0.0556 -0.3586  0.1702
  160SAPE   H3R17874   2.139   0.883   7.183 -0.9511 -0.6559  0.4376
  160SAPE   H3S17875   2.013   0.904   7.059  0.4769 -1.5933  0.5546
  160SAPE   C2417876   2.042   1.066   7.211  0.3379  0.1677 -0.0826
  160SAPE   H4R17877   1.970   1.014   7.278 -1.0440  0.0230 -1.6500
  160SAPE   H4S17878   1.990   1.142   7.148  2.2936 -0.0627 -2.0680
  160SAPE   C2517879   2.142   1.135   7.292  0.3846  0.1470 -0.5138
  160SAPE   H5R17880   2.207   1.201   7.232 -0.2402  1.8157  0.5964
  160SAPE   C2617881   2.157   1.125   7.428  0.7308 -0.5525 -0.0751
  160SAPE   H6R17882   2.241   1.180   7.472  0.5792 -0.4630  0.0986
  160SAPE   C2717883   2.076   1.048   7.526  0.1907  0.0759  0.5869
  160SAPE   H7R17884   2.052   0.945   7.490  0.4005  0.6463 -1.2388
  160SAPE   H7S17885   1.976   1.095   7.517  0.7771  1.1791 -0.2386
  160SAPE   C2817886   2.121   1.044   7.668  0.2045 -0.6503 -0.1348
  160SAPE   H8R17887   2.228   1.064   7.684 -0.5939  4.7519 -0.6323
  160SAPE   C2917888   2.049   1.013   7.778  0.6309  0.2238  0.7875
  160SAPE   H9R17889   2.090   1.039   7.877 -0.1842  0.8785  0.9604
  160SAPE  C21017890   1.902   0.979   7.765 -0.1201 -0.8449  0.8359
  160SAPE  H10R17891   1.873   0.935   7.667 -2.0169  1.3908  0.3431
  160SAPE  H10S17892   1.852   1.078   7.766 -0.9377 -1.2452  1.7884
  160SAPE  C21117893   1.862   0.876   7.867 -0.9571 -0.2118 -0.1408
  160SAPE  H11R17894   1.888   0.774   7.835 -0.0009  0.2356 -0.8394
  160SAPE  C21217895   1.827   0.903   8.000 -0.3507 -0.2672  0.4704
  160SAPE  H12R17896   1.792   0.819   8.062  0.3684  0.0038  1.2558
  160SAPE  C21317897   1.817   1.040   8.058 -0.0241 -0.0350  0.3952
  160SAPE  H13R17898   1.722   1.048   8.114  0.7749  0.7445  1.6464
  160SAPE  H13S17899   1.808   1.118   7.979  3.0638 -2.9717 -3.0745
  160SAPE  C21417900   1.944   1.068   8.143 -0.0997  0.0835  0.0632
  160SAPE  H14R17901   2.020   1.122   8.085  0.4889 -0.1252  0.6398
  160SAPE  C21517902   1.962   1.032   8.270  0.1973  0.2241  0.0707
  160SAPE  H15R17903   2.059   1.058   8.315  0.4007  1.0473 -0.8193
  160SAPE  C21617904   1.860   0.958   8.355  0.5518 -0.0089  0.2827
  160SAPE  H16R17905   1.793   0.909   8.281 -0.4003  0.1987  1.0006
  160SAPE  H16S17906   1.804   1.036   8.410 -0.1073  0.3034 -0.8040
  160SAPE  C21717907   1.930   0.852   8.442 -0.0219  0.8342 -0.4575
  160SAPE  H17R17908   1.982   0.904   8.525  1.4582 -0.2027 -0.7230
  160SAPE  H17S17909   2.014   0.805   8.388 -1.0795 -2.4296  0.6144
  160SAPE  C21817910   1.838   0.737   8.491  0.1766  0.2706  0.0155
  160SAPE  H18R17911   1.817   0.684   8.396 -0.3871  1.6367 -0.6459
  160SAPE  H18S17912   1.739   0.770   8.531 -1.0080 -2.6600 -0.4046
  160SAPE  C21917913   1.904   0.640   8.592 -0.5796 -0.4013 -0.5249
  160SAPE  H19R17914   1.918   0.679   8.695 -0.2325  1.6559 -1.3179
  160SAPE  H19S17915   2.007   0.618   8.558 -0.5576 -0.7514 -0.2281
  160SAPE  C22017916   1.832   0.507   8.593  0.4913  0.0167  0.2373
  160SAPE  H20R17917   1.893   0.435   8.651 -0.6943 -1.0833  0.1362
  160SAPE  H20S17918   1.822   0.456   8.494  1.0181 -1.1585  0.7804
  160SAPE  H20T17919   1.732   0.514   8.641  1.1148 -2.3227  1.9293
  160SAPE   C3317920   2.596   0.536   7.182  0.1293 -0.4202  0.4253
  160SAPE   H3X17921   2.486   0.549   7.174  0.4538  0.9100 -2.2879
  160SAPE   H3Y17922   2.629   0.636   7.220  1.2862 -1.1064  1.2610
  160SAPE   C3417923   2.631   0.429   7.286 -0.0336 -0.3323 -0.4295
  160SAPE   H4X17924   2.741   0.420   7.297 -0.0179 -0.7123 -0.8956
  160SAPE   H4Y17925   2.601   0.327   7.253 -1.9016  0.0596 -0.0270
  160SAPE   C3517926   2.584   0.473   7.425 -0.1761 -0.4119  0.1107
  160SAPE   H5X17927   2.477   0.502   7.435 -0.0789  0.6860 -1.8960
  160SAPE   H5Y17928   2.644   0.559   7.462  1.3825 -0.6055 -1.8635
  160SAPE   C3617929   2.608   0.364   7.529  0.1479 -0.2179  0.1700
  160SAPE   H6X17930   2.716   0.337   7.523 -0.2408 -1.4332 -2.1295
  160SAPE   H6Y17931   2.553   0.272   7.500 -0.1692 -0.7228  2.2936
  160SAPE   C3717932   2.555   0.409   7.663 -0.0834 -0.0898 -0.4856
  160SAPE   H7X17933   2.448   0.438   7.666 -0.6256 -2.0982  0.4167
  160SAPE   H7Y17934   2.610   0.499   7.699  1.2155 -1.2167  0.4151
  160SAPE   C3817935   2.581   0.288   7.750 -0.2728 -0.0027  0.1366
  160SAPE   H8X17936   2.685   0.287   7.789  0.0253  0.0383 -0.6498
  160SAPE   H8Y17937   2.561   0.196   7.692  3.3722 -0.0764 -1.0888
  160SAPE   C3917938   2.484   0.290   7.873  1.0218 -0.1350  0.1596
  160SAPE   H9X17939   2.385   0.269   7.827  1.5590 -0.6612 -0.7608
  160SAPE   H9Y17940   2.487   0.390   7.921  0.3936 -0.8265  1.6811
  160SAPE  C31017941   2.524   0.185   7.968 -0.4227 -0.2973 -0.2095
  160SAPE  H10X17942   2.615   0.211   8.026  0.3081 -1.0832 -1.0063
  160SAPE  H10Y17943   2.556   0.092   7.917 -3.8381 -1.4723 -0.3975
  160SAPE  C31117944   2.422   0.148   8.068 -0.4695  0.1798 -0.1717
  160SAPE  H11X17945   2.457   0.049   8.104  0.6013  0.7782  0.4792
  160SAPE  H11Y17946   2.322   0.130   8.025  0.2975  1.3737 -2.5058
  160SAPE  C31217947   2.407   0.246   8.185 -0.3271  0.2894  0.4475
  160SAPE  H12X17948   2.325   0.209   8.250  0.2365 -0.9092  0.4940
  160SAPE  H12Y17949   2.388   0.350   8.149  1.3420  0.4704  0.0319
  160SAPE  C31317950   2.534   0.257   8.275 -0.6720  0.4194  0.0133
  160SAPE  H13X17951   2.618   0.302   8.217 -1.0871  0.2529 -0.7315
  160SAPE  H13Y17952   2.561   0.154   8.305 -0.3341 -0.0904 -1.9690
  160SAPE  C31417953   2.513   0.351   8.398  0.4395 -0.1201  0.2219
  160SAPE  H14X17954   2.458   0.445   8.374  1.1054  0.1617 -0.2000
  160SAPE  H14Y17955   2.611   0.386   8.436  1.8206 -1.3204 -2.1265
  160SAPE  C31517956   2.442   0.290   8.515  0.9179 -0.3320 -0.7397
  160SAPE  H15X17957   2.510   0.210   8.549  0.6027  0.2384  1.2741
  160SAPE  H15Y17958   2.353   0.237   8.474 -0.3862  2.1226 -1.2260
  160SAPE  C31617959   2.393   0.386   8.620  0.5690  0.4454  0.5336
  160SAPE  H16X17960   2.476   0.456   8.644  0.8221  0.3503 -0.0326
  160SAPE  H16Y17961   2.374   0.323   8.709 -0.2844  0.7140  0.5417
  160SAPE  C31717962   2.264   0.473   8.596 -0.5029 -0.5188  0.4133
  160SAPE  H17X17963   2.210   0.484   8.692  0.6361 -3.3575  1.4075
  160SAPE  H17Y17964   2.196   0.426   8.522  1.6118 -0.4697 -1.6119
  160SAPE  C31817965   2.313   0.612   8.543 -0.0415  0.7085  0.4100
  160SAPE  H18X17966   2.237   0.693   8.544 -0.0790  0.6673  1.7560
  160SAPE  H18Y17967   2.338   0.605   8.435 -0.6129  2.8522  0.1186
  160SAPE  H18Z17968   2.402   0.645   8.600 -0.3208  0.4223  1.0162
  161SOPE     N17969   0.896   2.678  10.318 -0.1094 -0.9794  0.2105
  161SOPE   HN117970   0.884   2.781  10.326 -1.9740 -1.2920  1.7579
  161SOPE   HN217971   0.949   2.652  10.233  0.9342 -1.3768  0.9641
  161SOPE   HN317972   0.805   2.631  10.337  0.6045 -1.6022  2.3042
  161SOPE   C1217973   0.974   2.626  10.441 -0.3331 -0.1855 -0.0273
  161SOPE  H12A17974   1.070   2.682  10.445 -1.8187  2.5864 -1.1579
  161SOPE  H12B17975   0.995   2.519  10.424 -1.4774 -0.5071  0.5422
  161SOPE   C1117976   0.886   2.624  10.565  0.1644 -0.2093 -0.5704
  161SOPE  H11A17977   0.869   2.731  10.591  1.7514  0.0004 -0.3366
  161SOPE  H11B17978   0.944   2.592  10.654 -1.6174  0.0109  0.7053
  161SOPE     P17979   0.754   2.403  10.557 -0.0972  0.1115  0.0177
  161SOPE   O1317980   0.617   2.373  10.601 -0.7345  0.5485  0.3364
  161SOPE   O1417981   0.874   2.358  10.640  0.0470  0.8589 -0.4287
  161SOPE   O1217982   0.765   2.560  10.550  0.6995  0.2302  0.3310
  161SOPE   O1117983   0.772   2.370  10.407 -0.1882 -0.3699  0.0434
  161SOPE    C117984   0.676   2.395  10.301  0.8932  0.2318 -0.2339
  161SOPE    HA17985   0.716   2.446  10.211  0.5285 -0.6614 -0.9157
  161SOPE    HB17986   0.589   2.457  10.333  1.0884  0.6393 -0.4911
  161SOPE    C217987   0.612   2.263  10.235 -0.2907 -0.6321  0.2865
  161SOPE    HS17988   0.567   2.193  10.308 -1.0868  1.2005  1.5870
  161SOPE   O2117989   0.714   2.200  10.161  0.2648 -0.7409  1.1074
  161SOPE   C2117990   0.684   2.073  10.127 -0.3980 -0.8487 -0.0483
  161SOPE   O2217991   0.575   2.026  10.146  0.3378 -0.6599 -0.6359
  161SOPE   C2217992   0.796   2.006  10.051  0.6743  0.4860 -0.0392
  161SOPE   H2R17993   0.809   1.905  10.095 -2.0581 -1.2380 -3.0173
  161SOPE   H2S17994   0.890   2.066  10.049  0.6988  0.4435 -0.1965
  161SOPE    C317995   0.496   2.317  10.135  0.5619 -0.1159  0.4844
  161SOPE    HX17996   0.397   2.327  10.184  1.4442  1.3272  2.0166
  161SOPE    HY17997   0.468   2.244  10.055 -1.2498  1.6849 -0.5791
  161SOPE   O3117998   0.538   2.427  10.054 -0.3831  0.6312  0.1246
  161SOPE   C3117999   0.489   2.547  10.077 -1.0075  0.6318  0.2021
  161SOPE   O3218000   0.422   2.588  10.168 -0.2130  0.0937  0.4485
  161SOPE   C3218001   0.536   2.630   9.955  0.2886  1.0566 -0.1189
  161SOPE   H2X18002   0.647   2.628   9.963  0.5246  0.7224 -3.0161
  161SOPE   H2Y18003   0.500   2.734   9.973 -0.6011  0.9018 -0.9868
  161SOPE   C2318004   0.743   1.981   9.909 -0.2567  0.1014  0.0899
  161SOPE   H3R18005   0.721   2.081   9.866 -2.7354  0.0864  1.2627
  161SOPE   H3S18006   0.648   1.925   9.901  0.3999 -0.8629 -1.0405
  161SOPE   C2418007   0.835   1.912   9.813 -0.6173  0.0298 -0.4702
  161SOPE   H4R18008   0.924   1.978   9.815  0.9022 -1.9880 -1.2309
  161SOPE   H4S18009   0.861   1.812   9.853  2.0457  1.4598  1.5144
  161SOPE   C2518010   0.779   1.903   9.671  0.3035 -0.2217 -0.9339
  161SOPE   H5R18011   0.697   1.829   9.682  0.6716 -0.4253  0.4732
  161SOPE   H5S18012   0.740   2.002   9.641  1.9845  0.7215 -0.0570
  161SOPE   C2618013   0.874   1.857   9.555  0.2798  0.0728  0.5559
  161SOPE   H6R18014   0.962   1.924   9.542 -0.3680  0.3045 -3.1548
  161SOPE   H6S18015   0.909   1.755   9.580 -3.4510 -1.4183 -0.0255
  161SOPE   C2718016   0.803   1.842   9.424 -0.1188  0.5146 -0.2666
  161SOPE   H7R18017   0.699   1.811   9.446 -0.7599  0.4914 -3.1333
  161SOPE   H7S18018   0.801   1.942   9.375  0.7406  1.1746  1.0225
  161SOPE   C2818019   0.877   1.758   9.318  0.8982 -0.6705  0.3145
  161SOPE   H8R18020   0.980   1.797   9.304  0.3526  0.2516 -1.1971
  161SOPE   H8S18021   0.887   1.653   9.354 -1.0869 -1.0502 -0.1598
  161SOPE   C2918022   0.816   1.761   9.180  0.3436 -0.0613  0.1673
  161SOPE   H9118023   0.716   1.716   9.173  0.2331  0.4116 -1.6901
  161SOPE  C21018024   0.852   1.821   9.066 -0.9871 -0.2151  0.1787
  161SOPE  H10118025   0.793   1.801   8.975  2.7466 -0.9920 -2.1973
  161SOPE  C21118026   0.982   1.898   9.037  0.6446  0.2275 -0.3131
  161SOPE  H11R18027   1.040   1.926   9.128 -1.7063 -0.0733  1.3524
  161SOPE  H11S18028   0.961   1.993   8.985  2.8631  1.1374  0.4060
  161SOPE  C21218029   1.071   1.811   8.949  0.8374 -0.9618  0.2114
  161SOPE  H12R18030   1.007   1.754   8.879  0.8383 -1.3954  0.5545
  161SOPE  H12S18031   1.120   1.730   9.009 -0.2121 -2.5302 -1.0107
  161SOPE  C21318032   1.178   1.880   8.873  1.1946 -0.0662 -0.0645
  161SOPE  H13R18033   1.260   1.922   8.935  0.6342  2.1130 -0.7591
  161SOPE  H13S18034   1.136   1.972   8.826  1.1674 -0.4336 -0.7705
  161SOPE  C21418035   1.242   1.788   8.766 -0.1406 -0.0032  0.0792
  161SOPE  H14R18036   1.160   1.760   8.697  0.1339 -0.8738  0.1070
  161SOPE  H14S18037   1.278   1.701   8.826  0.8840  2.4037  3.1120
  161SOPE  C21518038   1.344   1.858   8.679  0.9312 -0.0735  0.1483
  161SOPE  H15R18039   1.291   1.940   8.628  1.9679  0.9472  0.6928
  161SOPE  H15S18040   1.376   1.788   8.598 -1.1786 -0.5368 -0.2965
  161SOPE  C21618041   1.467   1.905   8.756 -0.4645 -0.2428 -0.3008
  161SOPE  H16R18042   1.527   1.823   8.802 -1.7988 -1.4344 -0.6598
  161SOPE  H16S18043   1.437   1.970   8.841 -1.1539 -0.4359 -0.4003
  161SOPE  C21718044   1.563   1.996   8.666  0.8760  0.1024 -0.7036
  161SOPE  H17R18045   1.638   2.044   8.733 -2.8814  2.8278  1.7707
  161SOPE  H17S18046   1.498   2.076   8.626 -1.4569 -1.1866  0.3739
  161SOPE  C21818047   1.624   1.925   8.552  0.0556  0.5499  0.1418
  161SOPE  H18R18048   1.674   1.828   8.574 -2.0535 -0.1120  2.2288
  161SOPE  H18S18049   1.698   1.986   8.496 -0.4279 -0.0278 -1.1413
  161SOPE  H18T18050   1.539   1.897   8.487  0.2741 -1.5330  0.7290
  161SOPE   C3318051   0.487   2.575   9.813  0.7896  0.2515 -0.0185
  161SOPE   H3X18052   0.384   2.533   9.816 -0.5673  3.4622  0.3557
  161SOPE   H3Y18053   0.554   2.491   9.785  0.6328 -0.0162  0.3967
  161SOPE   C3418054   0.495   2.683   9.700 -0.0748  0.2499  0.5990
  161SOPE   H4X18055   0.591   2.738   9.705  0.6926 -0.8279 -1.5397
  161SOPE   H4Y18056   0.415   2.758   9.716  1.5734  2.1171  0.2012
  161SOPE   C3518057   0.488   2.613   9.564 -0.9734 -0.2263  0.8568
  161SOPE   H5X18058   0.411   2.535   9.578 -0.1260 -0.8558  2.1330
  161SOPE   H5Y18059   0.581   2.563   9.527 -2.9260 -0.2695 -4.4372
  161SOPE   C3618060   0.443   2.704   9.448  0.5861 -0.0538 -0.1173
  161SOPE   H6X18061   0.511   2.792   9.448  0.3296  0.1458 -0.6272
  161SOPE   H6Y18062   0.343   2.741   9.478  0.8068 -0.3417  0.9956
  161SOPE   C3718063   0.425   2.646   9.304  0.1844  0.0443  0.6090
  161SOPE   H7X18064   0.338   2.578   9.319 -2.4392  2.7972 -1.4261
  161SOPE   H7Y18065   0.516   2.594   9.266  1.0617  1.2442  1.0299
  161SOPE   C3818066   0.388   2.758   9.199  0.3124  0.1357 -0.4260
  161SOPE   H8X18067   0.479   2.820   9.183  1.2752 -1.1496  0.0531
  161SOPE   H8Y18068   0.312   2.823   9.248 -0.4864 -1.6282  0.6914
  161SOPE   C3918069   0.342   2.701   9.061  0.2751  0.0021  0.1760
  161SOPE   H9X18070   0.260   2.632   9.088  0.8661 -0.6388  0.3528
  161SOPE   H9Y18071   0.418   2.639   9.010 -0.9963 -0.1257 -1.5913
  161SOPE  C31018072   0.310   2.799   8.946  0.1875 -0.5679 -0.0181
  161SOPE  H10X18073   0.404   2.850   8.918 -0.1131  0.0236  0.0357
  161SOPE  H10Y18074   0.245   2.883   8.977  1.5093  1.0465 -1.5173
  161SOPE  C31118075   0.253   2.727   8.831  0.2141 -0.1389  0.0971
  161SOPE  H11X18076   0.160   2.668   8.845  0.2941 -0.4036 -0.4606
  161SOPE  H11Y18077   0.333   2.650   8.826 -0.7764 -1.2382  0.9880
  161SOPE  C31218078   0.246   2.795   8.702  0.2777 -0.7533  0.0177
  161SOPE  H12X18079   0.183   2.885   8.714  1.3537  0.3370 -2.2094
  161SOPE  H12Y18080   0.180   2.730   8.641  0.4535 -0.6267 -0.3062
  161SOPE  C31318081   0.375   2.857   8.638 -0.3621 -0.8714  0.4718
  161SOPE  H13X18082   0.443   2.773   8.618 -0.8408 -1.4107  1.0699
  161SOPE  H13Y18083   0.422   2.927   8.711  0.6449 -1.0317 -0.0149
  161SOPE  C31418084   0.348   2.933   8.512  0.4607  0.3762 -0.0192
  161SOPE  H14X18085   0.339   3.038   8.548  2.7815  1.3749 -2.2649
  161SOPE  H14Y18086   0.254   2.913   8.457 -0.7736  3.4734  0.8267
  161SOPE  C31518087   0.466   2.939   8.411  0.6353 -0.9423 -0.3565
  161SOPE  H15X18088   0.544   3.011   8.441 -1.4493  0.4381  1.9394
  161SOPE  H15Y18089   0.422   2.983   8.319 -2.5790 -2.0182  0.5715
  161SOPE  C31618090   0.532   2.811   8.380 -0.1538  0.0755  0.2840
  161SOPE  H16X18091   0.554   2.795   8.272  3.3284  0.7846  0.8336
  161SOPE  H16Y18092   0.459   2.733   8.413  0.2540  0.6427  2.6490
  161SOPE  C31718093   0.665   2.800   8.457  0.0084 -0.0298 -0.2593
  161SOPE  H17X18094   0.667   2.861   8.550  0.5589 -0.9240  0.3327
  161SOPE  H17Y18095   0.751   2.833   8.394  1.4216 -0.1923  1.5420
  161SOPE  C31818096   0.700   2.660   8.517  0.0525 -0.5932  0.2283
  161SOPE  H18X18097   0.794   2.666   8.576 -0.2234 -0.7178  0.6924
  161SOPE  H18Y18098   0.724   2.583   8.440 -0.1206  1.2118 -1.6580
  161SOPE  H18Z18099   0.619   2.627   8.587  0.6693 -0.4211  1.0339
  162SOPE     N18100   6.665   1.983  11.085  0.6242  0.1652 -0.1274
  162SOPE   HN118101   6.636   1.883  11.090  0.3663  0.3082  1.9965
  162SOPE   HN218102   6.708   2.007  11.177 -0.5614  1.8328  0.0130
  162SOPE   HN318103   6.585   2.048  11.076  1.1017  1.3080  3.0819
  162SOPE   C1218104   6.761   2.007  10.972  0.6020  0.1822 -0.0395
  162SOPE  H12A18105   6.857   1.972  11.015  0.1771 -1.5726 -0.4997
  162SOPE  H12B18106   6.770   2.118  10.962  1.2474  0.2887  1.5840
  162SOPE   C1118107   6.744   1.919  10.845  1.2080 -0.2130  0.0075
  162SOPE  H11A18108   6.821   1.957  10.773  0.7545  0.1418 -0.2927
  162SOPE  H11B18109   6.645   1.936  10.797  0.8142 -0.6637  0.6597
  162SOPE     P18110   6.658   1.674  10.911  0.1228  0.1652 -0.0315
  162SOPE   O1318111   6.570   1.735  11.019 -0.1744 -0.0697 -0.1108
  162SOPE   O1418112   6.719   1.547  10.941  0.3468 -0.3787  0.2657
  162SOPE   O1218113   6.766   1.778  10.870  0.1078  0.1872  0.1893
  162SOPE   O1118114   6.581   1.660  10.773 -0.1912  0.1207 -0.3352
  162SOPE    C118115   6.436   1.623  10.767 -0.1861  0.3631  0.0425
  162SOPE    HA18116   6.413   1.590  10.870 -0.2569  0.0147 -0.0832
  162SOPE    HB18117   6.424   1.536  10.699 -0.9156  1.3655 -1.1525
  162SOPE    C218118   6.336   1.729  10.736 -0.1849 -0.4321  0.0038
  162SOPE    HS18119   6.236   1.683  10.719  0.1781 -1.0949 -0.3441
  162SOPE   O2118120   6.382   1.800  10.619 -0.3537 -0.0366 -0.0112
  162SOPE   C2118121   6.381   1.741  10.501  0.5277 -0.0271  0.4184
  162SOPE   O2218122   6.325   1.633  10.479  0.1658  0.5143  0.4743
  162SOPE   C2218123   6.449   1.832  10.397  0.0571 -0.0121 -0.3272
  162SOPE   H2R18124   6.555   1.846  10.427 -0.0508 -0.2901  0.1755
  162SOPE   H2S18125   6.402   1.932  10.413 -0.0152 -0.0813 -0.1203
  162SOPE    C318126   6.327   1.834  10.856  0.3124  0.0660 -0.2780
  162SOPE    HX18127   6.408   1.908  10.840  1.2783 -0.8100  0.5462
  162SOPE    HY18128   6.337   1.784  10.955 -0.9417  1.0007  0.3330
  162SOPE   O3118129   6.198   1.905  10.852 -0.0620 -0.3492 -0.5160
  162SOPE   C3118130   6.091   1.835  10.880 -0.0131  0.0333  0.2655
  162SOPE   O3218131   6.079   1.717  10.905 -0.0036  0.3240 -0.6263
  162SOPE   C3218132   5.963   1.929  10.855 -0.1421  0.1404 -0.6202
  162SOPE   H2X18133   5.998   2.028  10.818 -0.2090  1.9337  3.8340
  162SOPE   H2Y18134   5.910   1.928  10.953  0.9850  0.5097  0.0024
  162SOPE   C2318135   6.444   1.779  10.247  0.4116  0.0030 -0.3250
  162SOPE   H3R18136   6.337   1.767  10.222  1.0468 -3.1130 -1.7812
  162SOPE   H3S18137   6.496   1.680  10.247  0.5632  0.0614 -2.6517
  162SOPE   C2418138   6.518   1.875  10.152  0.8506 -0.0253  0.1125
  162SOPE   H4R18139   6.458   1.968  10.138  2.5198  0.8491 -1.3160
  162SOPE   H4S18140   6.620   1.904  10.184  1.1313 -1.4161  0.5000
  162SOPE   C2518141   6.538   1.808  10.016  0.1176 -0.2613 -0.0040
  162SOPE   H5R18142   6.605   1.720  10.028  0.4712  0.1015  0.6849
  162SOPE   H5S18143   6.434   1.788   9.983  0.4956 -0.6297 -0.9893
  162SOPE   C2618144   6.582   1.901   9.900  0.9974 -0.7080 -0.3804
  162SOPE   H6R18145   6.509   1.984   9.888  1.2064 -0.4592  0.0521
  162SOPE   H6S18146   6.675   1.945   9.941  0.6631 -1.0011  0.7175
  162SOPE   C2718147   6.605   1.830   9.761 -0.1163 -0.1700 -0.0293
  162SOPE   H7R18148   6.650   1.730   9.781  2.1487  1.0082  0.8329
  162SOPE   H7S18149   6.514   1.813   9.699 -0.3423  2.2084 -0.3895
  162SOPE   C2818150   6.713   1.909   9.679 -0.1362  0.1383  0.4673
  162SOPE   H8R18151   6.799   1.917   9.749  1.3810 -1.0697 -1.2303
  162SOPE   H8S18152   6.744   1.849   9.591  1.5794  1.5635  0.0606
  162SOPE   C2918153   6.650   2.039   9.636  0.2637 -0.4143  0.0633
  162SOPE   H9118154   6.662   2.125   9.704  0.5948  0.8971 -1.6297
  162SOPE  C21018155   6.601   2.071   9.514  0.2797  0.1013  0.4608
  162SOPE  H10118156   6.563   2.174   9.503 -1.3413 -0.4790  0.4621
  162SOPE  C21118157   6.589   1.988   9.384  0.5877 -0.0180  0.0125
  162SOPE  H11R18158   6.621   1.883   9.404 -0.7241 -0.1351  1.5661
  162SOPE  H11S18159   6.656   2.014   9.299  0.9797  0.0343  0.3328
  162SOPE  C21218160   6.445   1.965   9.343  0.8085 -0.3426 -0.0836
  162SOPE  H12R18161   6.394   1.930   9.436  0.5876  0.3426  0.0592
  162SOPE  H12S18162   6.442   1.878   9.274  1.1032 -1.0320  0.7556
  162SOPE  C21318163   6.377   2.093   9.289 -0.6294 -0.5557  0.2173
  162SOPE  H13R18164   6.452   2.137   9.220 -0.9217  0.3511  0.4609
  162SOPE  H13S18165   6.373   2.168   9.372  1.5500 -1.4653  1.2041
  162SOPE  C21418166   6.241   2.060   9.227  0.5259  0.0993  0.6669
  162SOPE  H14R18167   6.163   2.056   9.306 -0.7327 -2.6777 -0.6412
  162SOPE  H14S18168   6.238   1.960   9.180 -0.1234 -0.3379  1.6192
  162SOPE  C21518169   6.188   2.162   9.122  0.0412  0.4116  0.3359
  162SOPE  H15R18170   6.179   2.108   9.025 -1.2136 -0.4200  0.9129
  162SOPE  H15S18171   6.267   2.239   9.107  0.1041  0.3780  0.4956
  162SOPE  C21618172   6.060   2.232   9.163 -0.5655  0.1569 -0.1170
  162SOPE  H16R18173   6.079   2.290   9.256 -1.8907 -0.7064  0.7042
  162SOPE  H16S18174   5.998   2.146   9.195  0.5705 -0.5393  0.2543
  162SOPE  C21718175   5.988   2.326   9.061  0.3124  0.2244  0.2373
  162SOPE  H17R18176   6.007   2.433   9.088  2.5915 -0.2488  0.5699
  162SOPE  H17S18177   5.880   2.313   9.082  0.7102  0.6918  2.7870
  162SOPE  C21818178   6.025   2.298   8.914  0.4095 -0.2302  0.0757
  162SOPE  H18R18179   6.015   2.190   8.888 -1.5065  0.3799 -1.8006
  162SOPE  H18S18180   6.131   2.330   8.904 -0.0786  1.9485  1.4718
  162SOPE  H18T18181   5.951   2.354   8.853 -0.4790 -0.1121  1.2541
  162SOPE   C3318182   5.871   1.866  10.751  0.8075 -0.4166  0.0559
  162SOPE   H3X18183   5.772   1.915  10.763  1.1982 -0.3916  3.4531
  162SOPE   H3Y18184   5.856   1.758  10.774  1.5025 -0.3521  0.8379
  162SOPE   C3418185   5.904   1.898  10.603 -0.2035  0.5960 -0.2126
  162SOPE   H4X18186   5.912   2.009  10.602 -2.5020  0.7846 -2.3079
  162SOPE   H4Y18187   5.821   1.863  10.538  0.1632  1.1244 -0.9605
  162SOPE   C3518188   6.040   1.856  10.551 -0.2930 -0.1666  0.4306
  162SOPE   H5X18189   6.033   1.745  10.542  3.7016 -0.5053  0.7358
  162SOPE   H5Y18190   6.127   1.875  10.618  0.0637 -1.0404  0.2233
  162SOPE   C3618191   6.072   1.893  10.407  0.1584 -0.0520  0.1259
  162SOPE   H6X18192   5.985   1.869  10.341  2.4700  1.1957 -3.5458
  162SOPE   H6Y18193   6.158   1.835  10.366 -1.0386 -0.4752 -1.8757
  162SOPE   C3718194   6.105   2.048  10.386  0.2083  0.0868  0.4889
  162SOPE   H7X18195   6.182   2.076  10.461 -0.2724  0.3711  0.8712
  162SOPE   H7Y18196   6.010   2.103  10.400  0.2202  0.0519  0.7035
  162SOPE   C3818197   6.152   2.069  10.245 -0.3999 -0.5922 -0.6586
  162SOPE   H8X18198   6.095   2.013  10.168 -1.4860  2.6893 -2.3354
  162SOPE   H8Y18199   6.252   2.021  10.234  0.4762  1.2838 -1.1792
  162SOPE   C3918200   6.180   2.215  10.207  0.3655  0.7210  0.0442
  162SOPE   H9X18201   6.247   2.262  10.282  1.0840 -2.2431  1.3207
  162SOPE   H9Y18202   6.094   2.282  10.188  0.5099  0.7645 -0.4935
  162SOPE  C31018203   6.269   2.210  10.080 -0.2647  0.1997  0.1092
  162SOPE  H10X18204   6.231   2.122  10.024 -0.3014  0.2704  0.0224
  162SOPE  H10Y18205   6.374   2.194  10.111  0.6290  0.5055 -2.6979
  162SOPE  C31118206   6.240   2.322   9.978  0.0532  0.5643 -0.4290
  162SOPE  H11X18207   6.266   2.419  10.027  0.3904  0.7025 -0.8835
  162SOPE  H11Y18208   6.136   2.325   9.939 -0.6892  1.9521  1.5359
  162SOPE  C31218209   6.339   2.322   9.862  0.6542  0.3156 -0.2735
  162SOPE  H12X18210   6.324   2.242   9.787  0.6750  0.5990 -0.5807
  162SOPE  H12Y18211   6.446   2.322   9.892  1.0824 -0.5242 -1.7759
  162SOPE  C31318212   6.318   2.451   9.781  0.5469  0.9012 -0.7884
  162SOPE  H13X18213   6.347   2.535   9.848 -1.9785  0.2841  1.1785
  162SOPE  H13Y18214   6.209   2.462   9.769  0.3958 -0.3262 -0.6344
  162SOPE  C31418215   6.413   2.462   9.652 -0.4030 -0.1321 -0.0176
  162SOPE  H14X18216   6.470   2.368   9.637 -0.4208 -0.0351 -0.7273
  162SOPE  H14Y18217   6.477   2.551   9.669 -0.1648 -0.3924  0.4509
  162SOPE  C31518218   6.333   2.491   9.527  0.9747 -0.2052  0.1390
  162SOPE  H15X18219   6.263   2.577   9.542  0.5515 -0.8925  2.1869
  162SOPE  H15Y18220   6.273   2.398   9.515  0.7958  0.1189 -1.7639
  162SOPE  C31618221   6.407   2.516   9.393  0.4253  0.5160  0.2245
  162SOPE  H16X18222   6.493   2.448   9.379  0.1338  0.4147 -1.1862
  162SOPE  H16Y18223   6.433   2.623   9.401  1.2955  0.2534  0.9838
  162SOPE  C31718224   6.316   2.488   9.271 -0.2732  0.3075 -0.6686
  162SOPE  H17X18225   6.225   2.542   9.306 -0.2648  0.8303 -1.4456
  162SOPE  H17Y18226   6.294   2.379   9.260  1.4091 -0.1058 -0.0092
  162SOPE  C31818227   6.368   2.529   9.142 -0.4589 -0.6233  0.4749
  162SOPE  H18X18228   6.454   2.465   9.113 -0.9941  0.3613 -3.6488
  162SOPE  H18Y18229   6.405   2.634   9.149  1.3800 -0.9627 -2.7383
  162SOPE  H18Z18230   6.293   2.506   9.063  0.9257 -3.2444 -0.1484
  163SOPE     N18231   0.785   5.918  11.133  0.0555  0.0666 -0.0784
  163SOPE   HN118232   0.687   5.930  11.101  0.1209 -0.0901 -0.3421
  163SOPE   HN218233   0.813   5.824  11.100  0.5742 -0.0636  0.7339
  163SOPE   HN318234   0.779   5.942  11.234  0.7286 -0.7882  0.1739
  163SOPE   C1218235   0.865   6.019  11.059 -0.3880 -0.5602  0.5903
  163SOPE  H12A18236   0.971   5.990  11.074 -1.3864 -4.0908  1.3689
  163SOPE  H12B18237   0.857   6.117  11.111 -1.1941 -1.2947  1.8835
  163SOPE   C1118238   0.826   6.044  10.909  0.2328 -0.5948  0.5189
  163SOPE  H11A18239   0.856   5.963  10.840  0.4711 -1.5322  1.7047
  163SOPE  H11B18240   0.898   6.123  10.876  0.5955 -1.0696  0.1635
  163SOPE     P18241   0.656   6.152  10.752 -0.1689  0.1676 -0.7930
  163SOPE   O1318242   0.777   6.195  10.680 -0.6891  0.2728 -0.2896
  163SOPE   O1418243   0.566   6.261  10.794 -0.4041 -0.4452 -0.0562
  163SOPE   O1218244   0.691   6.082  10.887 -0.5120 -0.2676 -0.2258
  163SOPE   O1118245   0.577   6.034  10.687 -0.0207  0.7144  1.0433
  163SOPE    C118246   0.651   5.947  10.595  0.0516  0.6980  0.1047
  163SOPE    HA18247   0.593   5.852  10.597  2.3956 -0.8830 -3.4307
  163SOPE    HB18248   0.757   5.930  10.624 -0.7626 -1.4507  1.9859
  163SOPE    C218249   0.656   6.003  10.449 -0.2169  0.0237 -0.5921
  163SOPE    HS18250   0.685   6.110  10.435 -0.2932 -0.2415 -2.9649
  163SOPE   O2118251   0.527   5.979  10.407 -0.1059 -0.0995 -0.0079
  163SOPE   C2118252   0.443   6.078  10.392  0.6344  0.0944 -0.7518
  163SOPE   O2218253   0.460   6.193  10.421  0.2338 -0.2157  0.5084
  163SOPE   C2218254   0.310   6.014  10.350 -0.6320 -0.0578  0.0052
  163SOPE   H2R18255   0.243   6.018  10.438  0.4260  4.0608  0.7339
  163SOPE   H2S18256   0.339   5.911  10.322 -0.8823  0.1481 -1.0362
  163SOPE    C318257   0.762   5.938  10.351  0.5929  0.1067  0.3571
  163SOPE    HX18258   0.739   5.830  10.349  2.8121 -0.3744 -0.8956
  163SOPE    HY18259   0.864   5.963  10.387  0.4939  0.8713  0.1260
  163SOPE   O3118260   0.746   6.008  10.225  0.5177 -0.0715 -0.1179
  163SOPE   C3118261   0.711   5.942  10.117  0.2786  0.3234  0.5134
  163SOPE   O3218262   0.689   5.824  10.112 -0.0016  1.4076  0.3119
  163SOPE   C3218263   0.699   6.036   9.998 -0.3157  0.3462  0.8819
  163SOPE   H2X18264   0.801   6.075   9.976 -0.1960 -0.5313 -0.1902
  163SOPE   H2Y18265   0.622   6.111  10.027 -0.6910 -0.0016  0.7783
  163SOPE   C2318266   0.242   6.090  10.238 -1.0067 -0.0456 -0.4918
  163SOPE   H3R18267   0.219   6.188  10.286  1.0927  0.5936 -0.7446
  163SOPE   H3S18268   0.143   6.041  10.226 -0.4792 -0.7588 -1.9328
  163SOPE   C2418269   0.317   6.096  10.110  0.7024  0.2361  0.4329
  163SOPE   H4R18270   0.405   6.163  10.125  1.8601 -1.7188  2.7116
  163SOPE   H4S18271   0.352   6.000  10.067  0.9131  1.0555 -1.2642
  163SOPE   C2518272   0.228   6.166  10.006  0.4834  0.0038 -0.0667
  163SOPE   H5R18273   0.121   6.135  10.010  0.8173 -0.8904  3.3079
  163SOPE   H5S18274   0.236   6.271  10.041  1.2848 -0.2153  0.4332
  163SOPE   C2618275   0.271   6.154   9.861  0.2872 -0.1040  0.4069
  163SOPE   H6R18276   0.376   6.180   9.837  0.1715 -1.2427 -1.4684
  163SOPE   H6S18277   0.242   6.048   9.851 -1.3782  0.4438 -0.8462
  163SOPE   C2718278   0.183   6.249   9.779  0.1214  0.2728 -0.0247
  163SOPE   H7R18279   0.079   6.238   9.816 -0.6126  1.5565 -1.6310
  163SOPE   H7S18280   0.222   6.350   9.805  0.3276 -0.2063  1.5426
  163SOPE   C2818281   0.191   6.228   9.629  0.0864 -0.1373  0.0489
  163SOPE   H8R18282   0.296   6.247   9.599  0.1803 -0.8383 -0.0690
  163SOPE   H8S18283   0.169   6.129   9.584 -0.4905 -0.4908  1.0976
  163SOPE   C2918284   0.115   6.334   9.563 -0.0200  0.0227 -0.4996
  163SOPE   H9118285   0.007   6.314   9.577 -0.0590  0.6529  0.1110
  163SOPE  C21018286   0.162   6.447   9.521  0.5113 -0.0676 -0.8026
  163SOPE  H10118287   0.094   6.524   9.482  1.6878  0.2697 -2.2179
  163SOPE  C21118288   0.307   6.506   9.515 -0.3321 -0.2572  0.4294
  163SOPE  H11R18289   0.385   6.463   9.581  0.3503  0.6628  0.2329
  163SOPE  H11S18290   0.318   6.613   9.544  1.8265 -1.0702  2.7953
  163SOPE  C21218291   0.370   6.481   9.368 -0.1217 -0.4464 -0.6253
  163SOPE  H12R18292   0.325   6.392   9.319  1.7001 -0.3842 -2.4393
  163SOPE  H12S18293   0.479   6.463   9.384 -0.7716 -1.0354  3.9580
  163SOPE  C21318294   0.342   6.595   9.270 -0.0880 -0.2416 -0.5745
  163SOPE  H13R18295   0.362   6.690   9.324 -0.4258  0.4787 -1.6949
  163SOPE  H13S18296   0.236   6.601   9.239  0.2372 -1.0317 -1.8576
  163SOPE  C21418297   0.421   6.585   9.138  0.1833  0.4933 -0.0196
  163SOPE  H14R18298   0.417   6.490   9.080  1.0462 -0.1631  0.9615
  163SOPE  H14S18299   0.528   6.611   9.153  0.2236 -0.1451  0.8468
  163SOPE  C21518300   0.372   6.668   9.019  0.3508 -0.1897 -0.0720
  163SOPE  H15R18301   0.346   6.770   9.056 -1.6394 -0.5824 -0.3528
  163SOPE  H15S18302   0.281   6.627   8.972 -1.2109 -0.1904  2.8260
  163SOPE  C21618303   0.471   6.710   8.906  0.2840 -0.5992  0.0463
  163SOPE  H16R18304   0.495   6.615   8.852  0.2246 -0.3343 -0.4502
  163SOPE  H16S18305   0.562   6.751   8.956 -0.8736  0.2182  1.5197
  163SOPE  C21718306   0.414   6.815   8.806  0.2568  0.1382  0.2245
  163SOPE  H17R18307   0.380   6.901   8.867 -1.0652  0.3619 -0.8154
  163SOPE  H17S18308   0.332   6.764   8.751 -1.8684 -0.1337  3.4678
  163SOPE  C21818309   0.514   6.868   8.701 -0.1514 -0.0366  0.3773
  163SOPE  H18R18310   0.470   6.905   8.606  1.1693  1.2741  0.2564
  163SOPE  H18S18311   0.580   6.781   8.677 -1.3876 -0.7681 -0.4299
  163SOPE  H18T18312   0.565   6.959   8.739 -1.1426  0.6301  0.1410
  163SOPE   C3318313   0.665   5.951   9.868  0.0156  0.2436 -0.6144
  163SOPE   H3X18314   0.577   5.885   9.885  1.4775 -1.3591  0.9626
  163SOPE   H3Y18315   0.738   5.872   9.841  1.3038  0.7739  1.1797
  163SOPE   C3418316   0.646   6.037   9.743  0.1923  0.7416  0.3908
  163SOPE   H4X18317   0.742   6.091   9.730  0.1841  0.7485  0.3583
  163SOPE   H4Y18318   0.563   6.111   9.750  0.2733  0.7226  1.5548
  163SOPE   C3518319   0.614   5.963   9.617  0.3189 -0.0555 -0.1410
  163SOPE   H5X18320   0.526   5.896   9.630  0.7101 -0.6850 -0.6555
  163SOPE   H5Y18321   0.705   5.905   9.590 -1.3207 -2.9052  0.2105
  163SOPE   C3618322   0.603   6.059   9.500 -0.2069  0.0267 -0.4898
  163SOPE   H6X18323   0.700   6.108   9.476 -0.8683  0.3949 -2.4656
  163SOPE   H6Y18324   0.524   6.135   9.517 -1.5802 -1.5661  0.3917
  163SOPE   C3718325   0.546   5.985   9.376  0.0912  0.7264 -0.3720
  163SOPE   H7X18326   0.443   5.954   9.403 -0.0033  0.7567 -0.6931
  163SOPE   H7Y18327   0.611   5.898   9.352 -0.1997  0.2942  0.4013
  163SOPE   C3818328   0.510   6.085   9.264  0.1057 -0.7431  0.3539
  163SOPE   H8X18329   0.443   6.164   9.304 -1.4219 -1.8739  0.0661
  163SOPE   H8Y18330   0.444   6.041   9.186 -0.9324  0.8909  0.2826
  163SOPE   C3918331   0.631   6.134   9.183  0.6838 -1.0155  0.3439
  163SOPE   H9X18332   0.692   6.050   9.145  0.0804 -0.7305 -1.2792
  163SOPE   H9Y18333   0.702   6.191   9.248  0.3103 -1.1072  0.8372
  163SOPE  C31018334   0.587   6.208   9.059  0.5732  0.4015  0.5267
  163SOPE  H10X18335   0.547   6.306   9.092 -0.1235  0.1308  0.4982
  163SOPE  H10Y18336   0.510   6.145   9.009  1.1294  0.0166  0.1426
  163SOPE  C31118337   0.701   6.234   8.953  0.2169 -0.4017  0.7786
  163SOPE  H11X18338   0.749   6.151   8.897 -0.3855 -0.1465 -0.1143
  163SOPE  H11Y18339   0.778   6.282   9.017 -0.5784  0.1785  1.3086
  163SOPE  C31218340   0.649   6.341   8.852 -0.0753  0.7724  0.4834
  163SOPE  H12X18341   0.607   6.428   8.906  1.9226  1.6960  0.5629
  163SOPE  H12Y18342   0.557   6.297   8.806  0.7846  2.3613 -2.9583
  163SOPE  C31318343   0.755   6.372   8.746 -0.0431  0.0999  0.0344
  163SOPE  H13X18344   0.760   6.278   8.687 -2.9835 -1.3484  1.9422
  163SOPE  H13Y18345   0.857   6.385   8.786 -0.8804 -2.6515  3.3480
  163SOPE  C31418346   0.731   6.493   8.657  0.0087  0.2630 -0.1487
  163SOPE  H14X18347   0.726   6.591   8.710 -2.9540 -0.9029  1.8678
  163SOPE  H14Y18348   0.631   6.479   8.610 -0.4555 -1.5060  1.2941
  163SOPE  C31518349   0.846   6.505   8.554  0.0816  0.3729  0.0815
  163SOPE  H15X18350   0.881   6.409   8.511 -0.4613  0.0497  0.3584
  163SOPE  H15Y18351   0.929   6.544   8.617  0.7149 -2.6006  1.1635
  163SOPE  C31618352   0.802   6.611   8.447 -0.6301  0.1966 -0.2115
  163SOPE  H16X18353   0.777   6.703   8.504 -0.6629  0.4444 -0.6229
  163SOPE  H16Y18354   0.722   6.567   8.383  1.2228  0.4633 -2.7985
  163SOPE  C31718355   0.916   6.654   8.354  0.9005 -0.3325  0.0060
  163SOPE  H17X18356   1.003   6.696   8.409  0.4337 -0.7770  1.0931
  163SOPE  H17Y18357   0.870   6.724   8.281  0.1943  0.3190  1.0667
  163SOPE  C31818358   0.953   6.536   8.257  0.3289  0.4962 -0.1346
  163SOPE  H18X18359   1.023   6.555   8.173 -0.9095 -0.0839 -1.3203
  163SOPE  H18Y18360   0.859   6.504   8.208 -0.0911 -0.8872  1.5317
  163SOPE  H18Z18361   0.986   6.446   8.314 -1.5051 -0.1917 -0.1339
  164SOPE     N18362   2.428   4.464  10.907 -0.0473  0.0121 -0.2156
  164SOPE   HN118363   2.507   4.507  10.960  0.2410 -0.0419 -0.5942
  164SOPE   HN218364   2.388   4.544  10.854  1.2239 -0.0698 -1.3364
  164SOPE   HN318365   2.346   4.435  10.962 -0.4241  1.3025 -0.0747
  164SOPE   C1218366   2.486   4.365  10.806  0.5436  0.3968  0.3810
  164SOPE  H12A18367   2.406   4.343  10.733  1.2318  0.0617 -0.2834
  164SOPE  H12B18368   2.526   4.275  10.858  0.7342 -1.4877 -2.8527
  164SOPE   C1118369   2.598   4.442  10.733  0.7798 -0.1763 -0.4337
  164SOPE  H11A18370   2.580   4.551  10.724 -0.8496 -0.3311  0.6938
  164SOPE  H11B18371   2.606   4.397  10.631 -2.4631 -0.1910 -0.7402
  164SOPE     P18372   2.826   4.320  10.780  0.0352 -0.0386 -0.1721
  164SOPE   O1318373   2.762   4.187  10.767  0.2626 -0.3615 -0.1185
  164SOPE   O1418374   2.923   4.334  10.884  1.0412 -0.3215  0.1347
  164SOPE   O1218375   2.717   4.430  10.813 -0.4062  0.0109 -0.5089
  164SOPE   O1118376   2.888   4.356  10.636  0.2072  0.8432  0.4637
  164SOPE    C118377   3.002   4.276  10.595 -0.4655 -0.4457  0.3337
  164SOPE    HA18378   2.972   4.169  10.592 -1.7466 -0.0710 -0.2946
  164SOPE    HB18379   3.091   4.287  10.662 -0.7387  2.1139  0.2930
  164SOPE    C218380   3.058   4.308  10.458 -0.5341 -0.1370 -0.4879
  164SOPE    HS18381   3.134   4.235  10.424 -0.5615 -0.1753 -0.4669
  164SOPE   O2118382   3.109   4.446  10.458 -0.1367 -0.0570 -0.3855
  164SOPE   C2118383   3.240   4.466  10.483 -0.3582 -0.2324  0.0651
  164SOPE   O2218384   3.321   4.375  10.493 -0.2304 -0.3179  0.1419
  164SOPE   C2218385   3.263   4.608  10.482  0.0053  0.1248  0.2929
  164SOPE   H2R18386   3.249   4.657  10.581 -0.2878  1.1794 -0.2531
  164SOPE   H2S18387   3.193   4.659  10.412  1.7757  1.9044 -0.2417
  164SOPE    C318388   2.942   4.305  10.354 -0.5618  0.3345  0.1239
  164SOPE    HX18389   2.862   4.373  10.389 -1.2265 -0.2398 -0.2578
  164SOPE    HY18390   2.894   4.205  10.354 -0.3973  0.2527  1.5518
  164SOPE   O3118391   2.984   4.343  10.228 -0.1042  0.1566  0.4038
  164SOPE   C3118392   2.934   4.450  10.167 -0.0469  0.5711  0.7115
  164SOPE   O3218393   2.844   4.519  10.212  0.6584  0.3656 -0.3421
  164SOPE   C3218394   3.002   4.471  10.029 -0.2323 -0.0389  0.0392
  164SOPE   H2X18395   2.924   4.434   9.961  0.9726  0.5186 -1.6749
  164SOPE   H2Y18396   3.084   4.397  10.016  0.3096  0.8500 -1.7555
  164SOPE   C2318397   3.409   4.636  10.450 -0.0670  0.1432  0.3338
  164SOPE   H3R18398   3.477   4.573  10.511  0.0242 -1.6255 -1.5401
  164SOPE   H3S18399   3.446   4.739  10.471  0.9437  0.2840 -1.9130
  164SOPE   C2418400   3.437   4.619  10.298  0.9290 -0.6572 -0.4667
  164SOPE   H4R18401   3.548   4.615  10.291  1.2869  2.7649  2.1388
  164SOPE   H4S18402   3.401   4.520  10.263 -0.5381 -0.8031  1.4266
  164SOPE   C2518403   3.394   4.739  10.212  1.3688  0.6759  0.3918
  164SOPE   H5R18404   3.283   4.754  10.214  0.7318 -2.9861 -1.8372
  164SOPE   H5S18405   3.426   4.835  10.257  0.0884  0.9494  0.7596
  164SOPE   C2618406   3.435   4.736  10.059  0.2501 -0.5726  1.2426
  164SOPE   H6R18407   3.544   4.731  10.038  0.2291  1.2506  0.6193
  164SOPE   H6S18408   3.383   4.647  10.018 -0.5989  0.8563 -0.8622
  164SOPE   C2718409   3.382   4.849   9.965  0.2905 -0.2485  0.5548
  164SOPE   H7R18410   3.271   4.841   9.970  0.3276 -0.4355  1.1123
  164SOPE   H7S18411   3.415   4.951   9.994  0.2754 -0.0275 -0.2141
  164SOPE   C2818412   3.428   4.819   9.821  0.4908  0.1959  0.4833
  164SOPE   H8R18413   3.537   4.820   9.798 -0.0197  1.4934 -2.1556
  164SOPE   H8S18414   3.397   4.715   9.797 -2.7829  1.3743 -0.7027
  164SOPE   C2918415   3.351   4.910   9.736 -0.1592 -0.3720  0.3391
  164SOPE   H9118416   3.244   4.885   9.747 -0.1916 -0.4761 -0.1862
  164SOPE  C21018417   3.391   5.002   9.643 -0.7790  0.1804  0.1539
  164SOPE  H10118418   3.314   5.063   9.593  1.1057 -0.1663 -3.3621
  164SOPE  C21118419   3.537   5.039   9.609 -0.1339  0.2381  0.1379
  164SOPE  H11R18420   3.602   4.955   9.640 -1.1211 -0.2311  0.9403
  164SOPE  H11S18421   3.580   5.113   9.681  0.8634 -0.7418  0.5648
  164SOPE  C21218422   3.560   5.060   9.456  0.3446  0.4588  0.1671
  164SOPE  H12R18423   3.501   4.988   9.396  0.0060  3.0526 -2.7191
  164SOPE  H12S18424   3.662   5.026   9.427 -0.6156 -1.7871 -0.6268
  164SOPE  C21318425   3.522   5.205   9.414 -1.0456 -0.6253  0.8546
  164SOPE  H13R18426   3.607   5.269   9.445 -0.9546  0.5467 -1.6602
  164SOPE  H13S18427   3.443   5.251   9.476  1.0438  2.3275  1.4149
  164SOPE  C21418428   3.495   5.228   9.258 -0.5501 -0.1459  0.2218
  164SOPE  H14R18429   3.437   5.321   9.240  1.4762  1.2789  0.8804
  164SOPE  H14S18430   3.438   5.138   9.225 -0.1310 -0.4744  0.3940
  164SOPE  C21518431   3.617   5.234   9.156  0.1799 -0.0733 -0.0244
  164SOPE  H15R18432   3.650   5.128   9.159  1.1492  0.2625  2.6366
  164SOPE  H15S18433   3.688   5.310   9.196  0.5804  0.5634 -1.9167
  164SOPE  C21618434   3.576   5.271   9.012 -0.2834  0.6845 -0.4755
  164SOPE  H16R18435   3.507   5.356   9.032  1.4460  2.4914 -2.0718
  164SOPE  H16S18436   3.505   5.192   8.979 -1.7784 -0.1732  4.4124
  164SOPE  C21718437   3.690   5.303   8.918 -0.0766  0.1318  0.1156
  164SOPE  H17R18438   3.751   5.211   8.933  0.6922  0.9260  2.1461
  164SOPE  H17S18439   3.750   5.382   8.969 -0.0425  0.0755  0.1625
  164SOPE  C21818440   3.663   5.325   8.774  0.0817  0.3026 -0.4732
  164SOPE  H18R18441   3.607   5.235   8.739 -2.9795  1.5039  1.1341
  164SOPE  H18S18442   3.754   5.333   8.712 -0.5961 -1.5434 -1.7486
  164SOPE  H18T18443   3.614   5.424   8.761  2.1913  1.4226 -0.0886
  164SOPE   C3318444   3.047   4.619   9.991 -0.4263 -0.2495 -0.1866
  164SOPE   H3X18445   3.150   4.631  10.030 -0.2527 -3.6221  0.5651
  164SOPE   H3Y18446   2.979   4.696  10.033 -1.1850 -1.2194  0.3951
  164SOPE   C3418447   3.034   4.644   9.837 -0.4034  0.0822 -0.2124
  164SOPE   H4X18448   3.025   4.752   9.816  1.3716  0.3120  0.1445
  164SOPE   H4Y18449   2.940   4.590   9.814 -2.3259  2.8669  0.8856
  164SOPE   C3518450   3.137   4.568   9.744  0.0222  0.0927 -0.5007
  164SOPE   H5X18451   3.117   4.461   9.766 -0.5326  0.2639 -0.1539
  164SOPE   H5Y18452   3.235   4.602   9.784 -1.1622 -0.5273  3.0986
  164SOPE   C3618453   3.135   4.607   9.596  0.4093  0.0110 -0.0918
  164SOPE   H6X18454   3.161   4.715   9.593  0.2770  0.0838  0.9781
  164SOPE   H6Y18455   3.035   4.594   9.550  0.5295  0.1902 -0.4023
  164SOPE   C3718456   3.230   4.524   9.515 -0.8071 -0.4542 -0.3576
  164SOPE   H7X18457   3.195   4.421   9.539 -0.5993 -0.5501 -0.4665
  164SOPE   H7Y18458   3.339   4.535   9.536 -1.0327  1.9859 -0.3384
  164SOPE   C3818459   3.199   4.572   9.369  0.2735 -0.0407 -0.4747
  164SOPE   H8X18460   3.090   4.569   9.351  0.1077  0.4904  0.3861
  164SOPE   H8Y18461   3.248   4.497   9.303  0.4363 -0.1669 -0.2132
  164SOPE   C3918462   3.256   4.707   9.334 -0.3515  0.3835 -0.5682
  164SOPE   H9X18463   3.367   4.702   9.342 -0.3015 -3.0053 -2.1923
  164SOPE   H9Y18464   3.202   4.787   9.389  2.0906  1.6218  0.0923
  164SOPE  C31018465   3.236   4.735   9.183 -0.4559  0.2036 -0.2990
  164SOPE  H10X18466   3.129   4.735   9.153 -0.9297  0.6787  1.3351
  164SOPE  H10Y18467   3.280   4.651   9.125 -3.9843 -0.9946 -1.3928
  164SOPE  C31118468   3.307   4.868   9.150 -0.1369  0.4244 -0.7852
  164SOPE  H11X18469   3.415   4.866   9.174 -0.4374  0.2312  0.5519
  164SOPE  H11Y18470   3.255   4.938   9.218 -0.7806 -2.9873  2.3767
  164SOPE  C31218471   3.295   4.918   9.001 -1.0664 -0.7238 -1.1165
  164SOPE  H12X18472   3.366   4.999   8.977 -1.2971 -0.7259 -1.8224
  164SOPE  H12Y18473   3.193   4.958   8.983  0.3914  2.9087 -1.6548
  164SOPE  C31318474   3.313   4.800   8.905 -0.0442  0.1323  0.2931
  164SOPE  H13X18475   3.272   4.830   8.806 -0.4923 -1.7851 -0.1231
  164SOPE  H13Y18476   3.245   4.719   8.939  0.4470 -0.3704  0.0937
  164SOPE  C31418477   3.457   4.759   8.873 -0.3590  0.5829  0.5435
  164SOPE  H14X18478   3.516   4.735   8.964  1.5288  0.6502 -0.6267
  164SOPE  H14Y18479   3.507   4.851   8.837  1.0821  1.0298  3.5095
  164SOPE  C31518480   3.473   4.652   8.774  0.7200 -0.6155  0.0444
  164SOPE  H15X18481   3.582   4.650   8.750  0.4129 -0.5517 -1.4222
  164SOPE  H15Y18482   3.424   4.673   8.676  1.2291  1.5242  0.2296
  164SOPE  C31618483   3.424   4.511   8.821  0.4200 -0.1607 -0.3529
  164SOPE  H16X18484   3.313   4.514   8.824  0.4577 -0.2169  1.7581
  164SOPE  H16Y18485   3.458   4.490   8.925  1.9668  1.0709 -0.5860
  164SOPE  C31718486   3.463   4.408   8.723 -0.1039 -0.5227  0.1515
  164SOPE  H17X18487   3.433   4.437   8.620 -0.0676 -0.1724  0.2402
  164SOPE  H17Y18488   3.400   4.320   8.749 -1.4097  0.0281 -1.1224
  164SOPE  C31818489   3.605   4.371   8.716 -0.3194  1.1154  0.3022
  164SOPE  H18X18490   3.640   4.358   8.821 -0.3209 -2.7355 -0.1179
  164SOPE  H18Y18491   3.652   4.465   8.678 -1.2761  0.5128 -2.4978
  164SOPE  H18Z18492   3.630   4.288   8.647  1.1266  1.6271  0.1875
  165SOPE     N18493   1.589   4.641  11.097 -0.3874  0.1528  0.2571
  165SOPE   HN118494   1.620   4.610  11.191  1.9099  3.5936  0.7457
  165SOPE   HN218495   1.495   4.599  11.081 -1.0180  0.9590  1.6961
  165SOPE   HN318496   1.654   4.610  11.022  0.6464  1.7905  0.4482
  165SOPE   C1218497   1.583   4.793  11.086 -0.1703  0.1187  0.1528
  165SOPE  H12A18498   1.681   4.828  11.126 -0.1065  0.7306 -0.5273
  165SOPE  H12B18499   1.497   4.828  11.148 -0.3129  0.5058 -0.2631
  165SOPE   C1118500   1.578   4.826  10.938 -0.9265 -0.6145 -0.2111
  165SOPE  H11A18501   1.674   4.819  10.882 -0.7198  0.7129 -0.0379
  165SOPE  H11B18502   1.546   4.932  10.931 -2.3934 -1.0588 -0.2410
  165SOPE     P18503   1.337   4.765  10.862 -0.3094 -0.5924  0.1078
  165SOPE   O1318504   1.286   4.842  10.978  0.3394 -0.0185  0.2549
  165SOPE   O1418505   1.273   4.634  10.834 -0.0955 -0.1954  0.6405
  165SOPE   O1218506   1.494   4.740  10.866 -0.2971  0.1403  0.0506
  165SOPE   O1118507   1.323   4.864  10.742 -0.6171  0.0213 -0.2036
  165SOPE    C118508   1.333   4.825  10.602 -0.2402 -0.2518 -0.0142
  165SOPE    HA18509   1.237   4.797  10.553 -0.0365 -2.8118  0.9424
  165SOPE    HB18510   1.394   4.733  10.592 -0.8444 -0.6516 -0.0387
  165SOPE    C218511   1.407   4.929  10.524  0.0785  0.4608 -0.2851
  165SOPE    HS18512   1.340   5.016  10.510  1.9575  2.0706  0.4387
  165SOPE   O2118513   1.457   4.882  10.398  0.0348 -0.2179 -0.0882
  165SOPE   C2118514   1.380   4.854  10.305  0.3073 -0.7965 -0.0844
  165SOPE   O2218515   1.256   4.849  10.312  0.3844  0.0065  0.2651
  165SOPE   C2218516   1.458   4.837  10.168  0.5327  0.3642 -0.0101
  165SOPE   H2R18517   1.529   4.754  10.187  0.5506 -0.4601 -3.4642
  165SOPE   H2S18518   1.516   4.932  10.167  3.6653 -1.4583  1.7324
  165SOPE    C318519   1.521   4.992  10.607  0.5720 -0.1224 -0.3507
  165SOPE    HX18520   1.582   4.909  10.648 -0.0844  0.8259  2.6752
  165SOPE    HY18521   1.472   5.042  10.693  3.0113  3.1195 -0.7466
  165SOPE   O3118522   1.602   5.086  10.536 -0.1067  0.4737 -0.6190
  165SOPE   C3118523   1.701   5.134  10.608 -0.5682  0.3456 -0.3603
  165SOPE   O3218524   1.729   5.109  10.726 -0.2289 -0.0208  0.4299
  165SOPE   C3218525   1.787   5.223  10.518  0.1785  0.1187 -0.5753
  165SOPE   H2X18526   1.846   5.299  10.573  2.7208 -2.5415  0.4965
  165SOPE   H2Y18527   1.722   5.275  10.445  0.2142 -1.5670 -1.8541
  165SOPE   C2318528   1.354   4.828  10.052  0.1590  0.0434  0.2949
  165SOPE   H3R18529   1.279   4.907  10.073  0.3788  0.2640  0.2459
  165SOPE   H3S18530   1.298   4.732  10.061  1.7983 -0.9256  0.2410
  165SOPE   C2418531   1.412   4.856   9.917 -0.1163 -0.6189  0.0901
  165SOPE   H4R18532   1.448   4.959   9.893 -1.4475  0.0547  0.9340
  165SOPE   H4S18533   1.501   4.789   9.921  0.1501 -0.4911 -2.5252
  165SOPE   C2518534   1.322   4.798   9.808 -0.2127 -0.4235  0.1604
  165SOPE   H5R18535   1.313   4.688   9.819 -0.9256 -0.2368  1.6045
  165SOPE   H5S18536   1.221   4.843   9.817 -0.6018 -1.1161 -0.7425
  165SOPE   C2618537   1.365   4.827   9.665 -0.3092  0.2495  0.1619
  165SOPE   H6R18538   1.385   4.936   9.657  0.5284  0.0499 -0.5959
  165SOPE   H6S18539   1.458   4.770   9.645 -0.6175 -0.3588  0.4319
  165SOPE   C2718540   1.256   4.781   9.567  0.2997 -0.1093 -0.6500
  165SOPE   H7R18541   1.221   4.691   9.621  0.4450  1.4473  2.1344
  165SOPE   H7S18542   1.164   4.843   9.578  1.4788  1.5452  0.1078
  165SOPE   C2818543   1.295   4.753   9.425 -0.6319 -0.0492 -0.5191
  165SOPE   H8R18544   1.197   4.726   9.381 -1.3511  0.2219  0.8942
  165SOPE   H8S18545   1.338   4.840   9.371  0.2361 -0.4795 -0.5343
  165SOPE   C2918546   1.391   4.639   9.413  0.2536 -0.3300  0.1344
  165SOPE   H9118547   1.491   4.672   9.445  0.4764 -2.0183  1.3142
  165SOPE  C21018548   1.380   4.510   9.378 -0.5120  0.3465 -0.6531
  165SOPE  H10118549   1.463   4.437   9.387 -1.2255 -0.2092  1.6598
  165SOPE  C21118550   1.245   4.443   9.337 -0.2048  0.2519 -0.6415
  165SOPE  H11R18551   1.170   4.509   9.290 -2.0825 -0.1449  1.6929
  165SOPE  H11S18552   1.202   4.393   9.427  2.0705  0.3189  0.5332
  165SOPE  C21218553   1.263   4.326   9.237 -0.0711  0.5573  0.4490
  165SOPE  H12R18554   1.171   4.265   9.234 -0.3406  0.9316  0.8835
  165SOPE  H12S18555   1.350   4.270   9.278 -0.6179 -1.1860 -0.7434
  165SOPE  C21318556   1.289   4.368   9.084  0.0799 -0.3545 -0.1655
  165SOPE  H13R18557   1.279   4.275   9.025  1.4473 -2.3752  2.6425
  165SOPE  H13S18558   1.392   4.409   9.075  0.6967 -1.4183  1.6855
  165SOPE  C21418559   1.200   4.475   9.035 -0.1384  0.0108  0.1751
  165SOPE  H14R18560   1.211   4.576   9.080  0.0886  0.5983 -1.1432
  165SOPE  H14S18561   1.098   4.444   9.067  1.4489 -1.8503  3.5983
  165SOPE  C21518562   1.198   4.503   8.883 -0.8285 -0.2241  0.3342
  165SOPE  H15R18563   1.164   4.416   8.822 -0.5880  0.2335 -0.4598
  165SOPE  H15S18564   1.302   4.523   8.849 -0.5383  0.6040  1.6787
  165SOPE  C21618565   1.119   4.632   8.849  0.1031 -0.0013  0.9362
  165SOPE  H16R18566   1.175   4.716   8.896  1.7423 -1.1889  1.1360
  165SOPE  H16S18567   1.016   4.627   8.890 -1.1456  2.2959 -1.7250
  165SOPE  C21718568   1.092   4.649   8.693 -0.2315 -0.5678 -0.3302
  165SOPE  H17R18569   1.187   4.637   8.637  0.4478 -0.9581  0.8774
  165SOPE  H17S18570   1.045   4.748   8.677 -2.4598 -1.8982 -2.2503
  165SOPE  C21818571   0.993   4.549   8.637 -0.1082 -1.3131 -0.0741
  165SOPE  H18R18572   0.994   4.535   8.527  1.6249 -1.5223 -0.0515
  165SOPE  H18S18573   0.892   4.570   8.678  0.2006 -0.3889  0.2169
  165SOPE  H18T18574   1.020   4.448   8.677  2.0591 -1.3520 -1.5311
  165SOPE   C3318575   1.894   5.139  10.437  0.1254 -0.3958 -0.3520
  165SOPE   H3X18576   1.941   5.065  10.505 -1.4549 -2.0054 -0.9843
  165SOPE   H3Y18577   1.963   5.220  10.405  0.2466 -0.1450  0.5144
  165SOPE   C3418578   1.828   5.070  10.312 -0.6785 -0.0443 -0.2877
  165SOPE   H4X18579   1.786   5.151  10.249 -1.3575 -0.2527 -0.1080
  165SOPE   H4Y18580   1.744   4.999  10.329  1.0715 -2.0848  0.0331
  165SOPE   C3518581   1.929   4.999  10.228 -0.9733 -0.2775 -1.1149
  165SOPE   H5X18582   1.982   4.924  10.290 -0.0659  0.2931 -1.1865
  165SOPE   H5Y18583   2.009   5.070  10.198  0.2425 -0.2002  2.1086
  165SOPE   C3618584   1.877   4.940  10.109  0.3020  0.3398  0.0387
  165SOPE   H6X18585   1.811   5.020  10.068 -0.1299 -0.5655 -1.0528
  165SOPE   H6Y18586   1.812   4.853  10.132 -0.9200  1.5912  1.4338
  165SOPE   C3718587   1.981   4.901  10.002 -0.0678  0.1756 -0.4926
  165SOPE   H7X18588   2.054   4.825  10.038  0.1449 -0.6000 -2.5061
  165SOPE   H7Y18589   2.037   4.996   9.990  1.5413 -0.7379 -0.2778
  165SOPE   C3818590   1.933   4.855   9.865  0.0074 -0.5975 -0.4212
  165SOPE   H8X18591   1.898   4.750   9.862 -1.0187 -0.1975 -3.7638
  165SOPE   H8Y18592   2.010   4.846   9.785 -0.0261  0.8833 -0.6349
  165SOPE   C3918593   1.814   4.945   9.812 -0.6270  0.4351 -0.1406
  165SOPE   H9X18594   1.835   5.054   9.826 -0.8533  0.6389 -1.3328
  165SOPE   H9Y18595   1.719   4.924   9.865  0.3972  1.2942  2.1155
  165SOPE  C31018596   1.798   4.932   9.661 -0.2846  0.0480 -0.4824
  165SOPE  H10X18597   1.783   4.825   9.635  1.5798 -0.3281 -0.0775
  165SOPE  H10Y18598   1.900   4.949   9.621 -0.1069 -0.2483 -0.1559
  165SOPE  C31118599   1.706   5.033   9.599 -0.1327  0.4728  0.0622
  165SOPE  H11X18600   1.719   5.136   9.637  0.0779 -0.8305  3.7228
  165SOPE  H11Y18601   1.604   4.999   9.627 -0.1091  1.0021  0.8069
  165SOPE  C31218602   1.716   5.008   9.448  0.1757  0.5086  0.9083
  165SOPE  H12X18603   1.736   4.901   9.429 -1.2200  0.3516  0.2768
  165SOPE  H12Y18604   1.802   5.065   9.404  0.0936  0.0480  0.1374
  165SOPE  C31318605   1.592   5.055   9.370 -1.0518 -0.8762  0.2803
  165SOPE  H13X18606   1.564   5.154   9.411 -1.3876 -0.7919 -0.1462
  165SOPE  H13Y18607   1.502   4.991   9.385  0.0507 -2.6997 -0.6305
  165SOPE  C31418608   1.634   5.063   9.220  0.2416 -0.0592  0.8360
  165SOPE  H14X18609   1.687   4.970   9.190  0.5524 -0.0647  1.4120
  165SOPE  H14Y18610   1.709   5.142   9.197 -0.6336  0.3152 -0.8264
  165SOPE  C31518611   1.508   5.090   9.129 -0.2350  0.7901 -0.2547
  165SOPE  H15X18612   1.467   5.192   9.144 -0.4486  0.6941 -0.1880
  165SOPE  H15Y18613   1.438   5.009   9.160  1.7979 -0.6201  0.8441
  165SOPE  C31618614   1.533   5.052   8.983 -0.3815 -0.1411  0.2824
  165SOPE  H16X18615   1.601   4.965   8.973 -1.0354 -1.0397  3.1610
  165SOPE  H16Y18616   1.579   5.135   8.925 -2.0603  1.8194  1.7088
  165SOPE  C31718617   1.399   5.003   8.927 -0.5512 -0.0506 -0.4788
  165SOPE  H17X18618   1.321   5.079   8.943  0.5949  1.1719 -0.6252
  165SOPE  H17Y18619   1.367   4.918   8.992 -1.2862  0.6206  0.0356
  165SOPE  C31818620   1.404   4.956   8.781  0.8205 -0.2605 -0.2932
  165SOPE  H18X18621   1.503   4.923   8.743  0.1091 -1.7379 -0.8917
  165SOPE  H18Y18622   1.385   5.047   8.720  0.1512  1.0588  1.8266
  165SOPE  H18Z18623   1.322   4.884   8.761  0.2187  0.5974 -0.9475
  166SOPE     N18624   4.996   5.113  11.131 -0.0833  0.1850  0.2082
  166SOPE   HN118625   4.897   5.087  11.146  0.3850 -0.5323  2.1707
  166SOPE   HN218626   5.054   5.063  11.202 -0.3336 -0.5813 -0.1216
  166SOPE   HN318627   5.012   5.213  11.155  1.6217 -0.4973  2.0944
  166SOPE   C1218628   5.046   5.076  10.994 -0.2074  0.9647 -0.0389
  166SOPE  H12A18629   4.987   5.125  10.913 -1.3338  0.0231  0.1916
  166SOPE  H12B18630   5.008   4.973  10.979  0.8392  0.7261 -1.1057
  166SOPE   C1118631   5.190   5.094  10.988  0.2088 -0.1357  0.2603
  166SOPE  H11A18632   5.221   5.091  10.881 -0.8862  0.0821 -0.0659
  166SOPE  H11B18633   5.235   5.000  11.028  0.4226 -1.3972 -2.8115
  166SOPE     P18634   5.204   5.359  11.040 -0.0139 -0.0423  0.2781
  166SOPE   O1318635   5.329   5.435  11.074  0.2836  0.5022 -0.8189
  166SOPE   O1418636   5.072   5.398  11.099 -0.0517 -0.3016 -0.0841
  166SOPE   O1218637   5.232   5.206  11.064  0.5401 -1.2348 -0.5174
  166SOPE   O1118638   5.178   5.358  10.883  0.2869 -0.3249  0.3605
  166SOPE    C118639   5.291   5.346  10.795  0.6649  0.1273  0.6026
  166SOPE    HA18640   5.337   5.247  10.816 -0.9273 -0.9514 -0.8106
  166SOPE    HB18641   5.375   5.413  10.824  1.7515 -1.1087  0.3167
  166SOPE    C218642   5.254   5.360  10.644 -0.2601  0.3728  0.0799
  166SOPE    HS18643   5.338   5.317  10.585  0.6124  3.0950 -0.7291
  166SOPE   O2118644   5.226   5.500  10.617 -0.0272 -0.0723  0.8760
  166SOPE   C2118645   5.282   5.550  10.503  0.7969 -0.1911  0.0214
  166SOPE   O2218646   5.349   5.486  10.425  0.5699 -0.5889  0.2898
  166SOPE   C2218647   5.252   5.701  10.495  0.2691  0.6189 -0.2764
  166SOPE   H2R18648   5.325   5.740  10.569  1.6836  0.1278 -1.4096
  166SOPE   H2S18649   5.150   5.717  10.536  0.5557  2.0111 -0.0945
  166SOPE    C318650   5.125   5.273  10.620  0.5248  0.4379 -0.1526
  166SOPE    HX18651   5.038   5.318  10.672  1.8360  1.1254  1.4860
  166SOPE    HY18652   5.152   5.174  10.664  0.7390  1.6005  2.4167
  166SOPE   O3118653   5.096   5.251  10.476  1.1510  0.8762  0.1953
  166SOPE   C3118654   4.987   5.174  10.463  0.0516  0.6517  1.1398
  166SOPE   O3218655   4.919   5.132  10.554 -0.6201  0.1721  0.2734
  166SOPE   C3218656   4.960   5.156  10.310  0.4223  0.1948  0.0972
  166SOPE   H2X18657   4.852   5.137  10.290 -0.4583  1.0788  3.5819
  166SOPE   H2Y18658   5.006   5.058  10.285  0.8765  0.5914 -0.6347
  166SOPE   C2318659   5.294   5.758  10.355 -0.9226  0.4090  0.5007
  166SOPE   H3R18660   5.384   5.701  10.321 -1.4313 -0.0542 -0.0929
  166SOPE   H3S18661   5.320   5.865  10.363 -0.2892  0.2832  0.2143
  166SOPE   C2418662   5.179   5.728  10.261 -0.2804 -0.1707  0.5531
  166SOPE   H4R18663   5.094   5.690  10.323  0.6531  2.0561  3.3268
  166SOPE   H4S18664   5.141   5.825  10.222 -1.4287 -0.1778  1.6215
  166SOPE   C2518665   5.208   5.631  10.145 -0.5240  0.5518 -0.9850
  166SOPE   H5R18666   5.247   5.542  10.198 -0.5144  0.4576 -1.1493
  166SOPE   H5S18667   5.106   5.607  10.107 -1.3725  0.6817  1.1458
  166SOPE   C2618668   5.289   5.677  10.030 -0.8743  0.1002  0.1329
  166SOPE   H6R18669   5.229   5.757   9.984  2.2621  2.2018 -0.4523
  166SOPE   H6S18670   5.384   5.723  10.066  0.6777 -0.3894 -3.2247
  166SOPE   C2718671   5.321   5.571   9.928 -0.2586  0.5060 -0.3701
  166SOPE   H7R18672   5.379   5.490   9.977 -0.4478  0.6886  0.1640
  166SOPE   H7S18673   5.220   5.542   9.892 -1.8382  2.0445  2.5884
  166SOPE   C2818674   5.405   5.631   9.815 -0.4165  0.0029 -0.2463
  166SOPE   H8R18675   5.360   5.730   9.795  0.1786 -0.1356 -2.3407
  166SOPE   H8S18676   5.510   5.634   9.850 -1.0270  1.1707  1.5131
  166SOPE   C2918677   5.402   5.534   9.699 -0.0551 -0.4975 -0.6105
  166SOPE   H9118678   5.456   5.438   9.700 -0.5166 -0.7614 -0.7029
  166SOPE  C21018679   5.322   5.551   9.589 -0.4790 -0.9372  0.6322
  166SOPE  H10118680   5.329   5.467   9.518  0.9183 -1.5521  1.4736
  166SOPE  C21118681   5.222   5.653   9.546 -0.7990  0.4985 -0.4821
  166SOPE  H11R18682   5.200   5.738   9.615 -0.4000  0.6116 -0.4925
  166SOPE  H11S18683   5.126   5.599   9.534  1.2826 -3.0091 -1.9194
  166SOPE  C21218684   5.256   5.704   9.403 -0.4300  0.2228 -0.2336
  166SOPE  H12R18685   5.270   5.616   9.336  0.4988  0.3370 -0.2037
  166SOPE  H12S18686   5.349   5.765   9.412  1.5333 -2.4717 -1.3949
  166SOPE  C21318687   5.133   5.790   9.364  0.2091 -0.4246  0.0574
  166SOPE  H13R18688   5.134   5.874   9.436  0.4854 -2.0889  2.0553
  166SOPE  H13S18689   5.037   5.735   9.376  1.2011 -1.8771  1.4897
  166SOPE  C21418690   5.144   5.847   9.223  0.9338 -0.5452 -0.6802
  166SOPE  H14R18691   5.129   5.763   9.152 -0.3078 -0.1014 -0.9668
  166SOPE  H14S18692   5.241   5.896   9.203 -0.7229  2.1437 -2.4556
  166SOPE  C21518693   5.038   5.953   9.200  0.3305  0.0983  0.3706
  166SOPE  H15R18694   5.079   6.015   9.118 -0.9896  1.3653  0.6455
  166SOPE  H15S18695   5.023   6.021   9.286  0.3441 -0.4727  0.8229
  166SOPE  C21618696   4.908   5.893   9.146 -0.4674 -0.0099 -0.3055
  166SOPE  H16R18697   4.844   5.866   9.232 -3.0465 -0.6199 -2.3750
  166SOPE  H16S18698   4.927   5.804   9.082  1.9285  0.7461 -0.7198
  166SOPE  C21718699   4.827   5.993   9.058 -0.7381  0.0426  0.6816
  166SOPE  H17R18700   4.869   5.998   8.956  2.4598 -1.0297  1.8742
  166SOPE  H17S18701   4.832   6.092   9.110  2.0251 -0.6188  1.7829
  166SOPE  C21818702   4.681   5.950   9.034  0.1347 -0.2926 -0.2495
  166SOPE  H18R18703   4.615   6.029   8.991 -0.5281 -0.3121  0.7164
  166SOPE  H18S18704   4.648   5.925   9.138 -0.7814  1.5701 -0.0678
  166SOPE  H18T18705   4.685   5.859   8.971 -1.7487 -0.5577 -0.0393
  166SOPE   C3318706   5.014   5.272  10.222  0.1834  0.0886  0.1327
  166SOPE   H3X18707   5.122   5.266  10.197 -0.1113  1.3888 -1.4709
  166SOPE   H3Y18708   4.999   5.369  10.273  2.6533  0.8906 -0.6065
  166SOPE   C3418709   4.936   5.281  10.097 -0.2032  0.8955 -0.5001
  166SOPE   H4X18710   4.832   5.300  10.132  0.1911  0.7004  0.8094
  166SOPE   H4Y18711   4.945   5.185  10.041 -1.6221  0.5044 -0.0826
  166SOPE   C3518712   4.983   5.387   9.997  0.1071  0.2738 -0.6482
  166SOPE   H5X18713   5.094   5.395   9.988  0.2609 -0.5055  0.4568
  166SOPE   H5Y18714   4.948   5.486  10.036  0.1777  1.0026 -2.4050
  166SOPE   C3618715   4.908   5.365   9.863  0.0431 -0.4430  0.0462
  166SOPE   H6X18716   4.808   5.317   9.870 -1.7532  2.6850 -2.7617
  166SOPE   H6Y18717   4.978   5.309   9.798  1.4237 -0.7580  1.7499
  166SOPE   C3718718   4.885   5.492   9.780 -0.0122 -0.0311  0.2777
  166SOPE   H7X18719   4.982   5.542   9.757  0.0905 -0.7830 -0.9492
  166SOPE   H7Y18720   4.819   5.558   9.841 -0.0707 -1.6177  1.9906
  166SOPE   C3818721   4.827   5.477   9.633  0.7581  0.5681  0.0567
  166SOPE   H8X18722   4.760   5.388   9.625 -1.4079  1.9876  1.7268
  166SOPE   H8Y18723   4.906   5.455   9.559  1.0271 -2.0452  1.0717
  166SOPE   C3918724   4.737   5.589   9.581 -0.2937 -0.7986 -0.1866
  166SOPE   H9X18725   4.799   5.677   9.553 -1.2933 -0.7130 -2.2193
  166SOPE   H9Y18726   4.679   5.615   9.672 -0.4950 -1.4173 -0.1397
  166SOPE  C31018727   4.647   5.566   9.457 -0.5843 -0.3957  0.0076
  166SOPE  H10X18728   4.627   5.457   9.446 -3.4580  0.0700  0.1616
  166SOPE  H10Y18729   4.708   5.599   9.371 -2.7528  0.2702 -1.3236
  166SOPE  C31118730   4.513   5.642   9.457  0.4577  0.0560 -0.0128
  166SOPE  H11X18731   4.534   5.749   9.476  0.3795 -0.1306  1.1919
  166SOPE  H11Y18732   4.448   5.594   9.534  1.7322  1.1001  1.7541
  166SOPE  C31218733   4.443   5.646   9.320  0.3102 -0.2889  0.4982
  166SOPE  H12X18734   4.437   5.542   9.282  1.4460  0.0670 -0.6980
  166SOPE  H12Y18735   4.503   5.701   9.244 -0.0766 -0.3998  0.1117
  166SOPE  C31318736   4.295   5.698   9.335 -0.3151 -0.4680  0.5648
  166SOPE  H13X18737   4.295   5.805   9.368 -0.5874 -0.4345  0.4554
  166SOPE  H13Y18738   4.244   5.645   9.418 -2.5286 -0.8226 -0.9785
  166SOPE  C31418739   4.204   5.677   9.208 -0.8259 -0.0952  0.1042
  166SOPE  H14X18740   4.203   5.571   9.176 -1.1782 -0.5107  1.4733
  166SOPE  H14Y18741   4.266   5.728   9.132 -1.4888  0.1208 -0.3011
  166SOPE  C31518742   4.055   5.721   9.230 -1.2322  0.9225  0.1058
  166SOPE  H15X18743   4.037   5.828   9.254 -0.1831  0.4788  3.0933
  166SOPE  H15Y18744   4.019   5.662   9.317 -1.2342 -0.1910 -0.6265
  166SOPE  C31618745   3.966   5.683   9.113 -0.1950  0.0073  0.5224
  166SOPE  H16X18746   3.868   5.734   9.128 -1.1997 -2.5766  3.2301
  166SOPE  H16Y18747   3.937   5.577   9.131  1.2380 -0.8627 -2.0217
  166SOPE  C31718748   4.025   5.708   8.974 -1.3834 -0.4099  0.4025
  166SOPE  H17X18749   4.106   5.635   8.954 -1.1329 -0.3680  1.2442
  166SOPE  H17Y18750   4.066   5.811   8.978  0.0129 -1.0210  4.2554
  166SOPE  C31818751   3.927   5.710   8.853  0.1948  1.0308 -0.3872
  166SOPE  H18X18752   3.963   5.781   8.776  1.7614 -0.9236 -1.5014
  166SOPE  H18Y18753   3.822   5.731   8.884  0.6928  0.9128  1.4571
  166SOPE  H18Z18754   3.911   5.607   8.815 -1.2982  0.1458  2.4445
  167SOPE     N18755   6.370   4.090   5.898  0.6019 -0.0177  0.0507
  167SOPE   HN118756   6.326   4.059   5.809  1.1680  0.0051 -0.2378
  167SOPE   HN218757   6.362   4.194   5.901  0.2954 -0.0595  0.6862
  167SOPE   HN318758   6.470   4.061   5.909  0.8687  0.9244  0.1848
  167SOPE   C1218759   6.288   4.037   6.006 -0.8831 -0.9107 -0.5651
  167SOPE  H12A18760   6.296   3.926   5.996  2.1085 -0.5096 -3.5114
  167SOPE  H12B18761   6.184   4.070   5.989 -1.0831 -0.7476  0.8651
  167SOPE   C1118762   6.332   4.081   6.147 -0.1605  0.0890 -0.3815
  167SOPE  H11A18763   6.264   4.047   6.228  0.7450  0.6921  0.6469
  167SOPE  H11B18764   6.320   4.191   6.137  1.0041  0.3216  0.6834
  167SOPE     P18765   6.561   4.136   6.273 -0.8656 -0.3909 -0.0685
  167SOPE   O1318766   6.566   4.279   6.227 -0.0372  0.4767  0.1375
  167SOPE   O1418767   6.690   4.062   6.287  0.4842 -0.3820 -0.6808
  167SOPE   O1218768   6.475   4.057   6.170 -0.1426  1.0346 -0.3702
  167SOPE   O1118769   6.478   4.110   6.406 -0.2173  0.2754 -0.1462
  167SOPE    C118770   6.475   3.968   6.446 -0.2442  0.4183  0.0733
  167SOPE    HA18771   6.562   3.907   6.412 -1.0647 -0.0001 -1.2941
  167SOPE    HB18772   6.382   3.921   6.407 -0.2288  0.1475  0.3652
  167SOPE    C218773   6.467   3.956   6.598 -0.2798 -0.4039  0.2941
  167SOPE    HS18774   6.481   3.850   6.628 -0.2030 -0.8117 -1.1362
  167SOPE   O2118775   6.350   4.021   6.653  0.2774  0.0380 -0.2123
  167SOPE   C2118776   6.271   3.953   6.734 -0.0765  0.1594  0.0037
  167SOPE   O2218777   6.289   3.836   6.765 -0.0712 -0.1263 -0.1682
  167SOPE   C2218778   6.155   4.041   6.767  0.6907  0.0637 -0.4822
  167SOPE   H2R18779   6.092   4.048   6.675  0.0781  0.6819 -0.0221
  167SOPE   H2S18780   6.186   4.146   6.786 -1.6722  0.9195 -1.1047
  167SOPE    C318781   6.584   4.034   6.653  0.3106 -0.1680 -0.5715
  167SOPE    HX18782   6.566   4.142   6.633  0.7882 -0.3960 -2.2940
  167SOPE    HY18783   6.674   3.990   6.605  0.9772  2.0573 -1.3909
  167SOPE   O3118784   6.602   4.008   6.795  0.4816 -0.0874 -0.2162
  167SOPE   C3118785   6.531   4.076   6.884  0.4657  0.1432  0.3386
  167SOPE   O3218786   6.452   4.165   6.859  0.0413  0.0660  0.0121
  167SOPE   C3218787   6.582   4.036   7.018 -0.1042  0.1393 -0.6068
  167SOPE   H2X18788   6.691   4.013   7.012 -0.2616 -0.6362 -0.4734
  167SOPE   H2Y18789   6.526   3.943   7.039 -1.3064  0.9035 -0.4083
  167SOPE   C2318790   6.078   3.990   6.893 -0.2008  0.3349 -0.0813
  167SOPE   H3R18791   6.062   3.881   6.907 -1.7576  0.6572  0.8053
  167SOPE   H3S18792   5.977   4.033   6.877 -0.8628 -1.8833 -2.2925
  167SOPE   C2418793   6.132   4.047   7.021  1.1881  0.1048 -0.9700
  167SOPE   H4R18794   6.212   3.982   7.063  0.4835  0.7542  1.5053
  167SOPE   H4S18795   6.161   4.150   6.996 -0.3184  0.4791 -1.2555
  167SOPE   C2518796   6.024   4.067   7.123  1.0673  0.6404  0.3860
  167SOPE   H5R18797   5.964   4.156   7.094 -0.9770 -0.5804  0.7990
  167SOPE   H5S18798   5.966   3.972   7.125  2.0279 -0.0172 -1.8566
  167SOPE   C2618799   6.078   4.074   7.260  0.0221 -0.0659  0.6996
  167SOPE   H6R18800   6.089   3.974   7.305  2.3449  0.4201  1.2975
  167SOPE   H6S18801   6.185   4.106   7.264 -0.0058  0.0970  0.2200
  167SOPE   C2718802   5.986   4.161   7.348 -0.4938  0.0159 -0.5834
  167SOPE   H7R18803   5.996   4.262   7.304 -1.3899 -0.1786 -1.2651
  167SOPE   H7S18804   5.880   4.128   7.335 -1.4446  1.6867  2.5295
  167SOPE   C2818805   6.006   4.166   7.502 -0.7452  0.1560 -0.3915
  167SOPE   H8R18806   6.096   4.231   7.516 -2.4309  2.3846  0.4885
  167SOPE   H8S18807   5.923   4.220   7.552 -1.6518 -0.1739 -1.5284
  167SOPE   C2918808   6.023   4.028   7.558  0.2637  0.1294 -0.4759
  167SOPE   H9118809   5.963   3.956   7.500 -1.5153  0.6617  0.6623
  167SOPE  C21018810   6.083   3.991   7.669  0.1657 -0.2957  0.3657
  167SOPE  H10118811   6.103   3.885   7.691 -2.5489 -0.1615  3.8834
  167SOPE  C21118812   6.160   4.083   7.756  0.0046 -0.2188  0.1097
  167SOPE  H11R18813   6.197   4.177   7.710  0.3902 -1.0101 -1.2088
  167SOPE  H11S18814   6.252   4.031   7.790  1.3211 -0.6182 -3.7738
  167SOPE  C21218815   6.077   4.119   7.876 -0.0726  0.1860 -0.0615
  167SOPE  H12R18816   6.045   4.024   7.924  3.8579 -2.1120 -1.8324
  167SOPE  H12S18817   5.984   4.167   7.837 -0.2427  0.3902  0.5928
  167SOPE  C21318818   6.146   4.217   7.979 -0.1291  0.4198 -0.0754
  167SOPE  H13R18819   6.067   4.251   8.049 -0.7287  2.0930 -1.5303
  167SOPE  H13S18820   6.174   4.307   7.920  0.2898 -1.2603 -2.4999
  167SOPE  C21418821   6.269   4.156   8.053  0.3113  0.5552  0.3681
  167SOPE  H14R18822   6.319   4.243   8.103  0.1527 -0.1126  1.7236
  167SOPE  H14S18823   6.346   4.114   7.985  0.5783  1.0064  0.3857
  167SOPE  C21518824   6.244   4.055   8.166 -0.5073 -0.1236 -0.4819
  167SOPE  H15R18825   6.202   3.967   8.111  0.2816 -0.3772 -0.6935
  167SOPE  H15S18826   6.176   4.088   8.247 -0.1991  1.1052 -0.7277
  167SOPE  C21618827   6.365   4.012   8.245  0.6423 -0.0840 -0.5574
  167SOPE  H16R18828   6.408   4.091   8.310  2.1072 -2.2215  1.1610
  167SOPE  H16S18829   6.446   3.993   8.172  0.7325  1.4624 -0.8747
  167SOPE  C21718830   6.348   3.884   8.322  0.5443  0.8495 -0.2311
  167SOPE  H17R18831   6.312   3.802   8.255 -1.0740  0.1698  1.4429
  167SOPE  H17S18832   6.270   3.889   8.400  0.3349 -0.6647 -0.3195
  167SOPE  C21818833   6.477   3.840   8.384 -0.2796  0.4500  0.1711
  167SOPE  H18R18834   6.547   3.821   8.300  0.4949  2.8546  0.2171
  167SOPE  H18S18835   6.468   3.744   8.439  2.0007  0.8735  1.3490
  167SOPE  H18T18836   6.526   3.910   8.456  1.9724  0.7941 -1.6303
  167SOPE   C3318837   6.548   4.131   7.139  0.1236  0.1463  0.4211
  167SOPE   H3X18838   6.462   4.194   7.109  0.8851 -0.2727 -2.7578
  167SOPE   H3Y18839   6.617   4.216   7.156  0.5783 -0.0646 -0.3753
  167SOPE   C3418840   6.517   4.036   7.257  0.1481 -0.4277  0.5015
  167SOPE   H4X18841   6.595   3.958   7.242  0.0306 -0.2580 -1.0677
  167SOPE   H4Y18842   6.417   3.991   7.240 -0.7935  1.3631  1.2423
  167SOPE   C3518843   6.534   4.105   7.391 -0.4337 -0.1830  0.0813
  167SOPE   H5X18844   6.637   4.135   7.417 -0.6697  1.0785 -0.3677
  167SOPE   H5Y18845   6.488   4.030   7.458  0.9172 -1.7647 -0.7375
  167SOPE   C3618846   6.447   4.231   7.414 -0.4613  0.2644  0.7473
  167SOPE   H6X18847   6.347   4.198   7.378 -0.7445  0.4396  1.3648
  167SOPE   H6Y18848   6.480   4.312   7.347 -1.2521  0.3786  0.4987
  167SOPE   C3718849   6.433   4.287   7.556 -0.5251  0.7297 -0.0961
  167SOPE   H7X18850   6.400   4.215   7.634  0.4709 -0.3817 -0.6881
  167SOPE   H7Y18851   6.352   4.363   7.547 -0.9761  0.1160 -1.3889
  167SOPE   C3818852   6.553   4.361   7.604  0.2609  0.1971 -0.0075
  167SOPE   H8X18853   6.561   4.446   7.534 -2.2721  0.6043  0.1336
  167SOPE   H8Y18854   6.636   4.287   7.602 -0.8539 -1.0592 -1.6703
  167SOPE   C3918855   6.551   4.412   7.752 -0.0370 -0.6334  0.1442
  167SOPE   H9X18856   6.459   4.471   7.770 -0.5274 -1.0988 -0.8501
  167SOPE   H9Y18857   6.643   4.473   7.767 -0.7537 -0.0685  2.4018
  167SOPE  C31018858   6.553   4.289   7.849 -0.8654  0.0625 -0.1199
  167SOPE  H10X18859   6.639   4.224   7.821  0.2970  0.6665  1.9369
  167SOPE  H10Y18860   6.462   4.231   7.820  0.3069 -1.6946 -0.3816
  167SOPE  C31118861   6.563   4.322   7.996  0.6849  0.3325  0.2299
  167SOPE  H11X18862   6.538   4.237   8.063 -1.1192  0.9227  0.3296
  167SOPE  H11Y18863   6.495   4.405   8.022  0.7850 -0.4148  3.0529
  167SOPE  C31218864   6.710   4.353   8.043  0.0554 -0.1445 -0.2301
  167SOPE  H12X18865   6.719   4.457   8.006 -1.1089 -0.6332 -2.0012
  167SOPE  H12Y18866   6.781   4.287   7.988  1.6352  1.8583 -0.6370
  167SOPE  C31318867   6.725   4.329   8.196  0.9084 -0.3311 -0.3041
  167SOPE  H13X18868   6.694   4.231   8.238  1.9901 -0.9715 -0.9936
  167SOPE  H13Y18869   6.665   4.414   8.237 -1.7389 -1.7858 -1.0472
  167SOPE  C31418870   6.871   4.350   8.246 -0.2818  0.4527 -0.7513
  167SOPE  H14X18871   6.899   4.446   8.198 -0.1826  1.1414  0.6711
  167SOPE  H14Y18872   6.937   4.267   8.212 -0.8798 -0.9834  1.5206
  167SOPE  C31518873   6.884   4.374   8.400  0.3033  0.6328 -0.7892
  167SOPE  H15X18874   6.788   4.403   8.446 -0.1407  0.3719 -1.5451
  167SOPE  H15Y18875   6.953   4.458   8.422 -0.2864  0.4881  1.7179
  167SOPE  C31618876   6.938   4.250   8.468  0.8252 -0.3103 -0.3151
  167SOPE  H16X18877   7.007   4.281   8.549  0.6135 -0.3019 -0.1387
  167SOPE  H16Y18878   6.992   4.179   8.401  1.2722 -0.2042 -0.0697
  167SOPE  C31718879   6.828   4.161   8.528 -0.4708 -0.1469 -0.5849
  167SOPE  H17X18880   6.749   4.155   8.450 -0.5634 -0.0228 -0.4999
  167SOPE  H17Y18881   6.780   4.216   8.612  1.2970  0.1414  0.2412
  167SOPE  C31818882   6.889   4.016   8.567 -0.2533 -0.9008 -0.2870
  167SOPE  H18X18883   6.962   4.025   8.650 -0.8048 -0.7732  0.1880
  167SOPE  H18Y18884   6.940   3.976   8.477  0.3661 -0.0566 -0.3089
  167SOPE  H18Z18885   6.805   3.945   8.583  0.0815 -2.3141 -4.1870
  168SOPE     N18886   6.783   1.067   6.376  0.3975 -0.2996 -0.2263
  168SOPE   HN118887   6.734   1.027   6.459 -0.0722  2.0328  0.6665
  168SOPE   HN218888   6.869   1.013   6.353  1.2325 -0.5426  3.0864
  168SOPE   HN318889   6.814   1.164   6.394  0.2472 -0.0319 -1.4030
  168SOPE   C1218890   6.697   1.059   6.248 -0.8803  0.1021 -1.1667
  168SOPE  H12A18891   6.640   0.964   6.256 -0.9339  0.4134  4.4789
  168SOPE  H12B18892   6.760   1.058   6.157  0.0350 -0.9114 -0.5404
  168SOPE   C1118893   6.595   1.176   6.245  0.0532  0.0161 -0.0503
  168SOPE  H11A18894   6.518   1.172   6.165  0.3079  1.1123 -0.3548
  168SOPE  H11B18895   6.657   1.264   6.217  0.2634  0.0641  0.5540
  168SOPE     P18896   6.391   1.167   6.407 -0.5220 -0.4404 -0.2529
  168SOPE   O1318897   6.362   1.026   6.365  0.1083 -0.7070 -0.3395
  168SOPE   O1418898   6.300   1.268   6.346 -0.5281  0.1571  0.0538
  168SOPE   O1218899   6.539   1.207   6.379  0.2379  0.1917  0.0005
  168SOPE   O1118900   6.376   1.167   6.563 -0.2404 -0.3039  0.3227
  168SOPE    C118901   6.490   1.192   6.645 -0.2103  0.0018 -0.5763
  168SOPE    HA18902   6.548   1.274   6.599 -0.2797  0.3417 -0.0611
  168SOPE    HB18903   6.556   1.102   6.650  0.5206  0.6442  1.6632
  168SOPE    C218904   6.444   1.234   6.786 -0.2121  0.6400 -0.6923
  168SOPE    HS18905   6.532   1.280   6.836  0.4938 -0.3539 -0.9904
  168SOPE   O2118906   6.386   1.124   6.857 -0.0253 -0.0068 -0.3643
  168SOPE   C2118907   6.469   1.026   6.895 -0.0222  0.9383  0.6783
  168SOPE   O2218908   6.590   1.027   6.872 -0.3571 -0.6104 -0.4428
  168SOPE   C2218909   6.402   0.912   6.973  0.7830  0.4814  0.5794
  168SOPE   H2R18910   6.460   0.817   6.969 -2.2614 -1.5286  2.0841
  168SOPE   H2S18911   6.308   0.889   6.919  1.1062  0.9357 -0.1891
  168SOPE    C318912   6.344   1.362   6.787 -0.3714  0.1154  0.4172
  168SOPE    HX18913   6.258   1.341   6.720  0.4161 -2.9214  0.2582
  168SOPE    HY18914   6.403   1.450   6.754 -1.4099  0.4191 -0.6674
  168SOPE   O3118915   6.304   1.390   6.925  0.4331 -0.2754 -0.3632
  168SOPE   C3118916   6.202   1.325   6.974  0.3963  0.1861  0.2205
  168SOPE   O3218917   6.134   1.240   6.917 -0.3090  0.2592  0.2964
  168SOPE   C3218918   6.197   1.361   7.118  0.4142  0.4308 -0.5554
  168SOPE   H2X18919   6.139   1.455   7.129  0.7602  0.5869 -0.0387
  168SOPE   H2Y18920   6.303   1.366   7.153  0.4996 -2.0749 -0.3974
  168SOPE   C2318921   6.368   0.947   7.115  0.1609 -0.0340 -0.5948
  168SOPE   H3R18922   6.286   0.874   7.134 -1.1145  1.4396 -0.3379
  168SOPE   H3S18923   6.333   1.050   7.135  0.4112 -0.3562  1.5504
  168SOPE   C2418924   6.486   0.913   7.210 -0.7520  0.5253  0.8125
  168SOPE   H4R18925   6.484   0.805   7.234 -1.7115  0.6586  1.3535
  168SOPE   H4S18926   6.584   0.939   7.166 -1.3878 -0.4469 -1.2354
  168SOPE   C2518927   6.456   0.985   7.340  0.1788 -0.1238  0.2884
  168SOPE   H5R18928   6.477   1.091   7.314 -0.4020  0.1636  0.9505
  168SOPE   H5S18929   6.347   0.966   7.348  0.4007 -0.4036  2.8729
  168SOPE   C2618930   6.527   0.942   7.473 -0.1477 -0.5372 -0.4683
  168SOPE   H6R18931   6.502   0.835   7.493 -2.8129 -0.2792 -2.1725
  168SOPE   H6S18932   6.637   0.944   7.454 -0.0251 -1.7478  0.0323
  168SOPE   C2718933   6.481   1.030   7.588 -0.5530 -0.4700 -0.0283
  168SOPE   H7R18934   6.517   1.133   7.569  0.8718 -0.7606  1.0291
  168SOPE   H7S18935   6.371   1.019   7.604 -0.9328  0.4531 -1.8864
  168SOPE   C2818936   6.550   0.995   7.727 -0.3223  0.0583  0.3882
  168SOPE   H8R18937   6.661   1.001   7.717 -0.3520  0.5038  0.3179
  168SOPE   H8S18938   6.529   1.070   7.807  1.3233  0.8356  0.1139
  168SOPE   C2918939   6.510   0.857   7.767  0.1937  0.3742  0.0983
  168SOPE   H9118940   6.527   0.773   7.698  0.7711  1.1890 -0.7723
  168SOPE  C21018941   6.448   0.834   7.884 -0.1925 -0.1517 -0.2487
  168SOPE  H10118942   6.438   0.733   7.927  0.7263 -0.0894  0.1112
  168SOPE  C21118943   6.404   0.932   7.995 -0.4622  0.4232 -0.6801
  168SOPE  H11R18944   6.313   0.888   8.041  1.2224 -0.9565  1.4802
  168SOPE  H11S18945   6.389   1.035   7.958  2.3609  1.1826  0.1856
  168SOPE  C21218946   6.505   0.934   8.111  0.5782  1.3135 -0.1634
  168SOPE  H12R18947   6.600   0.987   8.087  1.3248  0.1878  0.2431
  168SOPE  H12S18948   6.521   0.830   8.146 -0.8318  2.0141  2.8169
  168SOPE  C21318949   6.442   1.003   8.236  0.1515  0.1524 -0.2207
  168SOPE  H13R18950   6.513   0.979   8.319  0.5361 -0.4138 -0.7076
  168SOPE  H13S18951   6.339   0.966   8.252  0.3813  0.9898  3.5929
  168SOPE  C21418952   6.443   1.153   8.225 -0.4604  0.0343  0.3317
  168SOPE  H14R18953   6.391   1.182   8.131  1.1351  0.4198 -0.4525
  168SOPE  H14S18954   6.549   1.185   8.223 -0.7636  1.1689  1.9758
  168SOPE  C21518955   6.373   1.216   8.342 -0.6972  0.1480 -0.3745
  168SOPE  H15R18956   6.424   1.188   8.437  0.0038  0.3585 -0.6846
  168SOPE  H15S18957   6.271   1.174   8.348  0.2501 -1.9550  1.8518
  168SOPE  C21618958   6.371   1.371   8.323  0.4815 -0.2583  0.0954
  168SOPE  H16R18959   6.272   1.394   8.279  0.2870 -0.6270  0.3437
  168SOPE  H16S18960   6.458   1.406   8.262 -0.2897  1.8615  0.1714
  168SOPE  C21718961   6.389   1.434   8.465  0.5515  0.6224  0.1811
  168SOPE  H17R18962   6.416   1.541   8.452  1.1149  0.6418  1.4020
  168SOPE  H17S18963   6.466   1.385   8.528  0.0065  0.0545  0.4032
  168SOPE  C21818964   6.261   1.435   8.539 -0.5633  0.5419 -0.3271
  168SOPE  H18R18965   6.194   1.512   8.495 -1.7234  1.1445  2.3584
  168SOPE  H18S18966   6.265   1.463   8.647 -0.1131 -0.2016 -0.1484
  168SOPE  H18T18967   6.207   1.338   8.537 -1.5075  0.8988  3.1190
  168SOPE   C3318968   6.116   1.256   7.197 -0.5824  0.0785  0.4172
  168SOPE   H3X18969   6.136   1.149   7.173  1.5982  0.1881  1.6060
  168SOPE   H3Y18970   6.019   1.270   7.144 -0.2969 -0.7486 -0.3471
  168SOPE   C3418971   6.085   1.284   7.342 -0.1686  0.0902  0.1446
  168SOPE   H4X18972   6.017   1.204   7.378 -0.5787 -0.2367 -1.3381
  168SOPE   H4Y18973   6.043   1.385   7.363 -1.9117 -0.5473 -0.2048
  168SOPE   C3518974   6.212   1.273   7.433  0.6977  0.6473  0.2552
  168SOPE   H5X18975   6.304   1.311   7.383 -1.8076  4.2315 -1.8631
  168SOPE   H5Y18976   6.231   1.164   7.448  0.7605  0.5502 -0.5204
  168SOPE   C3618977   6.200   1.345   7.570 -0.0363 -0.2604 -0.1272
  168SOPE   H6X18978   6.166   1.449   7.549  0.4771  0.2129  1.2968
  168SOPE   H6Y18979   6.303   1.358   7.610 -0.5106  1.7804  0.4837
  168SOPE   C3718980   6.111   1.273   7.675  0.2529  0.0894 -0.6365
  168SOPE   H7X18981   6.163   1.183   7.715  0.5625  0.6401  0.2226
  168SOPE   H7Y18982   6.018   1.233   7.630  1.0054 -0.2429 -1.9213
  168SOPE   C3818983   6.072   1.360   7.801  0.6885 -0.0956  0.2660
  168SOPE   H8X18984   5.994   1.430   7.765 -0.4452 -1.0984  0.7399
  168SOPE   H8Y18985   6.161   1.397   7.856  0.8788  0.4990 -0.4318
  168SOPE   C3918986   5.994   1.276   7.905  0.2015  0.2239  1.1297
  168SOPE   H9X18987   6.048   1.180   7.924 -0.0916 -0.3618 -0.8713
  168SOPE   H9Y18988   5.894   1.253   7.863  0.7674 -0.0744 -0.0730
  168SOPE  C31018989   5.974   1.337   8.041  0.1514  0.8752  0.6201
  168SOPE  H10X18990   5.913   1.430   8.040  0.0406  0.7893 -0.1997
  168SOPE  H10Y18991   6.069   1.378   8.082  0.7989 -0.1482  0.1339
  168SOPE  C31118992   5.910   1.246   8.141 -0.2709  0.1517  0.9214
  168SOPE  H11X18993   5.985   1.175   8.182  2.7740  1.1075 -2.6952
  168SOPE  H11Y18994   5.819   1.194   8.105 -0.0101 -1.4879  2.5294
  168SOPE  C31218995   5.868   1.333   8.262  0.1475 -0.3667 -0.2237
  168SOPE  H12X18996   5.762   1.366   8.248 -0.0024 -0.9435 -0.4551
  168SOPE  H12Y18997   5.942   1.416   8.265 -1.6332  1.3463 -1.8886
  168SOPE  C31318998   5.882   1.247   8.393  0.4950  0.4178 -0.0361
  168SOPE  H13X18999   5.981   1.201   8.413  0.0635 -1.5407 -2.2274
  168SOPE  H13Y19000   5.803   1.171   8.375  1.1416 -0.4874  0.9129
  168SOPE  C31419001   5.835   1.323   8.518  0.6759  0.1974  0.2388
  168SOPE  H14X19002   5.749   1.383   8.482 -1.8841 -2.4257  1.7374
  168SOPE  H14Y19003   5.916   1.390   8.552  2.3802 -2.8615  2.4326
  168SOPE  C31519004   5.800   1.238   8.636  0.1260  0.5186 -0.4564
  168SOPE  H15X19005   5.890   1.192   8.682 -1.1328 -0.1649  1.3719
  168SOPE  H15Y19006   5.741   1.149   8.603  0.2334  0.3117 -0.1010
  168SOPE  C31619007   5.703   1.301   8.734  0.0671 -0.3735  0.3274
  168SOPE  H16X19008   5.756   1.370   8.803 -0.0468 -0.5531  0.5972
  168SOPE  H16Y19009   5.657   1.228   8.804 -0.4756  0.0689  0.4406
  168SOPE  C31719010   5.579   1.364   8.671 -0.0561  0.3325  0.6221
  168SOPE  H17X19011   5.562   1.314   8.573  1.2233  0.7844  0.1562
  168SOPE  H17Y19012   5.619   1.464   8.643  0.3108 -0.7100 -2.8480
  168SOPE  C31819013   5.450   1.367   8.748 -0.3461 -0.2601  0.0223
  168SOPE  H18X19014   5.365   1.400   8.685 -1.5422  0.3461  1.9212
  168SOPE  H18Y19015   5.436   1.425   8.841 -1.6083 -1.6445  0.7314
  168SOPE  H18Z19016   5.435   1.259   8.773 -2.0227 -0.0512 -0.0318
  169SOPE     N19017   1.713   2.784   6.112 -0.6546  0.2356 -0.7171
  169SOPE   HN119018   1.730   2.879   6.150  0.6561 -0.7546  1.2409
  169SOPE   HN219019   1.789   2.759   6.045  0.1804  0.8972 -0.0151
  169SOPE   HN319020   1.620   2.792   6.064 -1.0320  0.7044  0.0904
  169SOPE   C1219021   1.710   2.687   6.218  0.1991 -0.0402 -0.7691
  169SOPE  H12A19022   1.773   2.714   6.306 -0.4967 -2.6644  0.5645
  169SOPE  H12B19023   1.744   2.590   6.176  1.2270  0.4087 -0.9991
  169SOPE   C1119024   1.563   2.683   6.278  0.2922 -0.2938  0.6455
  169SOPE  H11A19025   1.558   2.617   6.367  0.7981  1.2625  1.8533
  169SOPE  H11B19026   1.508   2.638   6.194  2.2041  0.2245 -0.9290
  169SOPE     P19027   1.359   2.828   6.353 -0.0613 -0.0730 -0.1257
  169SOPE   O1319028   1.281   2.744   6.257 -0.1462 -0.2131  0.5832
  169SOPE   O1419029   1.333   2.971   6.356  0.9689 -0.6957  0.2188
  169SOPE   O1219030   1.515   2.811   6.317  0.3272  0.5130  0.3184
  169SOPE   O1119031   1.335   2.766   6.499 -0.6254 -0.5877 -0.0190
  169SOPE    C119032   1.447   2.734   6.588 -0.5335 -0.4573  0.2292
  169SOPE    HA19033   1.517   2.820   6.580 -2.4082  1.1403  0.4909
  169SOPE    HB19034   1.507   2.645   6.562 -0.2883 -0.6142  1.3388
  169SOPE    C219035   1.402   2.719   6.735 -0.6759  0.7248 -0.0336
  169SOPE    HS19036   1.495   2.757   6.783  0.5324 -0.4787 -1.3760
  169SOPE   O2119037   1.363   2.578   6.753 -0.0764  0.0019 -0.2169
  169SOPE   C2119038   1.390   2.546   6.882 -0.1193 -0.2135  0.2003
  169SOPE   O2219039   1.451   2.608   6.965  0.1435  0.3072 -0.3860
  169SOPE   C2219040   1.338   2.405   6.923 -0.0458 -0.2817 -0.1959
  169SOPE   H2R19041   1.435   2.351   6.926 -0.0429 -0.1990  2.7786
  169SOPE   H2S19042   1.275   2.370   6.838  0.5332 -1.2068 -0.2569
  169SOPE    C319043   1.283   2.812   6.764 -0.7680  0.0312  0.6080
  169SOPE    HX19044   1.190   2.777   6.714 -1.0753 -0.4854  1.5353
  169SOPE    HY19045   1.305   2.914   6.726 -0.7141 -0.2637 -0.1609
  169SOPE   O3119046   1.258   2.810   6.902  0.0280 -0.3722  0.0691
  169SOPE   C3119047   1.240   2.915   6.972  0.5180  0.4424 -0.0395
  169SOPE   O3219048   1.245   3.026   6.930  0.2974 -0.3373 -0.1403
  169SOPE   C3219049   1.204   2.875   7.111 -0.3551  0.5365 -0.5074
  169SOPE   H2X19050   1.292   2.826   7.158 -0.0507 -1.7160 -3.2599
  169SOPE   H2Y19051   1.134   2.789   7.101 -0.1760  0.4901 -1.4093
  169SOPE   C2319052   1.279   2.412   7.065  0.3279 -0.0006  0.8523
  169SOPE   H3R19053   1.355   2.443   7.140 -1.0475  1.9245  1.5093
  169SOPE   H3S19054   1.249   2.311   7.101  0.4005 -0.3312 -0.0061
  169SOPE   C2419055   1.149   2.487   7.061 -0.3720 -0.0659  0.2928
  169SOPE   H4R19056   1.157   2.597   7.049 -2.1480 -0.1128 -1.5444
  169SOPE   H4S19057   1.082   2.448   6.982 -0.2876  0.0844  0.1478
  169SOPE   C2519058   1.064   2.464   7.192  0.4026 -0.3051  0.7336
  169SOPE   H5R19059   0.957   2.475   7.162  0.9595  2.3243 -0.4093
  169SOPE   H5S19060   1.084   2.360   7.226  2.2075 -0.2109  0.0348
  169SOPE   C2619061   1.087   2.560   7.303  0.6658 -0.0172  0.0506
  169SOPE   H6R19062   1.193   2.593   7.308  1.1414 -1.4835 -0.2703
  169SOPE   H6S19063   1.023   2.649   7.282  0.1258 -0.4951 -0.3513
  169SOPE   C2719064   1.040   2.503   7.438  0.2695  0.0953 -0.3298
  169SOPE   H7R19065   0.929   2.514   7.437  0.2600  0.2528 -2.8524
  169SOPE   H7S19066   1.070   2.397   7.450 -0.3856  0.1052  1.5046
  169SOPE   C2819067   1.095   2.576   7.557  0.5512  0.7355 -0.3193
  169SOPE   H8R19068   1.206   2.573   7.565  0.6235  1.7474 -0.9228
  169SOPE   H8S19069   1.071   2.680   7.527  0.6166  1.1781  1.1276
  169SOPE   C2919070   1.030   2.537   7.692  0.4193 -0.2359 -0.1191
  169SOPE   H9119071   0.938   2.594   7.712  0.3564 -0.7042  0.9805
  169SOPE  C21019072   1.072   2.449   7.783  0.2062  0.7598 -0.0224
  169SOPE  H10119073   1.010   2.440   7.873 -0.2754  0.7877 -0.3527
  169SOPE  C21119074   1.201   2.369   7.768  0.0372  0.1332  0.2274
  169SOPE  H11R19075   1.263   2.405   7.683 -0.3819  2.6662  0.9481
  169SOPE  H11S19076   1.175   2.264   7.743  1.3233 -0.3000  0.6857
  169SOPE  C21219077   1.279   2.346   7.900 -0.5034 -0.1825  0.0446
  169SOPE  H12R19078   1.313   2.439   7.950  0.9509  0.3004 -1.7838
  169SOPE  H12S19079   1.381   2.308   7.876 -0.1448 -0.3826  1.8138
  169SOPE  C21319080   1.212   2.252   8.002 -0.3214  0.2815 -0.8152
  169SOPE  H13R19081   1.163   2.168   7.949  2.7584 -0.5705 -2.4507
  169SOPE  H13S19082   1.144   2.315   8.063  2.3065  3.0108 -0.5374
  169SOPE  C21419083   1.299   2.191   8.111  0.2177 -0.6388 -0.3996
  169SOPE  H14R19084   1.332   2.090   8.079 -2.1717 -1.5935  0.0269
  169SOPE  H14S19085   1.225   2.170   8.191  0.1619  1.0909  0.0349
  169SOPE  C21519086   1.425   2.266   8.167 -0.2384  0.6021 -0.4025
  169SOPE  H15R19087   1.401   2.374   8.154  3.0844  1.2430 -1.8486
  169SOPE  H15S19088   1.521   2.245   8.116  1.5344 -0.1817  3.0857
  169SOPE  C21619089   1.459   2.234   8.315 -0.6977  0.0829  0.2870
  169SOPE  H16R19090   1.461   2.126   8.344  0.8542  0.2141  0.7136
  169SOPE  H16S19091   1.388   2.285   8.384 -1.6050 -2.7519  1.5545
  169SOPE  C21719092   1.599   2.281   8.354 -0.6689 -0.4517 -0.5853
  169SOPE  H17R19093   1.596   2.380   8.302  1.6202 -0.9091 -1.6680
  169SOPE  H17S19094   1.677   2.227   8.296 -1.3295 -1.6685 -0.3564
  169SOPE  C21819095   1.635   2.307   8.505 -0.1303  0.5314  0.2965
  169SOPE  H18R19096   1.554   2.377   8.535  1.1725  1.8640  0.7623
  169SOPE  H18S19097   1.736   2.351   8.512  1.3014 -3.0857  4.1470
  169SOPE  H18T19098   1.636   2.206   8.551  0.8232 -0.0024 -0.8681
  169SOPE   C3319099   1.148   2.991   7.192  0.2205  0.0617 -0.4857
  169SOPE   H3X19100   1.057   3.030   7.142 -0.6244  0.7165  1.5141
  169SOPE   H3Y19101   1.221   3.074   7.189 -0.0005  0.2699 -0.1731
  169SOPE   C3419102   1.112   2.964   7.336  0.2041  0.5012 -0.3081
  169SOPE   H4X19103   1.203   2.938   7.396 -2.2035  0.2446  3.3979
  169SOPE   H4Y19104   1.044   2.878   7.355  0.9785 -0.0044  0.2447
  169SOPE   C3519105   1.050   3.093   7.390  0.6115 -0.6517 -0.1837
  169SOPE   H5X19106   0.966   3.124   7.324  3.3867  0.5587 -3.3131
  169SOPE   H5Y19107   1.131   3.169   7.390 -1.2024  1.4129 -2.6753
  169SOPE   C3619108   1.006   3.092   7.541 -1.1804 -0.0330 -0.1092
  169SOPE   H6X19109   0.924   3.017   7.539  0.1861 -1.6286  1.6683
  169SOPE   H6Y19110   0.973   3.193   7.573  0.0416 -0.0522  1.2543
  169SOPE   C3719111   1.104   3.040   7.639  0.2304  0.1830  0.5584
  169SOPE   H7X19112   1.203   3.091   7.639  0.4791 -0.2972  1.4442
  169SOPE   H7Y19113   1.126   2.935   7.609  0.5885  0.9258 -1.9453
  169SOPE   C3819114   1.044   3.058   7.778  0.1226 -0.0443  0.1021
  169SOPE   H8X19115   1.015   3.164   7.794 -0.1067 -0.0260 -0.4274
  169SOPE   H8Y19116   0.953   3.000   7.803 -1.6618  2.2259 -0.8806
  169SOPE   C3919117   1.155   3.043   7.880  0.1612 -0.0822  0.7647
  169SOPE   H9X19118   1.245   3.101   7.853  2.0513 -2.3808  1.9226
  169SOPE   H9Y19119   1.192   2.938   7.883  2.1740  0.5539 -0.9836
  169SOPE  C31019120   1.110   3.093   8.015  0.0379  0.0965  0.0099
  169SOPE  H10X19121   1.030   3.036   8.066 -1.1374  1.5585 -0.1658
  169SOPE  H10Y19122   1.079   3.200   8.009 -0.3790 -0.1197 -1.7415
  169SOPE  C31119123   1.233   3.099   8.112  0.2453 -0.4597  0.2682
  169SOPE  H11X19124   1.303   3.173   8.067 -1.2220  1.3822  0.9000
  169SOPE  H11Y19125   1.295   3.007   8.105  2.5623  1.0819 -0.0902
  169SOPE  C31219126   1.209   3.150   8.247  0.4473  0.2440  0.5250
  169SOPE  H12X19127   1.128   3.085   8.288 -0.0366  1.2187  1.1260
  169SOPE  H12Y19128   1.163   3.250   8.236 -0.6362 -0.3547 -0.4889
  169SOPE  C31319129   1.322   3.141   8.352 -0.7052 -0.3298 -0.0745
  169SOPE  H13X19130   1.405   3.197   8.304 -0.0231 -2.6816 -1.7706
  169SOPE  H13Y19131   1.359   3.037   8.368  1.2223  0.1318 -1.3361
  169SOPE  C31419132   1.290   3.203   8.491  0.5732 -0.0018  0.8343
  169SOPE  H14X19133   1.237   3.124   8.549  0.8476 -0.4144  0.5244
  169SOPE  H14Y19134   1.232   3.297   8.480 -0.2898 -0.6801 -0.5256
  169SOPE  C31519135   1.412   3.234   8.583  0.2028  0.2960 -0.5669
  169SOPE  H15X19136   1.487   3.295   8.528  1.2201  0.3602  0.8726
  169SOPE  H15Y19137   1.473   3.145   8.607 -0.8571  0.1508  1.7385
  169SOPE  C31619138   1.374   3.292   8.716 -0.1520 -0.6755 -0.1859
  169SOPE  H16X19139   1.307   3.222   8.770 -1.3049 -0.0380 -0.7645
  169SOPE  H16Y19140   1.319   3.389   8.721  0.3973 -0.3763  0.0629
  169SOPE  C31719141   1.503   3.305   8.796  0.0082 -0.3188 -0.3908
  169SOPE  H17X19142   1.588   3.332   8.730  0.3559  3.2900  1.4199
  169SOPE  H17Y19143   1.534   3.205   8.833 -0.1985 -0.4982 -0.6990
  169SOPE  C31819144   1.487   3.405   8.917 -0.3322  0.2507  0.2192
  169SOPE  H18X19145   1.423   3.489   8.884  0.1593 -0.1093 -1.7079
  169SOPE  H18Y19146   1.583   3.436   8.963 -0.9354 -0.2674  1.8499
  169SOPE  H18Z19147   1.422   3.361   8.995  0.5206  0.7382  1.2250
  170SOPE     N19148   2.685   1.944   6.441  0.4345 -0.6147  0.3160
  170SOPE   HN119149   2.651   1.994   6.357  2.9511 -1.6555 -1.3953
  170SOPE   HN219150   2.595   1.932   6.491  0.4883  0.9265  0.8141
  170SOPE   HN319151   2.743   2.011   6.497 -1.2441  1.8604 -0.8563
  170SOPE   C1219152   2.774   1.826   6.396  0.2167  0.0021  0.0353
  170SOPE  H12A19153   2.821   1.788   6.488  2.8851 -0.9360 -1.6529
  170SOPE  H12B19154   2.857   1.854   6.327  0.9073  1.2562  1.3533
  170SOPE   C1119155   2.687   1.737   6.303 -0.2826 -0.2744 -0.3081
  170SOPE  H11A19156   2.750   1.664   6.248 -0.3126 -1.4954  1.2199
  170SOPE  H11B19157   2.648   1.797   6.218 -0.5405 -1.2420 -0.8798
  170SOPE     P19158   2.609   1.523   6.436 -0.4753  0.0804 -0.1054
  170SOPE   O1319159   2.753   1.490   6.453  0.6679 -0.1845  0.6046
  170SOPE   O1419160   2.535   1.434   6.337 -0.0142 -0.3277  0.1626
  170SOPE   O1219161   2.586   1.675   6.383 -0.8953  0.4874  0.4869
  170SOPE   O1119162   2.538   1.520   6.576  0.1737  0.6619 -0.1439
  170SOPE    C119163   2.582   1.605   6.682 -0.7895 -0.2324 -0.2204
  170SOPE    HA19164   2.556   1.711   6.658  3.4278  0.9481 -0.0952
  170SOPE    HB19165   2.691   1.593   6.698 -0.8338 -0.8810 -0.4088
  170SOPE    C219166   2.505   1.591   6.821 -0.3498 -0.4734  0.4511
  170SOPE    HS19167   2.556   1.644   6.904  1.9645 -2.1705  0.1767
  170SOPE   O2119168   2.490   1.455   6.850 -0.6109  0.3391 -0.3067
  170SOPE   C2119169   2.609   1.393   6.872  0.9717  0.3167  0.8734
  170SOPE   O2219170   2.717   1.443   6.883  0.3332 -0.1956  0.2035
  170SOPE   C2219171   2.586   1.247   6.906  0.1818 -0.2001  0.4744
  170SOPE   H2R19172   2.671   1.187   6.868 -2.0699 -1.6234 -2.5381
  170SOPE   H2S19173   2.501   1.214   6.841 -1.2996 -3.0935  3.7480
  170SOPE    C319174   2.370   1.666   6.804 -0.3460  0.3839 -0.0091
  170SOPE    HX19175   2.315   1.635   6.713  1.0432 -1.5946 -0.2003
  170SOPE    HY19176   2.389   1.775   6.789 -1.1317  0.6696  1.1039
  170SOPE   O3119177   2.288   1.642   6.918 -0.3978  0.2468  0.1108
  170SOPE   C3119178   2.181   1.571   6.902 -0.4848  0.2921 -0.6847
  170SOPE   O3219179   2.136   1.526   6.799  0.4625  0.5188  0.2301
  170SOPE   C3219180   2.128   1.550   7.045 -0.3358 -0.7525 -0.0844
  170SOPE   H2X19181   2.069   1.456   7.045 -0.8798 -0.4058 -0.0995
  170SOPE   H2Y19182   2.081   1.649   7.063  1.0598  0.4487 -2.6734
  170SOPE   C2319183   2.566   1.206   7.054 -0.3951  0.7737  0.6760
  170SOPE   H3R19184   2.549   1.097   7.048 -1.7367  1.0747 -1.4353
  170SOPE   H3S19185   2.493   1.273   7.105 -0.4047  0.3622  1.2114
  170SOPE   C2419186   2.692   1.217   7.143  0.3108 -0.1909  0.3307
  170SOPE   H4R19187   2.780   1.188   7.081 -0.6699 -0.7603 -0.8070
  170SOPE   H4S19188   2.708   1.319   7.182  1.7994 -0.8189  1.4446
  170SOPE   C2519189   2.682   1.135   7.275 -0.0493  0.0777 -0.0203
  170SOPE   H5R19190   2.705   1.027   7.262  0.7643  0.4525 -1.8746
  170SOPE   H5S19191   2.767   1.162   7.341 -0.1234 -0.7676  0.4362
  170SOPE   C2619192   2.553   1.146   7.349  0.0354  0.7849 -0.5559
  170SOPE   H6R19193   2.555   1.255   7.370  1.5496  0.5914  0.3736
  170SOPE   H6S19194   2.454   1.127   7.303  0.0347  0.2883 -0.3474
  170SOPE   C2719195   2.547   1.060   7.475  0.0054  0.8367 -0.2846
  170SOPE   H7R19196   2.632   1.093   7.539 -0.0774 -0.1757  0.3754
  170SOPE   H7S19197   2.464   1.096   7.539 -1.4221 -1.7881 -0.5615
  170SOPE   C2819198   2.555   0.905   7.451 -0.0559 -0.0412  0.4125
  170SOPE   H8R19199   2.641   0.878   7.385  1.1319  0.5007  1.7069
  170SOPE   H8S19200   2.571   0.861   7.552  0.1690 -3.6139 -1.0993
  170SOPE   C2919201   2.419   0.857   7.399 -1.3355  0.0067  0.2862
  170SOPE   H9119202   2.388   0.886   7.297 -0.4836 -1.0433 -0.2785
  170SOPE  C21019203   2.332   0.788   7.462 -1.2932  0.2870 -0.4427
  170SOPE  H10119204   2.236   0.756   7.420 -0.7680  0.4292 -1.7580
  170SOPE  C21119205   2.350   0.747   7.605  0.0559 -0.3499  0.1532
  170SOPE  H11R19206   2.352   0.838   7.668 -0.3105 -1.5234  1.9124
  170SOPE  H11S19207   2.436   0.679   7.622 -0.0258 -0.2165  1.1278
  170SOPE  C21219208   2.226   0.671   7.651  0.0706 -0.9258  0.6561
  170SOPE  H12R19209   2.240   0.572   7.602 -1.6313 -1.2607  0.8228
  170SOPE  H12S19210   2.126   0.717   7.637  0.5601  0.1436  0.6553
  170SOPE  C21319211   2.239   0.661   7.806  0.5457  0.2074  0.3640
  170SOPE  H13R19212   2.220   0.759   7.856 -0.5976 -1.4199  3.2787
  170SOPE  H13S19213   2.337   0.612   7.825  0.3665 -0.1022  0.4921
  170SOPE  C21419214   2.132   0.568   7.856 -0.2095  1.0740 -0.4860
  170SOPE  H14R19215   2.123   0.474   7.797 -0.9547  0.3655  0.7334
  170SOPE  H14S19216   2.041   0.630   7.856 -0.3540  0.9088  1.4547
  170SOPE  C21519217   2.168   0.535   7.998  0.0266  0.0991  0.1268
  170SOPE  H15R19218   2.156   0.632   8.051  2.4541  0.0382  0.8648
  170SOPE  H15S19219   2.274   0.501   7.999 -0.0489 -0.2598 -1.9475
  170SOPE  C21619220   2.076   0.425   8.055 -0.2725 -0.7863 -0.5146
  170SOPE  H16R19221   2.111   0.330   8.009  1.3180  0.0351 -1.0379
  170SOPE  H16S19222   1.974   0.448   8.016  0.1317  0.2590 -1.0031
  170SOPE  C21719223   2.070   0.409   8.209 -0.8142  0.3953  0.5173
  170SOPE  H17R19224   2.004   0.491   8.242  0.8220  2.3739 -0.9635
  170SOPE  H17S19225   2.172   0.418   8.253 -0.2119  1.4944 -1.0575
  170SOPE  C21819226   2.004   0.276   8.245 -0.0863  0.2512 -0.1784
  170SOPE  H18R19227   1.897   0.287   8.220 -0.1304  0.6660  0.1691
  170SOPE  H18S19228   2.020   0.254   8.353 -0.1320 -0.1273 -0.2487
  170SOPE  H18T19229   2.054   0.199   8.183 -0.5967 -1.3451  1.3357
  170SOPE   C3319230   2.238   1.521   7.151  0.2338  0.4727  0.6956
  170SOPE   H3X19231   2.320   1.596   7.145  0.5999  0.0262  0.1650
  170SOPE   H3Y19232   2.290   1.430   7.116  2.8171  1.5471  1.5932
  170SOPE   C3419233   2.197   1.527   7.298  0.1665  0.7003 -0.3752
  170SOPE   H4X19234   2.129   1.445   7.328 -0.1821  1.2876  0.4795
  170SOPE   H4Y19235   2.145   1.621   7.327 -0.0860  0.9478 -1.6125
  170SOPE   C3519236   2.324   1.500   7.386 -0.4809 -0.8652  0.0594
  170SOPE   H5X19237   2.407   1.573   7.379  0.4787 -2.1524 -2.9642
  170SOPE   H5Y19238   2.370   1.400   7.373  1.3183 -0.6175  3.8546
  170SOPE   C3619239   2.276   1.503   7.534  0.2153  0.4126  0.0450
  170SOPE   H6X19240   2.177   1.454   7.550  1.0091 -1.7604 -1.5134
  170SOPE   H6Y19241   2.272   1.609   7.570 -0.8578  0.0807  0.9360
  170SOPE   C3719242   2.364   1.418   7.635  0.7287  0.3178  1.2415
  170SOPE   H7X19243   2.466   1.461   7.637  1.5455 -1.4322 -0.6341
  170SOPE   H7Y19244   2.378   1.317   7.590  1.4994  0.3443  1.4054
  170SOPE   C3819245   2.290   1.385   7.769 -0.1510 -0.1148  0.1856
  170SOPE   H8X19246   2.204   1.318   7.747 -0.0211 -1.4490  3.5023
  170SOPE   H8Y19247   2.255   1.474   7.826  0.3565 -0.2971  0.7785
  170SOPE   C3919248   2.392   1.317   7.854 -0.1344  0.2329  0.4273
  170SOPE   H9X19249   2.472   1.389   7.883  0.9025  0.6291 -3.1077
  170SOPE   H9Y19250   2.444   1.233   7.804 -2.7364 -2.0037  1.3915
  170SOPE  C31019251   2.351   1.263   7.986  0.1612 -0.1861  0.1183
  170SOPE  H10X19252   2.279   1.183   7.958  1.3401 -0.9753 -0.7453
  170SOPE  H10Y19253   2.295   1.345   8.036  2.6425  1.8750 -0.3425
  170SOPE  C31119254   2.457   1.202   8.075 -0.3439 -0.0880 -0.7092
  170SOPE  H11X19255   2.513   1.283   8.127 -0.3511 -1.6666  1.8590
  170SOPE  H11Y19256   2.519   1.128   8.020 -0.8869 -1.1109  0.0243
  170SOPE  C31219257   2.404   1.115   8.187 -0.3225 -0.5721 -0.0423
  170SOPE  H12X19258   2.368   1.021   8.139  0.1262  0.8092 -3.2093
  170SOPE  H12Y19259   2.317   1.169   8.231  0.1166 -0.5781  0.8429
  170SOPE  C31319260   2.503   1.104   8.301 -0.1568 -0.5933 -0.0568
  170SOPE  H13X19261   2.524   1.207   8.335  2.2630 -0.4600 -1.7894
  170SOPE  H13Y19262   2.602   1.070   8.263  0.0689  1.8549 -1.8008
  170SOPE  C31419263   2.457   1.026   8.425 -0.4279  0.2620  0.7516
  170SOPE  H14X19264   2.421   0.922   8.408  0.9119 -0.5371  2.6388
  170SOPE  H14Y19265   2.363   1.077   8.456 -0.4317  1.4522 -1.1818
  170SOPE  C31519266   2.565   1.033   8.532 -0.7140 -0.0844  0.0514
  170SOPE  H15X19267   2.599   1.136   8.558  1.1944 -0.8625  0.6917
  170SOPE  H15Y19268   2.659   0.994   8.486 -0.4803  0.6920 -0.1358
  170SOPE  C31619269   2.534   0.944   8.649 -0.4426  0.2880  0.4900
  170SOPE  H16X19270   2.494   0.848   8.610  0.5248  0.0845 -0.0191
  170SOPE  H16Y19271   2.453   1.001   8.698 -0.7862  0.8868 -0.7592
  170SOPE  C31719272   2.651   0.918   8.748 -0.1197  0.5547 -0.0704
  170SOPE  H17X19273   2.618   0.864   8.838 -0.1653 -0.3955 -0.6515
  170SOPE  H17Y19274   2.698   1.011   8.787  1.6701 -0.4458  0.2506
  170SOPE  C31819275   2.777   0.838   8.694  0.7126 -0.0934 -0.3735
  170SOPE  H18X19276   2.828   0.807   8.788 -0.5769 -2.0955 -0.2832
  170SOPE  H18Y19277   2.848   0.899   8.636  0.2298  0.8264 -0.0102
  170SOPE  H18Z19278   2.736   0.750   8.640  0.9294 -1.5751  1.7852
  171SOPE     N19279   2.304   4.396   6.767 -0.5688 -0.1609 -0.3726
  171SOPE   HN119280   2.407   4.395   6.783 -0.3853  1.3629 -1.3362
  171SOPE   HN219281   2.273   4.481   6.817  0.7236 -1.8318  3.4722
  171SOPE   HN319282   2.251   4.311   6.794 -0.2561 -0.1911  0.1548
  171SOPE   C1219283   2.287   4.405   6.619  0.3439 -0.2914  0.5227
  171SOPE  H12A19284   2.179   4.418   6.596  0.2222 -3.8255 -1.3529
  171SOPE  H12B19285   2.317   4.308   6.574  1.6194  1.1674 -1.9164
  171SOPE   C1119286   2.351   4.539   6.572  0.0901  0.1158 -0.2684
  171SOPE  H11A19287   2.302   4.628   6.618 -2.9317 -1.3553 -0.5284
  171SOPE  H11B19288   2.342   4.562   6.464 -0.9193 -0.4367 -0.3012
  171SOPE     P19289   2.588   4.468   6.490 -0.1004 -0.6018  0.1532
  171SOPE   O1319290   2.563   4.540   6.363  0.2030 -0.1630 -0.1608
  171SOPE   O1419291   2.565   4.322   6.494  0.3817 -0.3965 -0.5011
  171SOPE   O1219292   2.495   4.542   6.599 -0.0730 -0.4097 -0.0395
  171SOPE   O1119293   2.732   4.504   6.538  0.1021 -0.1193  0.0371
  171SOPE    C119294   2.811   4.411   6.609  0.7325  0.5786 -0.3437
  171SOPE    HA19295   2.915   4.447   6.621  0.4520  1.1069  0.5802
  171SOPE    HB19296   2.822   4.316   6.553 -1.2179  0.8381 -1.2269
  171SOPE    C219297   2.751   4.374   6.748  0.5783 -0.9311 -0.2814
  171SOPE    HS19298   2.653   4.323   6.736 -0.9582  2.1795 -1.7062
  171SOPE   O2119299   2.739   4.493   6.823 -0.6223 -0.1184 -0.4015
  171SOPE   C2119300   2.627   4.512   6.894  0.6987  0.6727 -0.2091
  171SOPE   O2219301   2.534   4.430   6.884  0.2072 -0.1484  0.4671
  171SOPE   C2219302   2.636   4.638   6.990 -0.5455  0.3245 -0.7750
  171SOPE   H2R19303   2.658   4.723   6.922  2.8925 -0.8472 -1.2600
  171SOPE   H2S19304   2.725   4.615   7.053 -0.9665 -1.3056 -0.7447
  171SOPE    C319305   2.841   4.285   6.838 -0.3706 -0.1335 -0.4326
  171SOPE    HX19306   2.929   4.352   6.850  0.3340 -1.3772  1.5975
  171SOPE    HY19307   2.875   4.195   6.781 -1.3904 -1.6422  1.2840
  171SOPE   O3119308   2.789   4.267   6.972  0.5103  0.0239  0.5808
  171SOPE   C3119309   2.682   4.192   6.976  0.1223 -0.1266  0.0069
  171SOPE   O3219310   2.633   4.121   6.892  0.1270 -0.4285 -0.3431
  171SOPE   C3219311   2.645   4.191   7.132  0.7224  0.0618 -0.4495
  171SOPE   H2X19312   2.733   4.236   7.182 -0.9800  0.9760  1.8354
  171SOPE   H2Y19313   2.651   4.086   7.169 -2.2978 -0.3414 -0.9422
  171SOPE   C2319314   2.511   4.654   7.075  1.1944 -0.1610 -0.6884
  171SOPE   H3R19315   2.496   4.553   7.118 -1.2066  0.8124  0.8609
  171SOPE   H3S19316   2.435   4.691   7.003  0.7887  0.4887  0.0567
  171SOPE   C2419317   2.508   4.762   7.185  0.5049 -0.1895  0.3288
  171SOPE   H4R19318   2.496   4.860   7.133 -0.3806  0.6843  2.1122
  171SOPE   H4S19319   2.411   4.747   7.236 -0.1559  0.3269 -0.7550
  171SOPE   C2519320   2.628   4.773   7.285 -0.4424 -0.4621 -0.0062
  171SOPE   H5R19321   2.731   4.773   7.244 -0.2704 -0.1402  0.4252
  171SOPE   H5S19322   2.619   4.872   7.336  1.8514  0.0810 -0.6086
  171SOPE   C2619323   2.637   4.660   7.381  1.0407  0.3288 -0.3588
  171SOPE   H6R19324   2.655   4.561   7.335 -2.3668 -0.5771  0.0773
  171SOPE   H6S19325   2.707   4.667   7.467 -0.6532  0.4317  1.0417
  171SOPE   C2719326   2.505   4.644   7.462 -0.5748  0.2613  0.3566
  171SOPE   H7R19327   2.431   4.610   7.386 -0.0284 -1.0795  0.4097
  171SOPE   H7S19328   2.511   4.572   7.547 -1.6079  0.8502  0.9329
  171SOPE   C2819329   2.453   4.765   7.536  0.1651  0.0275  0.1664
  171SOPE   H8R19330   2.436   4.847   7.463 -0.9732  0.4511  0.9028
  171SOPE   H8S19331   2.356   4.733   7.580  0.8031 -1.9541  0.1846
  171SOPE   C2919332   2.541   4.816   7.647 -0.2426 -0.2793  0.3361
  171SOPE   H9119333   2.632   4.872   7.621 -0.7845  0.4156 -0.0669
  171SOPE  C21019334   2.523   4.789   7.781  0.1761  0.3393  0.4099
  171SOPE  H10119335   2.591   4.830   7.856 -1.2118  2.1191  0.7276
  171SOPE  C21119336   2.408   4.716   7.855  0.3751 -0.0080 -0.7405
  171SOPE  H11R19337   2.441   4.610   7.861  1.3449  0.3148 -0.2940
  171SOPE  H11S19338   2.319   4.709   7.789 -0.4852 -0.8302  0.4822
  171SOPE  C21219339   2.381   4.773   7.993  0.6729  0.1177 -0.2748
  171SOPE  H12R19340   2.284   4.737   8.034  0.0069  1.2776 -0.8234
  171SOPE  H12S19341   2.372   4.883   7.982  1.0065  0.2275  0.4896
  171SOPE  C21319342   2.478   4.732   8.103  0.5127 -0.5093 -0.3601
  171SOPE  H13R19343   2.567   4.799   8.099 -1.3503  2.0833  0.5424
  171SOPE  H13S19344   2.519   4.630   8.091 -0.0443 -0.7971  0.1866
  171SOPE  C21419345   2.424   4.746   8.251 -0.0192  0.1846 -0.0047
  171SOPE  H14R19346   2.350   4.672   8.289 -0.9331  0.9621 -0.2382
  171SOPE  H14S19347   2.360   4.837   8.254 -1.0767 -0.4330 -2.4342
  171SOPE  C21519348   2.535   4.772   8.353 -0.4116  0.3378 -0.1137
  171SOPE  H15R19349   2.587   4.861   8.313 -0.5420  1.0808  1.3407
  171SOPE  H15S19350   2.608   4.689   8.362  0.6285  1.4541  2.2496
  171SOPE  C21619351   2.504   4.805   8.501  0.3833  0.7141 -0.0200
  171SOPE  H16R19352   2.437   4.894   8.506 -2.1202 -1.0944  0.0029
  171SOPE  H16S19353   2.596   4.814   8.562 -0.3647  2.4023  0.8935
  171SOPE  C21719354   2.432   4.685   8.571  0.2939 -0.1338  0.1248
  171SOPE  H17R19355   2.480   4.593   8.532 -0.8991 -0.1660 -1.3167
  171SOPE  H17S19356   2.329   4.674   8.529  0.2678 -2.2559  0.6940
  171SOPE  C21819357   2.421   4.720   8.718 -0.8422 -0.3549 -0.1190
  171SOPE  H18R19358   2.521   4.743   8.760  0.0661 -1.7825 -1.4313
  171SOPE  H18S19359   2.359   4.649   8.777 -0.8299 -1.2850 -1.1884
  171SOPE  H18T19360   2.365   4.816   8.716  1.7999  1.3016  1.8467
  171SOPE   C3319361   2.508   4.248   7.160  1.2148 -0.4251 -0.3797
  171SOPE   H3X19362   2.422   4.186   7.127 -1.1706  1.8756  1.3948
  171SOPE   H3Y19363   2.502   4.339   7.097 -0.5981  0.0398  0.4417
  171SOPE   C3419364   2.492   4.297   7.306  0.0371 -1.0212  0.1132
  171SOPE   H4X19365   2.422   4.383   7.318  0.1878 -0.6344 -1.6153
  171SOPE   H4Y19366   2.595   4.332   7.329 -0.2225  0.0674 -0.3244
  171SOPE   C3519367   2.443   4.187   7.394 -0.2607 -0.5159  0.2094
  171SOPE   H5X19368   2.514   4.102   7.387 -0.4800 -0.5236 -2.2140
  171SOPE   H5Y19369   2.347   4.145   7.359 -0.6541  1.2328 -0.8804
  171SOPE   C3619370   2.419   4.232   7.544 -0.4879 -0.0480  0.0225
  171SOPE   H6X19371   2.366   4.149   7.595  0.0855 -1.1587 -1.1622
  171SOPE   H6Y19372   2.354   4.323   7.546 -0.6319 -0.1500  0.0045
  171SOPE   C3719373   2.548   4.271   7.623  0.4181 -0.2848  0.4420
  171SOPE   H7X19374   2.591   4.351   7.559 -0.4291  1.3785  1.9330
  171SOPE   H7Y19375   2.620   4.186   7.633  0.1759 -0.7437 -1.4834
  171SOPE   C3819376   2.509   4.337   7.754  0.0357  0.0904  0.0774
  171SOPE   H8X19377   2.426   4.400   7.714  0.7926 -0.4741 -2.4987
  171SOPE   H8Y19378   2.593   4.402   7.786  0.1219  0.2449 -0.4431
  171SOPE   C3919379   2.459   4.248   7.860  0.0559  0.0491 -0.1731
  171SOPE   H9X19380   2.533   4.199   7.927 -2.3137 -1.2611  1.6008
  171SOPE   H9Y19381   2.398   4.168   7.812 -0.6478 -0.4952  1.5812
  171SOPE  C31019382   2.379   4.327   7.957  0.5417  0.5778  0.3257
  171SOPE  H10X19383   2.285   4.358   7.906  0.8829  1.0538 -0.0187
  171SOPE  H10Y19384   2.425   4.419   8.000  0.8341  0.3008  0.6111
  171SOPE  C31119385   2.326   4.245   8.075 -0.2465  0.1095  0.1421
  171SOPE  H11X19386   2.411   4.185   8.113  0.4748  0.1381 -1.3604
  171SOPE  H11Y19387   2.239   4.183   8.042  0.5104 -1.5683  1.2223
  171SOPE  C31219388   2.272   4.332   8.191 -0.2335  0.9928  1.2179
  171SOPE  H12X19389   2.196   4.400   8.148 -0.6096 -0.9140 -1.2199
  171SOPE  H12Y19390   2.359   4.399   8.210 -0.0213  1.7435 -2.1843
  171SOPE  C31319391   2.220   4.258   8.311  0.0610  0.2269  0.5218
  171SOPE  H13X19392   2.303   4.193   8.346  0.4520  0.3587 -0.1504
  171SOPE  H13Y19393   2.136   4.196   8.274  0.2642  0.0841  0.3006
  171SOPE  C31419394   2.170   4.345   8.420  0.4545 -0.7072 -0.2152
  171SOPE  H14X19395   2.075   4.399   8.397 -0.0808 -1.1578  0.9448
  171SOPE  H14Y19396   2.244   4.424   8.445  0.0638  0.2286 -1.8933
  171SOPE  C31519397   2.144   4.260   8.553  0.0083  0.8714 -0.0900
  171SOPE  H15X19398   2.243   4.239   8.599  0.0092  0.2071 -0.4019
  171SOPE  H15Y19399   2.095   4.165   8.522 -0.2851  0.2212  2.2474
  171SOPE  C31619400   2.071   4.342   8.658  0.0981  0.6671 -0.5380
  171SOPE  H16X19401   2.041   4.275   8.742 -1.1602  0.2717 -1.3023
  171SOPE  H16Y19402   1.985   4.384   8.602  0.0095  0.0334 -0.8825
  171SOPE  C31719403   2.146   4.456   8.730  0.1242 -0.1109  0.1672
  171SOPE  H17X19404   2.179   4.520   8.646  0.3773  0.0994  0.4219
  171SOPE  H17Y19405   2.243   4.416   8.766 -0.6750 -0.2964  2.1800
  171SOPE  C31819406   2.062   4.543   8.827 -0.4065 -0.1910 -0.0891
  171SOPE  H18X19407   1.972   4.582   8.775  1.4977  1.7262 -2.0102
  171SOPE  H18Y19408   2.109   4.639   8.856 -0.5088  0.5691 -2.3285
  171SOPE  H18Z19409   2.019   4.483   8.911 -0.6171  0.0795 -0.0026
  172SOPE     N19410   2.697   6.265   6.269  0.7381  0.2205  0.4081
  172SOPE   HN119411   2.677   6.248   6.370  1.0969 -0.6775  0.3294
  172SOPE   HN219412   2.791   6.310   6.261  0.4556  0.5063 -1.4352
  172SOPE   HN319413   2.626   6.329   6.229  1.9029  0.8835 -0.6393
  172SOPE   C1219414   2.690   6.128   6.209 -1.0495  0.0404 -0.3673
  172SOPE  H12A19415   2.716   6.138   6.102 -0.9278  1.8007 -0.1897
  172SOPE  H12B19416   2.590   6.081   6.208 -0.5330 -1.1170  0.5083
  172SOPE   C1119417   2.779   6.029   6.282 -0.3586  0.0392  0.3110
  172SOPE  H11A19418   2.760   5.934   6.227 -0.7532 -0.2968  1.0277
  172SOPE  H11B19419   2.753   6.016   6.389  3.3291  1.2736  1.4311
  172SOPE     P19420   3.027   5.994   6.341  0.1775 -0.0963  0.3294
  172SOPE   O1319421   3.164   6.040   6.293  0.5170 -0.0279  0.1969
  172SOPE   O1419422   3.003   5.851   6.346 -0.5446 -0.6208 -0.0463
  172SOPE   O1219423   2.917   6.072   6.264 -0.1940 -0.1900  0.5645
  172SOPE   O1119424   2.996   6.052   6.483  0.0883 -0.1938  0.0002
  172SOPE    C119425   3.013   6.195   6.514 -0.2624 -0.2077  0.1663
  172SOPE    HA19426   2.922   6.219   6.573  0.3187 -3.4877  2.5220
  172SOPE    HB19427   3.007   6.262   6.425 -1.6439  0.8081  0.9992
  172SOPE    C219428   3.145   6.236   6.587  0.2273  0.0719 -0.1543
  172SOPE    HS19429   3.232   6.195   6.531 -0.4156 -1.4816 -0.0396
  172SOPE   O2119430   3.147   6.169   6.716 -0.3968  0.6167  0.0385
  172SOPE   C2119431   3.259   6.170   6.772  0.1302 -0.9205  0.5065
  172SOPE   O2219432   3.364   6.218   6.727  0.1908  0.3824  0.2036
  172SOPE   C2219433   3.251   6.087   6.901  0.4617  0.0574 -0.3782
  172SOPE   H2R19434   3.244   5.980   6.869  0.9742 -0.0527 -0.1228
  172SOPE   H2S19435   3.164   6.118   6.963  0.8465 -1.4668  0.9572
  172SOPE    C319436   3.154   6.384   6.599 -0.3535 -0.1058 -0.0169
  172SOPE    HX19437   3.102   6.428   6.511 -0.1663 -2.9660 -1.6080
  172SOPE    HY19438   3.257   6.423   6.615 -0.9413  0.3252  3.0280
  172SOPE   O3119439   3.080   6.426   6.719  0.6149 -0.2747  0.4408
  172SOPE   C3119440   3.114   6.548   6.760  0.1695  0.5917  0.3633
  172SOPE   O3219441   3.202   6.616   6.712  0.0095  0.0483  0.3936
  172SOPE   C3219442   3.021   6.579   6.871  0.4354  0.7526 -0.7119
  172SOPE   H2X19443   2.984   6.492   6.930  0.8277  0.8994 -0.2452
  172SOPE   H2Y19444   2.923   6.620   6.840  0.8221  2.4457  0.2270
  172SOPE   C2319445   3.383   6.107   6.982  0.7377  0.3531  0.7238
  172SOPE   H3R19446   3.394   6.209   7.024  0.3967  0.6490  0.1078
  172SOPE   H3S19447   3.469   6.087   6.915 -0.1177  0.5996 -0.4744
  172SOPE   C2419448   3.398   6.017   7.099 -0.4617 -0.2993 -0.8732
  172SOPE   H4R19449   3.299   6.021   7.149 -0.0786 -1.6657  0.0293
  172SOPE   H4S19450   3.409   5.909   7.071 -0.1368  0.2541 -2.9801
  172SOPE   C2519451   3.513   6.052   7.192  0.1648 -0.0445 -0.9751
  172SOPE   H5R19452   3.613   6.046   7.143  0.8938  0.6832  0.3872
  172SOPE   H5S19453   3.514   6.155   7.235 -0.2408 -0.0896 -0.8598
  172SOPE   C2619454   3.512   5.948   7.305 -0.1500 -0.2970 -0.7260
  172SOPE   H6R19455   3.413   5.936   7.353  1.9504 -1.3779  3.5262
  172SOPE   H6S19456   3.532   5.848   7.259 -1.6183 -1.6027  1.3809
  172SOPE   C2719457   3.632   5.972   7.409 -0.3641  0.4364 -0.1711
  172SOPE   H7R19458   3.727   5.988   7.353 -1.0590  0.2327 -1.4269
  172SOPE   H7S19459   3.604   6.066   7.461  2.4124  0.1734  1.8596
  172SOPE   C2819460   3.637   5.863   7.523  0.0391  0.2722  0.1246
  172SOPE   H8R19461   3.542   5.879   7.578 -0.6321 -0.3211 -0.8629
  172SOPE   H8S19462   3.623   5.766   7.473  2.1001 -0.3650  0.7239
  172SOPE   C2919463   3.756   5.897   7.614 -0.2762  0.0356 -0.8379
  172SOPE   H9119464   3.855   5.866   7.577 -0.8642 -2.0044 -0.7408
  172SOPE  C21019465   3.759   5.944   7.742  0.0264  0.4615 -0.0290
  172SOPE  H10119466   3.856   5.957   7.792 -0.3684 -0.4802  0.9750
  172SOPE  C21119467   3.645   5.986   7.815  0.1012 -0.0090 -0.3926
  172SOPE  H11R19468   3.566   5.909   7.802  0.1789  0.1421 -1.8604
  172SOPE  H11S19469   3.602   6.076   7.766  0.0471  0.9384  1.3634
  172SOPE  C21219470   3.650   6.018   7.966 -0.3973  0.2244  0.0240
  172SOPE  H12R19471   3.729   6.094   7.984  0.4764 -1.2840  2.8054
  172SOPE  H12S19472   3.674   5.931   8.030 -0.7363 -1.3281 -1.9241
  172SOPE  C21319473   3.516   6.075   8.016  0.1218 -0.3505 -0.6470
  172SOPE  H13R19474   3.444   5.991   8.025  0.2283 -0.3550  0.1267
  172SOPE  H13S19475   3.471   6.150   7.946 -3.1497 -1.0409  0.6134
  172SOPE  C21419476   3.528   6.136   8.156  0.0339 -0.0866  0.3801
  172SOPE  H14R19477   3.425   6.164   8.186 -0.2211 -0.6637  0.0489
  172SOPE  H14S19478   3.581   6.232   8.136 -2.1937  0.8857 -0.9732
  172SOPE  C21519479   3.602   6.051   8.266  0.0286  0.0890 -0.3246
  172SOPE  H15R19480   3.710   6.043   8.242 -0.0455 -1.5183 -0.1777
  172SOPE  H15S19481   3.557   5.949   8.261 -0.9421  0.4712  0.3982
  172SOPE  C21619482   3.578   6.117   8.402 -0.0354 -0.9358  0.2166
  172SOPE  H16R19483   3.470   6.145   8.403 -0.0248 -0.8906  0.0858
  172SOPE  H16S19484   3.629   6.215   8.404 -0.9377 -0.4632  0.6401
  172SOPE  C21719485   3.600   6.018   8.517  0.4136 -0.2386  0.0215
  172SOPE  H17R19486   3.537   5.926   8.511 -1.9906  1.2600  1.5745
  172SOPE  H17S19487   3.583   6.069   8.614 -1.5907 -0.0322 -0.4247
  172SOPE  C21819488   3.740   5.971   8.539 -0.5715  0.3803  0.2225
  172SOPE  H18R19489   3.738   5.894   8.620 -2.2262  0.9919  0.7834
  172SOPE  H18S19490   3.816   6.047   8.567 -0.3718  0.4962 -0.6443
  172SOPE  H18T19491   3.776   5.915   8.450  1.5471  2.3434 -0.1925
  172SOPE   C3319492   3.078   6.673   6.983  0.1206  0.1938  0.7450
  172SOPE   H3X19493   2.994   6.686   7.054  0.5080 -3.2601  1.9247
  172SOPE   H3Y19494   3.110   6.769   6.937 -1.0206 -0.6053 -1.8116
  172SOPE   C3419495   3.188   6.605   7.062 -0.0660  0.7626 -0.6556
  172SOPE   H4X19496   3.226   6.668   7.146 -0.9021  2.4862 -1.5695
  172SOPE   H4Y19497   3.277   6.591   6.997 -0.7753 -0.4600 -1.3775
  172SOPE   C3519498   3.154   6.474   7.134  0.3904  0.2384 -0.6000
  172SOPE   H5X19499   3.127   6.387   7.071 -1.8641 -1.6302  2.7457
  172SOPE   H5Y19500   3.063   6.510   7.186  1.0613  0.5949  0.3439
  172SOPE   C3619501   3.252   6.425   7.240  0.3794 -0.1991  0.3443
  172SOPE   H6X19502   3.291   6.506   7.306 -2.1144  2.4632 -1.3526
  172SOPE   H6Y19503   3.337   6.380   7.185 -0.2896 -0.1408 -0.7605
  172SOPE   C3719504   3.194   6.310   7.329 -0.4625  0.1926 -0.6349
  172SOPE   H7X19505   3.182   6.222   7.262 -1.8977 -0.7473  0.8546
  172SOPE   H7Y19506   3.092   6.332   7.366 -0.9355 -1.6051 -0.8404
  172SOPE   C3819507   3.290   6.270   7.437 -0.4186 -0.7056  0.6335
  172SOPE   H8X19508   3.388   6.254   7.386  0.3084  0.5446  1.6210
  172SOPE   H8Y19509   3.267   6.170   7.480  1.1508 -1.0899  0.6109
  172SOPE   C3919510   3.318   6.365   7.566  0.5069  0.2276 -0.2438
  172SOPE   H9X19511   3.395   6.442   7.545 -0.5250  1.1046 -0.8227
  172SOPE   H9Y19512   3.362   6.294   7.639  0.5409 -0.4020 -0.8626
  172SOPE  C31019513   3.193   6.427   7.627 -0.6124  0.0641 -0.1787
  172SOPE  H10X19514   3.151   6.498   7.553 -0.3740  0.0452 -0.3315
  172SOPE  H10Y19515   3.222   6.500   7.707  2.4611 -0.9169 -0.3535
  172SOPE  C31119516   3.076   6.330   7.665 -0.6986 -0.2709  0.0411
  172SOPE  H11X19517   3.054   6.272   7.573 -2.1592  0.7527 -0.2715
  172SOPE  H11Y19518   2.988   6.395   7.683 -1.2191 -0.2923 -2.1969
  172SOPE  C31219519   3.104   6.235   7.782  0.8092 -0.3339  0.6520
  172SOPE  H12X19520   3.204   6.186   7.770 -0.5842 -2.6327 -2.2553
  172SOPE  H12Y19521   3.035   6.151   7.762  3.3207 -1.7356 -2.5979
  172SOPE  C31319522   3.087   6.299   7.920  0.2864  0.4052 -0.1570
  172SOPE  H13X19523   2.987   6.346   7.935  0.1277  0.5596 -1.6447
  172SOPE  H13Y19524   3.150   6.391   7.931  0.8302 -0.1084  1.1862
  172SOPE  C31419525   3.115   6.198   8.041 -0.1265 -0.8528  1.1393
  172SOPE  H14X19526   3.217   6.156   8.029  1.3369  3.1225 -1.1870
  172SOPE  H14Y19527   3.053   6.108   8.022  0.2279 -0.8199 -0.2594
  172SOPE  C31519528   3.104   6.267   8.174  0.0600  0.1092 -0.1815
  172SOPE  H15X19529   3.002   6.303   8.202  0.8254  1.5335  0.8649
  172SOPE  H15Y19530   3.155   6.366   8.165 -0.0464  0.3637  1.6942
  172SOPE  C31619531   3.143   6.181   8.294 -0.5097 -0.2857 -0.0208
  172SOPE  H16X19532   3.249   6.149   8.288  0.2270  2.1999 -0.8314
  172SOPE  H16Y19533   3.073   6.095   8.300 -0.6278 -0.3235 -1.6634
  172SOPE  C31719534   3.138   6.258   8.421 -0.1065 -0.6783 -0.6491
  172SOPE  H17X19535   3.041   6.309   8.438 -0.3036 -1.9116  2.1400
  172SOPE  H17Y19536   3.211   6.342   8.420  0.1728 -0.9209 -0.6485
  172SOPE  C31819537   3.163   6.172   8.549 -0.5514  0.0269  0.2913
  172SOPE  H18X19538   3.118   6.071   8.551 -0.0478 -0.2340 -0.9483
  172SOPE  H18Y19539   3.126   6.231   8.635  1.3772  1.4036  0.2114
  172SOPE  H18Z19540   3.273   6.157   8.560 -0.2958  1.5143 -0.0526
  173SAPI   C1219541   5.465   3.884  10.888 -0.4149  1.3184  0.9720
  173SAPI    H219542   5.484   3.891  10.779 -1.2615  2.4112  0.8880
  173SAPI    O219543   5.410   3.751  10.911 -0.5417 -0.6032  0.4122
  173SAPI   HO219544   5.340   3.740  10.847 -1.1109 -0.3044  0.9826
  173SAPI   C1319545   5.594   3.912  10.956 -0.2758  0.2978  0.0452
  173SAPI    H319546   5.631   4.016  10.944  0.1063  0.4177  2.0347
  173SAPI    O319547   5.698   3.839  10.900 -0.1760  0.3333  0.5858
  173SAPI   HO319548   5.674   3.748  10.920 -0.7859  0.1006 -1.1709
  173SAPI   C1419549   5.581   3.907  11.105  0.0793 -0.1526  0.5384
  173SAPI    H419550   5.550   3.806  11.139  0.3873  0.0629  1.4799
  173SAPI    O419551   5.703   3.930  11.175 -0.2239  0.3877  0.0828
  173SAPI   HO419552   5.721   3.851  11.227 -0.1101  1.5637  1.8588
  173SAPI   C1519553   5.467   4.005  11.151  0.1430 -0.3584 -0.3712
  173SAPI    H519554   5.493   4.108  11.119 -0.2454  0.5909  2.2285
  173SAPI    O519555   5.456   4.010  11.293 -0.2331 -0.3942  0.0430
  173SAPI   HO519556   5.501   4.089  11.324 -0.0200 -0.6381  0.3611
  173SAPI   C1619557   5.338   3.960  11.077  0.8722 -0.0854  0.3711
  173SAPI    H619558   5.315   3.856  11.106  0.8665 -0.5992 -1.4682
  173SAPI    O619559   5.234   4.038  11.124  0.6995 -0.0856  0.3830
  173SAPI   HO619560   5.153   4.024  11.074  0.6096  0.3189  0.4125
  173SAPI   C1119561   5.358   3.984  10.929  0.4161 -0.0096  0.3211
  173SAPI    H119562   5.386   4.091  10.913 -0.0864 -0.2379 -2.2749
  173SAPI     P19563   5.124   4.063  10.820 -0.1874  0.0285  0.2373
  173SAPI   O1319564   5.180   4.191  10.760 -0.1067  0.0210 -0.3931
  173SAPI   O1419565   5.038   4.084  10.939 -0.7833  0.5039 -0.6034
  173SAPI   O1219566   5.247   3.956  10.853  0.4382  0.3297 -0.3792
  173SAPI   O1119567   5.033   4.004  10.707  0.0632  0.1985 -0.4060
  173SAPI    C119568   5.038   3.896  10.625  0.1222  0.0050  0.5044
  173SAPI    HA19569   5.073   3.812  10.689 -3.0675 -1.2938  0.6560
  173SAPI    HB19570   4.938   3.865  10.588  1.2781 -3.6711  0.2676
  173SAPI    C219571   5.140   3.890  10.505  0.2187  0.0027 -0.2196
  173SAPI    HS19572   5.242   3.894  10.549 -0.8071 -0.2218  2.2768
  173SAPI   O2119573   5.120   4.004  10.424  0.4942  0.4719  0.1733
  173SAPI   C2119574   5.236   4.064  10.385 -0.7303 -0.3862 -0.0253
  173SAPI   O2219575   5.346   4.028  10.408  0.2622 -0.3588  0.3869
  173SAPI   C2219576   5.197   4.171  10.283  0.3310 -0.0094  0.3341
  173SAPI   H2R19577   5.136   4.126  10.201 -2.1130  1.0924  1.4880
  173SAPI   H2S19578   5.133   4.237  10.345 -1.4596 -1.0286 -0.3845
  173SAPI    C319579   5.139   3.763  10.415  0.0657 -0.4894 -0.7814
  173SAPI    HX19580   5.037   3.734  10.382 -0.6406  2.5027 -1.4028
  173SAPI    HY19581   5.165   3.676  10.478  2.9377  1.0234  0.2523
  173SAPI   O3119582   5.229   3.783  10.298  0.3356  0.3205 -0.2413
  173SAPI   C3119583   5.243   3.686  10.211 -0.8173  0.6659 -0.1794
  173SAPI   O3219584   5.187   3.577  10.212  0.6211 -0.1176 -0.4831
  173SAPI   C3219585   5.348   3.727  10.107 -0.0969  0.0949 -0.0956
  173SAPI   H2X19586   5.411   3.636  10.095 -0.8118 -0.3644 -0.4430
  173SAPI   H2Y19587   5.411   3.806  10.152  1.4305 -0.6195 -0.9185
  173SAPI   C2319588   5.322   4.236  10.215  0.1421 -0.3623  0.6124
  173SAPI   H3R19589   5.397   4.257  10.294  1.0113  0.4446 -0.4090
  173SAPI   H3S19590   5.294   4.335  10.170 -2.1361 -0.4199  1.8172
  173SAPI   C2419591   5.376   4.152  10.099 -0.3362  0.3364  0.0809
  173SAPI   H4R19592   5.296   4.157  10.023 -1.0448 -0.2925  0.7826
  173SAPI   H4S19593   5.381   4.049  10.140  0.4037  1.2211  2.3006
  173SAPI   C2519594   5.512   4.193  10.053  0.6638 -0.3193 -0.4515
  173SAPI   H5R19595   5.576   4.231  10.135 -0.6693 -0.2365  0.5663
  173SAPI   C2619596   5.564   4.196   9.928 -0.8959 -0.4130  0.0549
  173SAPI   H6R19597   5.670   4.224   9.919 -1.1894  1.1745  1.2144
  173SAPI   C2719598   5.486   4.150   9.809 -0.5883 -0.0036  0.1885
  173SAPI   H7R19599   5.419   4.232   9.777 -0.0541 -0.1137 -1.2457
  173SAPI   H7S19600   5.429   4.057   9.830 -2.2316  1.3891  2.0329
  173SAPI   C2819601   5.563   4.131   9.684  0.1059  0.2227  0.0135
  173SAPI   H8R19602   5.672   4.117   9.692 -0.1023 -1.6662 -0.1502
  173SAPI   C2919603   5.511   4.123   9.564  0.2327  0.0847  0.8956
  173SAPI   H9R19604   5.585   4.110   9.484 -1.7398 -0.1832 -0.9576
  173SAPI  C21019605   5.372   4.126   9.507  0.7651  0.4582 -0.5751
  173SAPI  H10R19606   5.364   4.216   9.442  1.3640  1.8939  1.3045
  173SAPI  H10S19607   5.293   4.137   9.585 -0.1780  1.0926 -1.5934
  173SAPI  C21119608   5.332   4.006   9.430  0.5988  0.1798 -0.6093
  173SAPI  H11R19609   5.320   3.912   9.487  1.4199  0.4097 -0.0377
  173SAPI  C21219610   5.332   4.005   9.297  1.0922 -0.2179 -0.2741
  173SAPI  H12R19611   5.286   3.920   9.244 -0.9325  0.7980 -0.1757
  173SAPI  C21319612   5.358   4.115   9.197  0.0552 -0.0688 -0.3183
  173SAPI  H13R19613   5.376   4.081   9.093 -1.2729  1.1541 -0.9620
  173SAPI  H13S19614   5.448   4.177   9.220  0.5826 -0.3967 -1.4694
  173SAPI  C21419615   5.246   4.219   9.191 -0.4516  0.1162  0.0360
  173SAPI  H14R19616   5.243   4.269   9.289  2.8274 -0.4777  0.4962
  173SAPI  C21519617   5.153   4.247   9.096  0.3269  0.4013 -0.2029
  173SAPI  H15R19618   5.088   4.335   9.109  0.9810  0.7296  0.9460
  173SAPI  C21619619   5.134   4.178   8.966  0.0946 -0.4679  0.9384
  173SAPI  H16R19620   5.027   4.150   8.959 -0.1205  0.3834  0.7856
  173SAPI  H16S19621   5.179   4.077   8.962 -1.0294 -0.9083 -1.4033
  173SAPI  C21719622   5.184   4.259   8.843 -0.0613  0.3037  0.4396
  173SAPI  H17R19623   5.295   4.263   8.856  0.2023 -0.5627 -1.4371
  173SAPI  H17S19624   5.168   4.368   8.861 -0.9854 -0.1679  2.6400
  173SAPI  C21819625   5.128   4.205   8.720 -0.1816 -0.8558 -0.0530
  173SAPI  H18R19626   5.019   4.222   8.710  0.2035  1.0506 -1.1485
  173SAPI  H18S19627   5.149   4.096   8.724 -1.6930 -1.1910 -1.0302
  173SAPI  C21919628   5.191   4.256   8.591  0.3405 -0.5998 -0.6524
  173SAPI  H19R19629   5.292   4.230   8.551  0.7224 -0.7468  0.4093
  173SAPI  H19S19630   5.196   4.367   8.603 -0.4714 -0.6507  0.1266
  173SAPI  C22019631   5.094   4.234   8.477 -0.1993  0.4673 -0.2953
  173SAPI  H20R19632   5.085   4.133   8.431 -1.7108  0.9879 -1.1989
  173SAPI  H20S19633   5.108   4.307   8.394  0.1679  0.7623  0.0258
  173SAPI  H20T19634   4.993   4.261   8.517 -1.2098  2.5619 -3.9784
  173SAPI   C3319635   5.287   3.784   9.969 -0.0210 -0.2684  0.1021
  173SAPI   H3X19636   5.358   3.855   9.921 -1.1366  1.4604  0.9462
  173SAPI   H3Y19637   5.187   3.830   9.980  0.1549  0.0435  0.4165
  173SAPI   C3419638   5.263   3.667   9.871 -0.4398  0.3873  0.4903
  173SAPI   H4X19639   5.182   3.602   9.911  1.7339 -1.1389  2.5304
  173SAPI   H4Y19640   5.358   3.612   9.857 -1.2246 -1.2132  1.3132
  173SAPI   C3519641   5.215   3.722   9.739  0.0498 -0.2092  0.3173
  173SAPI   H5X19642   5.278   3.802   9.695  0.5087 -0.1279  1.1204
  173SAPI   H5Y19643   5.125   3.781   9.767  0.1458 -0.9186  2.1883
  173SAPI   C3619644   5.177   3.620   9.632 -0.1451 -0.0246 -0.0540
  173SAPI   H6X19645   5.093   3.558   9.668 -0.0484  1.3269  2.6273
  173SAPI   H6Y19646   5.273   3.568   9.612  0.0458  0.0213  0.7149
  173SAPI   C3719647   5.116   3.671   9.501  0.2308 -0.6877  0.5092
  173SAPI   H7X19648   5.172   3.753   9.452 -0.5207  0.5258  1.6493
  173SAPI   H7Y19649   5.016   3.701   9.542  0.5540  1.1090  0.0325
  173SAPI   C3819650   5.082   3.557   9.406  0.3548 -0.0830 -0.5069
  173SAPI   H8X19651   5.019   3.476   9.450  0.5667  0.4438  0.7862
  173SAPI   H8Y19652   5.184   3.522   9.379  0.4246  0.9055 -1.5353
  173SAPI   C3919653   5.019   3.603   9.274  0.9840 -0.0638  0.1644
  173SAPI   H9X19654   4.933   3.669   9.298  1.7475  0.9382  0.1891
  173SAPI   H9Y19655   4.970   3.519   9.221 -1.3100  0.8351  0.8066
  173SAPI  C31019656   5.118   3.670   9.179 -0.9409 -0.4782 -0.6172
  173SAPI  H10X19657   5.216   3.623   9.201 -1.6377 -1.3908  0.6343
  173SAPI  H10Y19658   5.139   3.773   9.214 -0.1608  0.0752 -2.6590
  173SAPI  C31119659   5.078   3.672   9.031  0.4524  0.0206 -0.3632
  173SAPI  H11X19660   5.127   3.757   8.979 -0.3067 -0.5015 -1.9610
  173SAPI  H11Y19661   4.969   3.693   9.029 -0.0108 -2.2783 -0.6469
  173SAPI  C31219662   5.109   3.539   8.965 -0.2185  0.7055  0.7043
  173SAPI  H12X19663   5.067   3.462   9.033  0.8405  0.5374  1.1761
  173SAPI  H12Y19664   5.218   3.525   8.950  0.0331  1.9245  1.3063
  173SAPI  C31319665   5.042   3.533   8.825 -0.1224 -0.8247  0.7203
  173SAPI  H13X19666   5.091   3.445   8.779  1.0346 -0.7669  1.8220
  173SAPI  H13Y19667   5.066   3.623   8.764 -1.6119  1.3478  3.2160
  173SAPI  C31419668   4.884   3.518   8.825 -0.1009  0.9897 -0.5498
  173SAPI  H14X19669   4.835   3.609   8.866  1.8349  0.9072  2.1369
  173SAPI  H14Y19670   4.859   3.439   8.899  4.9901 -0.5580 -0.2644
  173SAPI  C31519671   4.822   3.501   8.688 -0.3840  0.8460  0.1602
  173SAPI  H15X19672   4.822   3.605   8.647 -1.3696  0.1144 -1.7493
  173SAPI  H15Y19673   4.713   3.485   8.695 -0.4727  1.6999  0.7819
  173SAPI  C31619674   4.894   3.405   8.590 -0.3713 -0.4615 -0.2140
  173SAPI  H16X19675   4.938   3.326   8.655 -2.4206 -0.7748  0.8285
  173SAPI  H16Y19676   4.972   3.460   8.533 -1.0251 -0.4426 -1.0989
  173SAPI  C31719677   4.792   3.344   8.486 -0.2371 -0.5184 -0.4937
  173SAPI  H17X19678   4.718   3.280   8.538  1.1920  0.6449  3.1119
  173SAPI  H17Y19679   4.858   3.288   8.416  1.8175  2.1394 -0.7841
  173SAPI  C31819680   4.717   3.452   8.403 -0.3613  0.1116 -0.2200
  173SAPI  H18X19681   4.669   3.522   8.475 -0.2004 -0.3304  0.3209
  173SAPI  H18Y19682   4.644   3.409   8.331  2.8635 -1.5066 -2.6566
  173SAPI  H18Z19683   4.782   3.524   8.349 -0.2425  0.1919  0.0291
  174SAPI   C1219684   1.994   4.633  11.231 -0.1513 -0.4035 -0.1399
  174SAPI    H219685   1.944   4.534  11.223  0.5078 -0.7476 -0.0879
  174SAPI    O219686   1.900   4.724  11.275  0.0963  0.0224 -0.0566
  174SAPI   HO219687   1.896   4.803  11.221 -0.0495 -1.3856 -2.1822
  174SAPI   C1319688   2.122   4.623  11.318  0.7435 -0.0359  0.1653
  174SAPI    H319689   2.190   4.551  11.268  2.5923  1.8915 -0.1517
  174SAPI    O319690   2.090   4.568  11.442 -0.1939  0.4703  0.1346
  174SAPI   HO319691   2.165   4.591  11.498  0.1311  0.5192 -0.3193
  174SAPI   C1419692   2.196   4.750  11.327  0.4098 -0.6439 -0.2087
  174SAPI    H419693   2.131   4.829  11.369  0.0719 -1.2203  0.3557
  174SAPI    O419694   2.311   4.737  11.412 -0.2658 -0.0675 -0.0679
  174SAPI   HO419695   2.345   4.825  11.429  1.3292 -0.4957 -0.9371
  174SAPI   C1519696   2.244   4.800  11.189  0.6544 -0.2517  0.7952
  174SAPI    H519697   2.296   4.715  11.139  0.1570 -0.0030 -0.1567
  174SAPI    O519698   2.340   4.905  11.198  0.4122 -0.0703  0.0788
  174SAPI   HO519699   2.386   4.908  11.113  1.8121 -0.7895  0.7870
  174SAPI   C1619700   2.116   4.814  11.092 -0.8908  0.2914  0.0004
  174SAPI    H619701   2.060   4.897  11.139  1.3730  2.2885 -0.7295
  174SAPI    O619702   2.146   4.851  10.965  0.4652 -0.0355  0.0489
  174SAPI   HO619703   2.097   4.932  10.949  0.3196 -0.0090  0.6267
  174SAPI   C1119704   2.045   4.677  11.092  0.1683 -0.3795  0.4044
  174SAPI    H119705   2.115   4.600  11.055  0.4436 -0.0285  0.1936
  174SAPI     P19706   1.879   4.547  10.918 -0.5851 -0.2013  0.0517
  174SAPI   O1319707   1.734   4.555  10.886  0.3428  0.5330 -0.3226
  174SAPI   O1419708   1.943   4.420  10.961  0.2232  0.0768 -0.1112
  174SAPI   O1219709   1.919   4.672  11.019 -0.3440 -0.3579 -0.6460
  174SAPI   O1119710   1.953   4.591  10.786 -0.5180 -0.2045 -0.3034
  174SAPI    C119711   1.910   4.704  10.708 -0.4183 -0.2066 -0.0353
  174SAPI    HA19712   1.876   4.791  10.769  1.8510  0.5876  0.1386
  174SAPI    HB19713   1.988   4.740  10.639 -0.5279 -2.0044 -1.1082
  174SAPI    C219714   1.789   4.655  10.610 -0.2354  0.2270  0.3823
  174SAPI    HS19715   1.696   4.687  10.663 -0.7093  0.2061 -0.4402
  174SAPI   O2119716   1.789   4.514  10.579  0.1187 -0.4848  0.0552
  174SAPI   C2119717   1.670   4.464  10.558  0.7078  1.0061 -0.1136
  174SAPI   O2219718   1.568   4.524  10.567 -0.0288 -0.2890 -0.6716
  174SAPI   C2219719   1.679   4.319  10.520  0.4705 -0.0294 -0.0065
  174SAPI   H2R19720   1.697   4.313  10.411  0.6174 -0.6146  0.0442
  174SAPI   H2S19721   1.769   4.280  10.572 -0.1372  2.4246  3.0725
  174SAPI    C319722   1.794   4.724  10.478  0.4460  0.0004  0.0147
  174SAPI    HX19723   1.792   4.834  10.494 -2.7670 -0.0481  0.4756
  174SAPI    HY19724   1.695   4.709  10.429  0.4266 -1.2516  0.4186
  174SAPI   O3119725   1.909   4.680  10.396  0.0692  0.4053 -0.3007
  174SAPI   C3119726   1.880   4.610  10.282 -0.2792  0.0862  0.0541
  174SAPI   O3219727   1.768   4.590  10.248  0.2507  0.0100  0.5941
  174SAPI   C3219728   2.011   4.564  10.211 -0.7918 -0.0247 -0.5143
  174SAPI   H2X19729   2.074   4.488  10.261 -1.2689 -0.2630 -0.2701
  174SAPI   H2Y19730   2.072   4.657  10.213 -1.9997  0.7591  0.4986
  174SAPI   C2319731   1.564   4.222  10.548  0.1941  0.5486 -0.2769
  174SAPI   H3R19732   1.469   4.269  10.514 -0.9460 -1.6371 -0.1742
  174SAPI   H3S19733   1.538   4.193  10.652 -0.1613 -2.5324 -1.1926
  174SAPI   C2419734   1.594   4.084  10.490 -0.1013  0.2382  0.6809
  174SAPI   H4R19735   1.520   4.009  10.525  0.9426 -1.7058 -1.1934
  174SAPI   H4S19736   1.688   4.047  10.537  0.6011 -1.1322 -1.7521
  174SAPI   C2519737   1.598   4.096  10.341 -0.3921 -0.1136 -0.3090
  174SAPI   H5R19738   1.505   4.134  10.296 -0.1138  0.3451 -0.5036
  174SAPI   C2619739   1.701   4.088  10.252  0.0211  0.2381 -0.5348
  174SAPI   H6R19740   1.689   4.110  10.145  2.9432  0.2460 -0.8866
  174SAPI   C2719741   1.838   4.048  10.289  0.2713 -0.6281  0.4680
  174SAPI   H7R19742   1.855   4.033  10.398  1.6756 -2.2325  0.0538
  174SAPI   H7S19743   1.910   4.126  10.257 -0.8026 -0.0873 -0.6896
  174SAPI   C2819744   1.889   3.919  10.232 -1.1413  0.5212  0.2600
  174SAPI   H8R19745   1.883   3.837  10.305 -1.5841  1.4605  1.2823
  174SAPI   C2919746   1.935   3.891  10.112 -0.3682 -0.2794  0.3416
  174SAPI   H9R19747   1.948   3.784  10.089  1.3967  0.2933 -1.4278
  174SAPI  C21019748   1.945   3.996   9.997  0.1023  0.2009  0.4564
  174SAPI  H10R19749   2.052   4.020   9.980  0.2027  0.8309  1.9124
  174SAPI  H10S19750   1.893   4.088  10.030 -1.6057 -0.4515 -0.3363
  174SAPI  C21119751   1.881   3.941   9.871  0.3404  0.0122 -0.5396
  174SAPI  H11R19752   1.814   3.854   9.878  1.3009 -0.6951 -0.0143
  174SAPI  C21219753   1.917   3.980   9.746 -0.7975  0.4368 -0.3501
  174SAPI  H12R19754   1.867   3.940   9.656  0.3554 -1.2667 -0.2600
  174SAPI  C21319755   2.014   4.093   9.711 -0.0054  0.1786 -1.1022
  174SAPI  H13R19756   1.997   4.177   9.782  0.0923 -1.4789  0.9204
  174SAPI  H13S19757   1.980   4.138   9.615 -1.0684  0.5570 -0.5654
  174SAPI  C21419758   2.157   4.061   9.716 -0.9790  0.2008 -0.3180
  174SAPI  H14R19759   2.191   4.009   9.807 -1.0184 -0.6063 -0.7641
  174SAPI  C21519760   2.256   4.090   9.628 -0.1244 -0.1573  0.1648
  174SAPI  H15R19761   2.354   4.042   9.643 -0.1546  0.0517  1.0024
  174SAPI  C21619762   2.234   4.172   9.502  0.5389  0.2615  0.3502
  174SAPI  H16R19763   2.330   4.217   9.471 -0.1727  1.7262  0.2386
  174SAPI  H16S19764   2.151   4.244   9.519  0.6583  0.5764 -0.4087
  174SAPI  C21719765   2.199   4.084   9.380  0.3374  0.2329  0.6318
  174SAPI  H17R19766   2.106   4.026   9.400  0.9985 -1.3356 -0.7094
  174SAPI  H17S19767   2.283   4.017   9.352  0.2106 -0.9411  2.8992
  174SAPI  C21819768   2.160   4.168   9.268 -0.7510 -0.1405 -0.3830
  174SAPI  H18R19769   2.244   4.234   9.237 -0.2580 -0.4169  0.3593
  174SAPI  H18S19770   2.077   4.236   9.296 -0.2763 -0.1470  1.0916
  174SAPI  C21919771   2.106   4.089   9.146  0.8347 -0.7202  0.2602
  174SAPI  H19R19772   2.030   4.014   9.175  0.6308 -0.9732 -0.9370
  174SAPI  H19S19773   2.192   4.034   9.103  0.1241 -1.6011 -0.0432
  174SAPI  C22019774   2.058   4.179   9.035  0.1486 -0.1783 -0.5885
  174SAPI  H20R19775   2.034   4.117   8.946  1.1008 -0.3102 -0.7572
  174SAPI  H20S19776   2.140   4.249   9.007 -1.2148  0.9069 -1.9319
  174SAPI  H20T19777   1.966   4.233   9.066 -0.2526 -1.3353  0.2568
  174SAPI   C3319778   1.990   4.528  10.056 -0.3754 -0.2919  0.1370
  174SAPI   H3X19779   1.928   4.602  10.001  0.6009 -0.5903 -1.3945
  174SAPI   H3Y19780   1.937   4.431  10.048  1.1228 -0.9602 -2.0191
  174SAPI   C3419781   2.121   4.545   9.983  0.9781  0.1000  1.1597
  174SAPI   H4X19782   2.202   4.479  10.022  2.6155  2.0855  1.1844
  174SAPI   H4Y19783   2.159   4.648   9.998 -0.9732  0.8975  0.7778
  174SAPI   C3519784   2.105   4.517   9.836 -0.4372  0.2585 -0.2168
  174SAPI   H5X19785   2.028   4.589   9.801 -2.3403 -0.5085  2.2952
  174SAPI   H5Y19786   2.068   4.414   9.817 -0.6346  0.4007 -0.6144
  174SAPI   C3619787   2.241   4.515   9.764  0.3460 -0.2990 -0.2695
  174SAPI   H6X19788   2.293   4.419   9.782 -2.0585 -1.6102 -0.1258
  174SAPI   H6Y19789   2.302   4.604   9.791 -1.6299  0.4027  2.1752
  174SAPI   C3719790   2.211   4.521   9.612  0.5831 -0.4808 -0.3407
  174SAPI   H7X19791   2.165   4.619   9.587  1.6649  0.4754  1.2819
  174SAPI   H7Y19792   2.135   4.445   9.586  0.4087 -0.6012  0.4907
  174SAPI   C3819793   2.321   4.519   9.513 -0.0333 -0.0456 -0.1378
  174SAPI   H8X19794   2.374   4.421   9.518  0.0795  0.0201 -0.0503
  174SAPI   H8Y19795   2.403   4.591   9.531 -1.6257  1.5065  1.0598
  174SAPI   C3919796   2.263   4.525   9.372  0.3021  0.7075 -0.0635
  174SAPI   H9X19797   2.228   4.629   9.356 -1.7801  0.5346  2.9387
  174SAPI   H9Y19798   2.173   4.465   9.348  0.6276  1.2249 -2.6588
  174SAPI  C31019799   2.363   4.498   9.267 -1.0397  0.3116  0.5847
  174SAPI  H10X19800   2.402   4.396   9.290 -1.3128  0.1802  0.4661
  174SAPI  H10Y19801   2.444   4.572   9.286 -0.3372 -0.0412 -0.9693
  174SAPI  C31119802   2.314   4.506   9.121  0.2017  0.5354  0.1629
  174SAPI  H11X19803   2.255   4.599   9.101 -1.6125 -0.4418  0.8185
  174SAPI  H11Y19804   2.238   4.426   9.105  0.4267  0.1710  0.8902
  174SAPI  C31219805   2.423   4.494   9.014 -0.0055  0.2131  1.4953
  174SAPI  H12X19806   2.482   4.588   9.019 -0.9724  0.8513  0.9684
  174SAPI  H12Y19807   2.373   4.493   8.915 -1.1566  1.3695  2.0539
  174SAPI  C31319808   2.528   4.380   9.014  0.1106  0.4949 -0.3833
  174SAPI  H13X19809   2.576   4.389   9.114  0.9426 -2.2680 -0.5132
  174SAPI  H13Y19810   2.603   4.409   8.939  1.0249  0.7737  0.6253
  174SAPI  C31419811   2.471   4.240   9.003 -0.5663 -0.2253 -0.2547
  174SAPI  H14X19812   2.436   4.227   8.898 -1.2186  1.9237 -0.3309
  174SAPI  H14Y19813   2.385   4.235   9.073 -0.2725 -1.2782  0.0377
  174SAPI  C31519814   2.560   4.119   9.048  0.0709  0.1029 -0.0735
  174SAPI  H15X19815   2.556   4.111   9.159 -0.4081 -1.5535 -0.1944
  174SAPI  H15Y19816   2.667   4.125   9.019 -0.1309 -2.5880 -1.5166
  174SAPI  C31619817   2.501   3.988   8.984 -0.2686  0.7648 -0.0510
  174SAPI  H16X19818   2.399   3.967   9.022 -0.0498 -1.9327 -0.8579
  174SAPI  H16Y19819   2.556   3.909   9.038  0.9386 -0.2320 -2.6755
  174SAPI  C31719820   2.521   3.953   8.836 -0.7273 -0.4505 -0.0189
  174SAPI  H17X19821   2.628   3.964   8.806 -0.6615  0.2433  0.4341
  174SAPI  H17Y19822   2.459   4.015   8.768  2.2292 -0.9888 -3.3807
  174SAPI  C31819823   2.481   3.811   8.810  0.3891 -0.3960  0.1855
  174SAPI  H18X19824   2.547   3.740   8.864 -1.3186 -1.4763  0.8819
  174SAPI  H18Y19825   2.489   3.791   8.701 -2.7173  0.3531 -0.2196
  174SAPI  H18Z19826   2.379   3.799   8.851  0.5305 -1.4775  0.2219
  175SAPI   C1219827   3.887   3.797   6.607  0.3160 -0.2152 -0.2036
  175SAPI    H219828   3.983   3.826   6.655 -0.3413  0.3852  0.7838
  175SAPI    O219829   3.874   3.657   6.607 -0.5092  0.7005  0.0239
  175SAPI   HO219830   3.933   3.629   6.537  0.6560 -1.2024  1.7312
  175SAPI   C1319831   3.770   3.864   6.662 -0.4267  0.1479 -0.4340
  175SAPI    H319832   3.779   3.974   6.650  0.5204  0.0000 -1.0870
  175SAPI    O319833   3.766   3.846   6.805  0.2029  0.1670 -1.2152
  175SAPI   HO319834   3.758   3.751   6.816 -0.9520  0.2310 -1.4403
  175SAPI   C1419835   3.634   3.818   6.601 -0.0739  0.0884  0.7741
  175SAPI    H419836   3.637   3.707   6.605 -3.7477 -0.0904  0.4501
  175SAPI    O419837   3.507   3.844   6.669  0.5842  0.0815  0.1350
  175SAPI   HO419838   3.527   3.834   6.762  3.0436  2.2158 -0.1043
  175SAPI   C1519839   3.638   3.846   6.454  0.1512  0.5588  0.0673
  175SAPI    H519840   3.635   3.957   6.445 -0.5904  0.3463 -2.6062
  175SAPI    O519841   3.527   3.782   6.390  0.3878 -0.7227  0.4138
  175SAPI   HO519842   3.472   3.753   6.463 -0.5009 -3.6672 -1.3491
  175SAPI   C1619843   3.770   3.794   6.388  0.2672  0.4865  0.0866
  175SAPI    H619844   3.763   3.684   6.375  1.5177  0.4291 -0.1307
  175SAPI    O619845   3.781   3.836   6.252 -0.1222 -0.4896  0.1407
  175SAPI   HO619846   3.789   3.931   6.243  1.1952 -0.5246  0.8648
  175SAPI   C1119847   3.898   3.833   6.462  0.0788 -0.2015  0.0079
  175SAPI    H119848   3.905   3.943   6.454 -0.6218  0.0588  2.6208
  175SAPI     P19849   4.132   3.831   6.328  0.0058  0.0306  0.2986
  175SAPI   O1319850   4.082   3.951   6.271  0.6121 -0.4113 -0.5986
  175SAPI   O1419851   4.195   3.733   6.239  0.8660 -0.0044 -0.3222
  175SAPI   O1219852   4.005   3.755   6.401 -0.0540 -0.4050 -0.2140
  175SAPI   O1119853   4.239   3.864   6.443  0.2450  0.7996  0.6344
  175SAPI    C119854   4.309   3.755   6.503  0.0411  0.0879  0.5073
  175SAPI    HA19855   4.244   3.669   6.528 -0.8372 -0.2924 -2.7864
  175SAPI    HB19856   4.393   3.729   6.435 -1.4233 -0.6012 -1.0794
  175SAPI    C219857   4.384   3.806   6.631  0.3963  0.0246  0.0639
  175SAPI    HS19858   4.473   3.739   6.644 -1.4273 -2.5192 -0.1627
  175SAPI   O2119859   4.294   3.797   6.744 -0.0703 -0.5180 -0.3619
  175SAPI   C2119860   4.262   3.673   6.791 -0.2518  0.3223 -0.7412
  175SAPI   O2219861   4.304   3.568   6.743 -0.2295  0.1028 -0.1371
  175SAPI   C2219862   4.156   3.679   6.902  0.4054  0.6068 -0.0924
  175SAPI   H2R19863   4.121   3.785   6.900  0.4231  0.5827 -1.8355
  175SAPI   H2S19864   4.074   3.612   6.867 -2.0287  2.2275  2.2742
  175SAPI    C319865   4.425   3.950   6.608 -0.4632  0.2364 -0.4359
  175SAPI    HX19866   4.328   3.999   6.632  0.6059  0.9623  2.6901
  175SAPI    HY19867   4.460   3.966   6.504 -1.5429 -0.6072 -0.9434
  175SAPI   O3119868   4.518   4.002   6.709  0.4122 -0.1060 -0.0132
  175SAPI   C3119869   4.528   4.137   6.722 -0.0230  0.1623  0.5091
  175SAPI   O3219870   4.442   4.218   6.684 -0.0981  0.1204 -0.2744
  175SAPI   C3219871   4.661   4.178   6.793  0.1845  0.2571  0.6091
  175SAPI   H2X19872   4.662   4.288   6.808  0.0807  0.4202 -0.5697
  175SAPI   H2Y19873   4.742   4.143   6.726 -0.5390 -1.1661  0.4495
  175SAPI   C2319874   4.229   3.658   7.034  0.3153  0.4118  0.9365
  175SAPI   H3R19875   4.325   3.711   7.043  2.4596 -3.1486  0.0959
  175SAPI   H3S19876   4.263   3.552   7.037  0.6208  0.4754 -0.0858
  175SAPI   C2419877   4.146   3.676   7.161 -0.2604  0.0573 -0.3761
  175SAPI   H4R19878   4.104   3.779   7.169  1.8641  1.1501 -2.5372
  175SAPI   H4S19879   4.214   3.660   7.248 -1.3740 -0.8071  0.3438
  175SAPI   C2519880   4.031   3.582   7.183 -0.1581  0.4350 -0.6793
  175SAPI   H5R19881   4.019   3.504   7.107 -0.4351  1.4025 -1.6562
  175SAPI   C2619882   3.974   3.555   7.296 -0.3020 -0.4755  0.4388
  175SAPI   H6R19883   3.876   3.507   7.303 -0.6092  0.3786  2.2446
  175SAPI   C2719884   4.008   3.619   7.426 -0.5863  0.3368 -0.3794
  175SAPI   H7R19885   3.912   3.651   7.472 -0.2122  1.3404 -0.2856
  175SAPI   H7S19886   4.063   3.715   7.412 -1.6714  1.1182  0.5906
  175SAPI   C2819887   4.082   3.520   7.512  0.1100 -0.3269 -0.4730
  175SAPI   H8R19888   4.168   3.471   7.465  0.6843 -0.7706  0.9880
  175SAPI   C2919889   4.046   3.474   7.636 -0.2967 -0.8730  0.9364
  175SAPI   H9R19890   4.104   3.385   7.665  2.2506  1.2390  2.5281
  175SAPI  C21019891   3.925   3.516   7.719 -0.5605  0.7908 -0.0377
  175SAPI  H10R19892   3.825   3.497   7.674 -1.7233 -0.5138  2.8987
  175SAPI  H10S19893   3.931   3.627   7.728 -1.3217  0.6600  2.6717
  175SAPI  C21119894   3.932   3.456   7.858  0.8838 -0.7719  0.0046
  175SAPI  H11R19895   3.962   3.528   7.935  0.5425 -2.4998  1.7670
  175SAPI  C21219896   3.892   3.334   7.896 -0.0507 -0.1824  0.1795
  175SAPI  H12R19897   3.916   3.304   7.999  0.3907 -1.7368 -0.3647
  175SAPI  C21319898   3.836   3.225   7.805  0.3390  0.2584 -0.0160
  175SAPI  H13R19899   3.826   3.258   7.699 -4.1180  1.6538  0.7353
  175SAPI  H13S19900   3.732   3.204   7.838  0.2430  0.5797 -0.1071
  175SAPI  C21419901   3.928   3.105   7.808 -0.1478 -0.7054 -1.1309
  175SAPI  H14R19902   3.996   3.101   7.894 -0.3009 -1.6081 -1.0398
  175SAPI  C21519903   3.924   3.003   7.726  0.4960  0.4040  0.1245
  175SAPI  H15R19904   4.003   2.928   7.743  0.6662  1.5262  4.7994
  175SAPI  C21619905   3.826   2.987   7.608 -0.0330 -0.8389 -0.1277
  175SAPI  H16R19906   3.875   2.944   7.518  0.9925 -0.6864  0.3475
  175SAPI  H16S19907   3.790   3.085   7.568 -1.0128 -0.9926  0.3720
  175SAPI  C21719908   3.703   2.908   7.648 -0.1208 -0.1218 -0.6002
  175SAPI  H17R19909   3.666   2.952   7.742  0.5673  0.4544 -0.5996
  175SAPI  H17S19910   3.716   2.798   7.663  0.3797  0.0031 -0.1340
  175SAPI  C21819911   3.590   2.915   7.540  0.5611 -0.1365  0.3352
  175SAPI  H18R19912   3.616   2.842   7.460  2.2461  0.3350  0.4184
  175SAPI  H18S19913   3.581   3.011   7.487  0.6653 -0.1658  0.2636
  175SAPI  C21919914   3.453   2.869   7.582 -0.6095  0.0354  0.2561
  175SAPI  H19R19915   3.423   2.935   7.666  0.8003  1.7861 -0.5759
  175SAPI  H19S19916   3.464   2.762   7.609 -0.4105  0.6942  2.8443
  175SAPI  C22019917   3.363   2.879   7.466  0.0490  0.4429  0.2783
  175SAPI  H20R19918   3.354   2.977   7.414  0.1063  0.2376 -0.1238
  175SAPI  H20S19919   3.259   2.866   7.503  0.1076  1.2477  0.7317
  175SAPI  H20T19920   3.374   2.792   7.398 -1.9099  0.3950 -0.0073
  175SAPI   C3319921   4.687   4.104   6.931  0.8647 -0.4359  0.3066
  175SAPI   H3X19922   4.698   3.996   6.907 -0.7684 -0.8935  1.5743
  175SAPI   H3Y19923   4.598   4.111   6.997  1.7270 -0.9990  1.5569
  175SAPI   C3419924   4.811   4.151   7.016 -0.5257  0.6651 -0.3637
  175SAPI   H4X19925   4.801   4.257   7.047 -3.7630  1.2739 -3.1175
  175SAPI   H4Y19926   4.894   4.145   6.943 -0.3192 -0.2129 -0.0601
  175SAPI   C3519927   4.838   4.060   7.130  0.0558 -0.3115 -0.4591
  175SAPI   H5X19928   4.926   4.104   7.182  0.6093  0.8843 -2.3304
  175SAPI   H5Y19929   4.869   3.959   7.096  0.5456 -0.6305  0.9093
  175SAPI   C3619930   4.717   4.046   7.227  0.6998 -0.0537 -0.8773
  175SAPI   H6X19931   4.629   3.997   7.179 -0.3725  0.9209  0.0749
  175SAPI   H6Y19932   4.696   4.153   7.250  2.3372 -0.2673  1.6946
  175SAPI   C3719933   4.752   3.974   7.356  0.1579 -0.2117 -0.2053
  175SAPI   H7X19934   4.853   4.007   7.389 -0.0335  0.2775 -0.1033
  175SAPI   H7Y19935   4.769   3.865   7.341  1.8404 -0.0201  0.1477
  175SAPI   C3819936   4.647   3.997   7.466  0.0007 -0.4474  0.6672
  175SAPI   H8X19937   4.556   3.947   7.425  0.9528 -2.3801  0.8228
  175SAPI   H8Y19938   4.622   4.105   7.462 -0.6889 -0.5512  1.9204
  175SAPI   C3919939   4.698   3.931   7.596 -0.0416  0.4219  0.8315
  175SAPI   H9X19940   4.794   3.978   7.625 -0.1276  0.7366  0.6086
  175SAPI   H9Y19941   4.714   3.822   7.584 -1.5060  0.2504  0.2728
  175SAPI  C31019942   4.609   3.954   7.714  0.2704 -0.7919  0.1053
  175SAPI  H10X19943   4.504   3.926   7.694  0.7724 -2.5588 -0.1088
  175SAPI  H10Y19944   4.604   4.063   7.736 -2.2829 -1.1736  1.5583
  175SAPI  C31119945   4.667   3.889   7.840  0.3639 -0.3205 -0.3076
  175SAPI  H11X19946   4.772   3.923   7.844  0.7889 -1.5686 -0.6611
  175SAPI  H11Y19947   4.676   3.780   7.819  2.4289 -0.3656  0.7374
  175SAPI  C31219948   4.573   3.925   7.958  0.6214  0.2883  0.6886
  175SAPI  H12X19949   4.589   3.840   8.028  0.9860 -0.4523 -0.2724
  175SAPI  H12Y19950   4.466   3.914   7.930 -0.0418 -0.8581  3.4837
  175SAPI  C31319951   4.609   4.066   8.011 -0.4395 -1.0457  0.3370
  175SAPI  H13X19952   4.587   4.147   7.939 -2.4087 -0.4339  1.5883
  175SAPI  H13Y19953   4.718   4.077   8.031 -0.1100 -2.3995 -0.6068
  175SAPI  C31419954   4.533   4.112   8.143 -0.0157  0.0220 -0.9812
  175SAPI  H14X19955   4.424   4.113   8.118  0.0939  0.4061 -1.4577
  175SAPI  H14Y19956   4.564   4.218   8.142  0.8254 -0.1794 -4.2005
  175SAPI  C31519957   4.545   4.021   8.267  0.2524  0.0365 -0.7095
  175SAPI  H15X19958   4.652   3.993   8.270  0.8059  2.1608  0.8202
  175SAPI  H15Y19959   4.481   3.931   8.254  0.3417  0.1205 -1.7092
  175SAPI  C31619960   4.513   4.071   8.403  0.3306 -0.2505  0.5751
  175SAPI  H16X19961   4.578   4.158   8.428 -0.2233  0.5170 -0.5780
  175SAPI  H16Y19962   4.521   3.979   8.464  2.3582  0.3416  1.2411
  175SAPI  C31719963   4.369   4.128   8.403 -0.6652 -0.2055 -0.1406
  175SAPI  H17X19964   4.307   4.058   8.342 -1.1625  1.8392 -2.0513
  175SAPI  H17Y19965   4.371   4.221   8.343 -1.1794  0.3320  0.6766
  175SAPI  C31819966   4.315   4.162   8.534 -0.0188 -0.2221 -0.1923
  175SAPI  H18X19967   4.384   4.230   8.588 -0.7757  0.3342  0.0859
  175SAPI  H18Y19968   4.308   4.078   8.607  1.5182 -0.6828 -0.5615
  175SAPI  H18Z19969   4.222   4.221   8.524 -0.0918 -0.3772 -0.4306
  176SAPI   C1219970   2.935   2.176   6.616 -0.1695  0.2619 -1.0812
  176SAPI    H219971   2.943   2.105   6.701  0.6199  3.4939  1.6496
  176SAPI    O219972   2.944   2.096   6.492 -0.0851 -0.1240  0.2390
  176SAPI   HO219973   3.032   2.072   6.461 -0.0346 -0.6538  0.7925
  176SAPI   C1319974   2.810   2.265   6.623  0.2973  0.9780  0.0029
  176SAPI    H319975   2.802   2.329   6.713  0.9605  0.2760  0.5578
  176SAPI    O319976   2.690   2.190   6.619  0.6125  0.5279  0.6691
  176SAPI   HO319977   2.627   2.232   6.561  0.9046 -0.4085 -0.3576
  176SAPI   C1419978   2.816   2.359   6.502 -0.8521 -0.0939 -0.8838
  176SAPI    H419979   2.821   2.297   6.410 -1.8697 -0.8484 -0.4543
  176SAPI    O419980   2.699   2.439   6.497  0.0127 -0.2175  0.2590
  176SAPI   HO419981   2.647   2.411   6.421  3.1446  0.0406 -2.0817
  176SAPI   C1519982   2.932   2.448   6.513  0.6579 -0.6211  0.7856
  176SAPI    H519983   2.923   2.495   6.613 -0.1878 -1.7160  1.2433
  176SAPI    O519984   2.936   2.557   6.412 -0.0025  0.1885 -0.0314
  176SAPI   HO519985   2.984   2.631   6.448  1.5956 -1.1693  0.6748
  176SAPI   C1619986   3.057   2.360   6.510 -0.0005 -0.0182  0.4242
  176SAPI    H619987   3.077   2.305   6.415  1.0052  0.6748  0.2300
  176SAPI    O619988   3.168   2.449   6.521  0.0880 -0.2218  0.5576
  176SAPI   HO619989   3.215   2.418   6.599  1.8568  1.2918  0.1243
  176SAPI   C1119990   3.059   2.267   6.627 -0.3016 -0.0931  0.4012
  176SAPI    H119991   3.045   2.327   6.720 -0.2608 -1.7570  1.4938
  176SAPI     P19992   3.302   2.230   6.734 -0.0604 -0.1766  0.0103
  176SAPI   O1319993   3.298   2.381   6.747  0.1442  0.1114 -0.0812
  176SAPI   O1419994   3.432   2.172   6.683 -0.3431 -0.0454  0.2857
  176SAPI   O1219995   3.174   2.178   6.633 -0.5813  0.3663  0.3388
  176SAPI   O1119996   3.256   2.153   6.865  0.7538  0.4040  0.0030
  176SAPI    C119997   3.224   2.008   6.866 -0.3109  0.3917 -0.6325
  176SAPI    HA19998   3.137   2.000   6.934  2.0241 -1.5660  2.2536
  176SAPI    HB19999   3.187   1.968   6.769 -0.1866 -2.1960  0.3418
  176SAPI    C220000   3.344   1.926   6.923  0.3504 -0.4136  0.1212
  176SAPI    HS20001   3.416   1.915   6.840 -1.2535  3.8300 -1.9505
  176SAPI   O2120002   3.298   1.806   6.984 -0.4663 -0.4281 -0.2782
  176SAPI   C2120003   3.395   1.713   6.999 -0.4769  0.4392 -0.1534
  176SAPI   O2220004   3.504   1.718   6.941  0.0611  0.4528  0.1883
  176SAPI   C2220005   3.338   1.596   7.082  0.0017  0.1595 -0.0174
  176SAPI   H2R20006   3.329   1.630   7.187  1.8267 -1.3506  0.6576
  176SAPI   H2S20007   3.232   1.569   7.066  0.3361 -3.1773  2.8525
  176SAPI    C320008   3.399   2.017   7.039  0.4162  0.1459  0.2759
  176SAPI    HX20009   3.316   2.051   7.105  0.2085  1.5698 -0.7070
  176SAPI    HY20010   3.431   2.113   6.994 -0.4197 -0.0309 -0.7145
  176SAPI   O3120011   3.496   1.951   7.119  0.7585  0.0290 -0.0856
  176SAPI   C3120012   3.593   2.031   7.168  0.2551 -0.5438  0.8448
  176SAPI   O3220013   3.595   2.147   7.148 -0.5358 -0.1510  0.1808
  176SAPI   C3220014   3.686   1.963   7.273  0.5503  0.0697 -0.0238
  176SAPI   H2X20015   3.692   2.042   7.351 -2.1688  1.1801 -0.8533
  176SAPI   H2Y20016   3.785   1.942   7.228  0.9644  1.8266  0.0074
  176SAPI   C2320017   3.433   1.477   7.086 -0.1263  0.3625  0.3442
  176SAPI   H3R20018   3.447   1.454   6.979 -0.0978  0.1515  0.3936
  176SAPI   H3S20019   3.393   1.386   7.136  0.1556  0.4432  0.7219
  176SAPI   C2420020   3.559   1.502   7.165 -0.4567  0.6912 -0.6546
  176SAPI   H4R20021   3.530   1.539   7.265 -0.2228 -1.9571  0.4250
  176SAPI   H4S20022   3.612   1.587   7.115  0.0298  0.1183 -1.1205
  176SAPI   C2520023   3.646   1.384   7.187 -0.0675  0.4763  0.1259
  176SAPI   H5R20024   3.695   1.358   7.092 -1.0937 -0.8994 -0.0459
  176SAPI   C2620025   3.678   1.328   7.301  0.2905  0.8946 -1.1235
  176SAPI   H6R20026   3.752   1.246   7.300 -0.4439  0.1280  1.9277
  176SAPI   C2720027   3.629   1.358   7.446 -0.0631 -0.5132  0.1764
  176SAPI   H7R20028   3.584   1.272   7.500 -3.1067 -0.9987 -2.9863
  176SAPI   H7S20029   3.563   1.447   7.438  2.6128  1.4860 -0.6140
  176SAPI   C2820030   3.755   1.402   7.520  0.3395 -0.3919 -0.3508
  176SAPI   H8R20031   3.817   1.476   7.468 -1.3501  1.0990 -0.3104
  176SAPI   C2920032   3.796   1.358   7.636 -0.0158 -0.8088  0.6825
  176SAPI   H9R20033   3.891   1.398   7.673  1.0231 -1.9854 -0.6453
  176SAPI  C21020034   3.733   1.257   7.724  0.9384  0.5634 -0.1917
  176SAPI  H10R20035   3.679   1.193   7.651 -0.6957  0.1992  1.3129
  176SAPI  H10S20036   3.649   1.286   7.791 -1.6941 -2.7886 -1.8400
  176SAPI  C21120037   3.830   1.190   7.810  0.4549 -0.2708 -0.3466
  176SAPI  H11R20038   3.889   1.109   7.763 -0.5292 -1.8681  1.1216
  176SAPI  C21220039   3.875   1.233   7.934 -0.9358  0.5498  0.1625
  176SAPI  H12R20040   3.956   1.175   7.981  0.7412  1.8240 -1.0841
  176SAPI  C21320041   3.833   1.344   8.020 -0.6661 -0.1462  0.0045
  176SAPI  H13R20042   3.750   1.307   8.083 -0.8123 -1.0050 -0.6847
  176SAPI  H13S20043   3.798   1.429   7.957  2.1233 -0.4285 -2.0369
  176SAPI  C21420044   3.954   1.391   8.097  0.1955  0.0244  0.2267
  176SAPI  H14R20045   4.020   1.462   8.046  1.4684 -1.3862 -0.1354
  176SAPI  C21520046   3.980   1.369   8.227  0.0105  0.2253 -0.0763
  176SAPI  H15R20047   4.062   1.429   8.269  0.2287 -0.4765  0.5018
  176SAPI  C21620048   3.903   1.294   8.324  0.2737 -0.5088 -1.1350
  176SAPI  H16R20049   3.858   1.206   8.272 -0.6322  0.4423 -2.0070
  176SAPI  H16S20050   3.812   1.347   8.359  0.8346 -1.0706  1.2363
  176SAPI  C21720051   3.974   1.250   8.457 -0.2055  1.0124  0.1998
  176SAPI  H17R20052   4.084   1.263   8.444 -0.1978 -1.0913 -2.3269
  176SAPI  H17S20053   3.968   1.139   8.461 -1.2328  1.0853  0.8471
  176SAPI  C21820054   3.942   1.331   8.584  0.2600 -0.0895  0.0823
  176SAPI  H18R20055   3.833   1.349   8.598  0.6310  0.8775  1.7941
  176SAPI  H18S20056   3.988   1.428   8.555 -0.4021 -0.5524 -2.6128
  176SAPI  C21920057   4.006   1.277   8.708  0.0598  0.3555 -0.0190
  176SAPI  H19R20058   3.974   1.348   8.788  1.4870  1.2978 -0.2633
  176SAPI  H19S20059   4.115   1.291   8.693 -0.1253 -0.2760 -2.1460
  176SAPI  C22020060   3.987   1.130   8.755  0.1777  0.3852  0.4077
  176SAPI  H20R20061   4.041   1.108   8.849  1.9919  2.3073 -0.1466
  176SAPI  H20S20062   4.031   1.066   8.675 -0.9622  0.8951 -0.6503
  176SAPI  H20T20063   3.880   1.101   8.756  0.6507 -1.3480  1.0701
  176SAPI   C3320064   3.627   1.832   7.324 -0.7386  0.3733 -0.6543
  176SAPI   H3X20065   3.627   1.761   7.239 -2.1275  0.8123 -1.0243
  176SAPI   H3Y20066   3.525   1.849   7.364 -1.7970 -2.6454 -1.9301
  176SAPI   C3420067   3.701   1.755   7.428 -0.0140 -0.4531  0.2308
  176SAPI   H4X20068   3.789   1.706   7.381 -0.7560 -1.1741 -0.4063
  176SAPI   H4Y20069   3.652   1.663   7.465 -0.3859 -0.6175 -0.6661
  176SAPI   C3520070   3.735   1.856   7.541 -0.1554 -0.8599 -0.0553
  176SAPI   H5X20071   3.648   1.924   7.550  0.3620  0.5686 -4.4941
  176SAPI   H5Y20072   3.816   1.929   7.516 -0.0746 -0.1737  2.0948
  176SAPI   C3620073   3.745   1.799   7.678  0.1224  0.1521 -0.6701
  176SAPI   H6X20074   3.784   1.865   7.758  2.3991 -0.2483 -1.4082
  176SAPI   H6Y20075   3.822   1.719   7.674  0.3943  0.4085 -0.5552
  176SAPI   C3720076   3.610   1.747   7.726  0.2014 -0.1932 -0.5981
  176SAPI   H7X20077   3.567   1.672   7.656 -1.1219 -0.5409  0.5778
  176SAPI   H7Y20078   3.541   1.832   7.743 -0.8978 -1.2835  0.4926
  176SAPI   C3820079   3.617   1.680   7.865  0.8602 -0.5267  0.4943
  176SAPI   H8X20080   3.686   1.740   7.929  1.7744 -2.5997  1.5153
  176SAPI   H8Y20081   3.661   1.579   7.849  1.6891 -0.1512  0.3586
  176SAPI   C3920082   3.475   1.651   7.927 -0.4207 -0.8392 -0.2632
  176SAPI   H9X20083   3.412   1.603   7.849  0.0799 -1.5381 -0.2351
  176SAPI   H9Y20084   3.432   1.753   7.943 -1.6882 -1.5892  1.3253
  176SAPI  C31020085   3.475   1.585   8.060  0.7080  0.2237  0.6625
  176SAPI  H10X20086   3.553   1.643   8.113  1.8410 -1.1678  0.5410
  176SAPI  H10Y20087   3.518   1.484   8.043 -1.3781 -0.7621  1.0395
  176SAPI  C31120088   3.349   1.582   8.139 -0.2529 -0.0916 -0.7247
  176SAPI  H11X20089   3.267   1.529   8.086  0.6893 -1.1919 -1.1050
  176SAPI  H11Y20090   3.316   1.688   8.150  0.0080  0.1391 -2.0498
  176SAPI  C31220091   3.370   1.538   8.285 -0.5913  0.2794  0.5092
  176SAPI  H12X20092   3.432   1.617   8.333 -0.9815 -1.4924  4.0714
  176SAPI  H12Y20093   3.436   1.449   8.278  0.8490  1.0203  3.5225
  176SAPI  C31320094   3.245   1.506   8.362 -0.0938 -0.4598  0.4407
  176SAPI  H13X20095   3.169   1.445   8.307 -1.3406  0.2615  1.3411
  176SAPI  H13Y20096   3.196   1.602   8.386 -0.9926 -1.2147  1.6707
  176SAPI  C31420097   3.275   1.431   8.491 -0.4884 -0.9700 -0.1318
  176SAPI  H14X20098   3.203   1.475   8.564  1.3847  0.5296  0.8665
  176SAPI  H14Y20099   3.375   1.474   8.514 -1.4150  1.5106 -0.5433
  176SAPI  C31520100   3.255   1.281   8.473  0.4768 -0.2137  0.2645
  176SAPI  H15X20101   3.330   1.226   8.412  0.9862  0.2710  0.4482
  176SAPI  H15Y20102   3.157   1.276   8.420  0.1936  0.5061  0.7199
  176SAPI  C31620103   3.256   1.211   8.608  0.6696 -0.0203 -0.0486
  176SAPI  H16X20104   3.178   1.257   8.673  0.5669  0.5824 -0.5934
  176SAPI  H16Y20105   3.354   1.213   8.659  1.1985 -0.0293 -1.0513
  176SAPI  C31720106   3.245   1.056   8.602  0.1876 -0.2897  0.5283
  176SAPI  H17X20107   3.329   1.015   8.542  1.2707  1.5654  0.7487
  176SAPI  H17Y20108   3.151   1.036   8.546 -0.4511 -0.7146  1.7342
  176SAPI  C31820109   3.237   0.986   8.732 -0.2231  0.0786 -0.2209
  176SAPI  H18X20110   3.326   0.996   8.799 -1.0435  3.5755  0.4658
  176SAPI  H18Y20111   3.224   0.878   8.710 -0.1188 -0.1410  0.7726
  176SAPI  H18Z20112   3.144   1.014   8.787 -1.2381  0.6600 -2.1736
  177SLPC     N20113   3.788   5.467  10.969  0.5361  0.2056 -0.0397
  177SLPC   C1320114   3.827   5.350  11.060  0.0882 -0.9846  0.1405
  177SLPC  H13A20115   3.843   5.267  10.993  1.2211 -1.2098  0.6632
  177SLPC  H13B20116   3.912   5.378  11.121  0.3593 -1.4044 -0.0361
  177SLPC  H13C20117   3.746   5.331  11.129 -2.2519 -0.6660 -2.4265
  177SLPC   C1420118   3.906   5.510  10.890  0.5145  0.1611  0.1857
  177SLPC  H14A20119   3.968   5.428  10.857 -0.4096  0.6264 -2.9358
  177SLPC  H14B20120   3.889   5.568  10.800  0.1931 -0.4267 -0.1391
  177SLPC  H14C20121   3.962   5.575  10.955  1.0848 -0.0229 -0.1147
  177SLPC   C1520122   3.747   5.586  11.049  0.1718 -0.0248 -0.2271
  177SLPC  H15A20123   3.763   5.682  11.001  0.4894 -0.0247 -0.1236
  177SLPC  H15B20124   3.642   5.579  11.075  0.0959 -0.3263 -0.6059
  177SLPC  H15C20125   3.802   5.604  11.139  1.2613  3.3010 -1.4787
  177SLPC   C1220126   3.676   5.424  10.875 -0.2139 -0.0186 -0.1283
  177SLPC  H12A20127   3.653   5.512  10.818  1.5606  1.0945  0.8292
  177SLPC  H12B20128   3.587   5.397  10.930 -0.4121  0.9196  0.0060
  177SLPC   C1120129   3.710   5.307  10.778 -0.2809 -0.2707  0.5062
  177SLPC  H11A20130   3.811   5.326  10.738 -0.2249  1.7610  1.5034
  177SLPC  H11B20131   3.636   5.325  10.697  1.2299 -1.3556 -1.1499
  177SLPC     P20132   3.563   5.119  10.878  0.3660 -0.1850 -0.0132
  177SLPC   O1320133   3.582   4.983  10.933 -0.4297 -0.1636 -0.5657
  177SLPC   O1420134   3.482   5.213  10.959  0.0304 -0.0019 -0.8629
  177SLPC   O1220135   3.699   5.178  10.834  0.1294  0.3007 -0.6211
  177SLPC   O1120136   3.482   5.096  10.737 -0.4584 -0.1414  0.3142
  177SLPC    C120137   3.535   5.005  10.638 -0.2971 -0.4450  0.0032
  177SLPC    HA20138   3.645   4.991  10.648 -0.1994 -0.1773 -0.7392
  177SLPC    HB20139   3.491   4.904  10.654 -1.3463 -0.0050 -0.0523
  177SLPC    C220140   3.494   5.062  10.501  0.1894  0.5074 -0.1070
  177SLPC    HS20141   3.521   4.987  10.423  1.1326  0.2227  0.4886
  177SLPC   O2120142   3.551   5.188  10.468 -0.8655  0.2698 -0.2467
  177SLPC   C2120143   3.680   5.180  10.435  0.4155 -0.7761  0.4997
  177SLPC   O2220144   3.745   5.077  10.430 -0.2638  0.0968  0.2243
  177SLPC   C2220145   3.743   5.320  10.424  0.1669 -0.8530  0.4390
  177SLPC   H2R20146   3.667   5.399  10.438  1.3867  0.1533  1.5197
  177SLPC   H2S20147   3.822   5.322  10.503 -0.3527  0.6040  0.9349
  177SLPC    C320148   3.344   5.075  10.492 -0.4352  0.4858 -0.6342
  177SLPC    HX20149   3.316   5.157  10.562  1.9753 -2.7040  4.3876
  177SLPC    HY20150   3.296   4.984  10.533  1.6978 -0.1921  0.4530
  177SLPC   O3120151   3.301   5.082  10.357 -0.2843 -0.0598 -0.0592
  177SLPC   C3120152   3.298   5.200  10.295  1.0265 -1.1309  0.4111
  177SLPC   O3220153   3.299   5.305  10.352  0.0112  0.8347  0.2428
  177SLPC   C3220154   3.286   5.178  10.145 -0.1167  0.5385  0.2834
  177SLPC   H2X20155   3.194   5.118  10.125  1.1290 -1.8343  1.4655
  177SLPC   H2Y20156   3.369   5.106  10.128  1.9089  2.4742  1.6544
  177SLPC   C2320157   3.812   5.332  10.287  0.4492  0.0479 -0.3919
  177SLPC   H3R20158   3.876   5.242  10.273 -2.4211 -2.0182 -0.5501
  177SLPC   H3S20159   3.874   5.424  10.289  0.2626  0.1738 -0.4124
  177SLPC   C2420160   3.718   5.344  10.168  0.0402  0.1241 -0.6741
  177SLPC   H4R20161   3.643   5.422  10.194 -0.9626 -1.0675  0.0365
  177SLPC   H4S20162   3.672   5.244  10.161  0.3058 -0.0325 -0.1725
  177SLPC   C2520163   3.794   5.381  10.041 -0.0250 -0.0680 -0.6800
  177SLPC   H5R20164   3.888   5.324  10.031  0.4273  0.6499 -0.5591
  177SLPC   H5S20165   3.815   5.490  10.052  0.4349 -0.4201  2.3702
  177SLPC   C2620166   3.709   5.357   9.914 -0.0935  0.3530 -0.0464
  177SLPC   H6R20167   3.638   5.274   9.934  1.4734 -1.6508 -2.5778
  177SLPC   H6S20168   3.777   5.314   9.837 -0.0975  1.9172 -0.9509
  177SLPC   C2720169   3.636   5.470   9.858  0.6346 -0.9438  0.1595
  177SLPC   H7R20170   3.594   5.538   9.936  0.4413 -1.6666  0.6956
  177SLPC   H7S20171   3.562   5.419   9.793 -0.1267 -1.6242  1.5291
  177SLPC   C2820172   3.723   5.561   9.766 -0.0879 -0.0629  0.1742
  177SLPC   H8R20173   3.768   5.504   9.682  1.2310 -0.4576  1.1185
  177SLPC   H8S20174   3.815   5.595   9.819 -0.4789  1.3994 -0.0727
  177SLPC   C2920175   3.646   5.679   9.704  0.0590  0.8059  0.0388
  177SLPC   H9R20176   3.656   5.768   9.768 -0.8627 -0.5353  2.1014
  177SLPC  C21020177   3.582   5.687   9.587 -0.7542  0.6535  0.3758
  177SLPC  H10R20178   3.518   5.774   9.569  0.8424  1.8688  0.4337
  177SLPC  C21120179   3.563   5.581   9.489 -0.3684 -0.5791 -0.4949
  177SLPC  H11R20180   3.576   5.481   9.537  2.2205  0.0117  0.1383
  177SLPC  H11S20181   3.455   5.586   9.464 -0.1691  0.2892 -1.1937
  177SLPC  C21220182   3.651   5.573   9.371  0.5898 -0.0221  0.1998
  177SLPC  H12R20183   3.754   5.538   9.386  0.2502 -1.7991 -1.4845
  177SLPC  C21320184   3.606   5.611   9.247 -1.1456 -0.4497  0.0833
  177SLPC  H13R20185   3.678   5.585   9.168 -1.1264 -0.4526  0.1020
  177SLPC  C21420186   3.472   5.661   9.209  0.1515  0.9025  0.3335
  177SLPC  H14R20187   3.430   5.725   9.291 -1.1137  1.6502 -0.8694
  177SLPC  H14S20188   3.395   5.581   9.208  2.3153 -1.1967 -0.3298
  177SLPC  C21520189   3.469   5.753   9.083 -0.1216  0.3527  0.5845
  177SLPC  H15R20190   3.554   5.823   9.094 -0.1262  0.5282 -0.3840
  177SLPC  H15S20191   3.367   5.796   9.071  0.0504  0.6760  0.2749
  177SLPC  C21620192   3.488   5.682   8.949 -0.0085  0.3472 -0.0443
  177SLPC  H16R20193   3.404   5.612   8.929  1.0438 -0.9347 -0.0102
  177SLPC  H16S20194   3.583   5.626   8.954  1.0217  2.1014  0.5822
  177SLPC  C21720195   3.477   5.783   8.836 -0.3239 -0.1513 -0.1120
  177SLPC  H17R20196   3.493   5.736   8.736 -0.6266  0.4591 -0.4443
  177SLPC  H17S20197   3.559   5.856   8.856  0.6534 -0.3174 -3.2687
  177SLPC  C21820198   3.347   5.865   8.822 -0.0380  0.1393 -0.2080
  177SLPC  H18R20199   3.348   5.952   8.890 -0.5508  0.9414 -1.2113
  177SLPC  H18S20200   3.256   5.805   8.843 -0.2483 -0.2504 -2.1357
  177SLPC  H18T20201   3.347   5.913   8.722  1.8631 -0.8845 -0.7173
  177SLPC   C3320202   3.285   5.314  10.071  0.6532 -0.4723 -0.1840
  177SLPC   H3X20203   3.379   5.370  10.091 -0.6149  1.8631 -0.5837
  177SLPC   H3Y20204   3.198   5.371  10.109 -0.4711 -3.1502  1.4191
  177SLPC   C3420205   3.251   5.275   9.922 -0.0080 -0.2687  0.4430
  177SLPC   H4X20206   3.162   5.208   9.912  0.1195 -0.4113  0.2685
  177SLPC   H4Y20207   3.340   5.224   9.880  1.9475  2.2496  1.4326
  177SLPC   C3520208   3.240   5.402   9.831 -0.3846 -0.7281  0.3340
  177SLPC   H5X20209   3.335   5.456   9.847 -0.5765 -0.2945  0.0134
  177SLPC   H5Y20210   3.156   5.472   9.853 -0.1559 -0.6848  1.0844
  177SLPC   C3620211   3.224   5.353   9.689  0.0078 -0.3448 -0.2773
  177SLPC   H6X20212   3.148   5.272   9.681  1.0125 -1.0159 -3.5072
  177SLPC   H6Y20213   3.318   5.296   9.673  0.0339 -0.2783 -0.3580
  177SLPC   C3720214   3.207   5.466   9.585  0.4397 -0.1681 -0.8667
  177SLPC   H7X20215   3.294   5.535   9.582 -0.4859  0.9577 -1.9369
  177SLPC   H7Y20216   3.116   5.520   9.619 -2.2960 -2.3626 -4.2716
  177SLPC   C3820217   3.173   5.423   9.438  0.1369 -0.4433  0.3165
  177SLPC   H8X20218   3.095   5.345   9.458  0.3872  0.1866  4.1569
  177SLPC   H8Y20219   3.261   5.368   9.400  0.6218  0.1784  0.5409
  177SLPC   C3920220   3.138   5.529   9.336 -0.7247  0.2720 -0.4274
  177SLPC   H9X20221   3.225   5.598   9.338 -0.9661  0.5438  1.6899
  177SLPC   H9Y20222   3.052   5.593   9.366 -0.8726  0.8620 -2.0294
  177SLPC  C31020223   3.099   5.478   9.203 -0.0089 -0.6571  0.3548
  177SLPC  H10X20224   3.014   5.406   9.208  0.4521 -1.1680  0.8509
  177SLPC  H10Y20225   3.181   5.423   9.154 -0.4049 -0.9221 -0.0166
  177SLPC  C31120226   3.056   5.592   9.100 -0.0819  0.0632  0.3306
  177SLPC  H11X20227   3.130   5.675   9.102 -0.9845  0.8627  1.2439
  177SLPC  H11Y20228   2.963   5.630   9.147  0.2985  0.5691  0.6805
  177SLPC  C31220229   3.014   5.534   8.967  0.9562  0.1285 -0.2593
  177SLPC  H12X20230   3.078   5.447   8.938 -1.6426 -2.0947  0.5260
  177SLPC  H12Y20231   3.007   5.616   8.892  1.2649  1.9862  1.6771
  177SLPC  C31320232   2.875   5.477   8.978  0.3265  0.0394  0.0516
  177SLPC  H13X20233   2.801   5.550   9.017  0.5242  0.2652  0.0043
  177SLPC  H13Y20234   2.874   5.398   9.056 -0.9066  0.0147  0.0226
  177SLPC  C31420235   2.842   5.415   8.845 -0.3762 -0.5597 -0.6539
  177SLPC  H14X20236   2.915   5.332   8.835  0.5429  0.1580 -0.0556
  177SLPC  H14Y20237   2.852   5.488   8.762  0.4815  0.8074  0.6250
  177SLPC  C31520238   2.699   5.352   8.840 -0.4905 -0.2304  0.1591
  177SLPC  H15X20239   2.632   5.440   8.851  3.1836  2.9105 -1.4741
  177SLPC  H15Y20240   2.688   5.282   8.926 -2.2115 -0.4425 -0.2180
  177SLPC  C31620241   2.650   5.294   8.710 -0.1309 -0.2811 -0.0973
  177SLPC  H16X20242   2.710   5.203   8.690 -0.3919 -0.3477 -0.5873
  177SLPC  H16Y20243   2.669   5.369   8.630 -0.5976  2.8788  2.6445
  177SLPC  C31720244   2.499   5.264   8.715  0.3733 -0.1796  0.4852
  177SLPC  H17X20245   2.438   5.357   8.711 -1.1958 -1.1395  1.5488
  177SLPC  H17Y20246   2.450   5.214   8.801  0.4580 -1.2840 -0.1031
  177SLPC  C31820247   2.459   5.195   8.580 -0.2559 -0.3072  0.4198
  177SLPC  H18X20248   2.507   5.235   8.488 -1.7420 -1.4447 -0.8681
  177SLPC  H18Y20249   2.350   5.204   8.561 -0.3615 -1.2213  0.5916
  177SLPC  H18Z20250   2.481   5.089   8.605  0.8388 -0.5466 -1.4310
  178SLPC     N20251   5.767   0.577  10.761  0.2042  0.0153 -0.4416
  178SLPC   C1320252   5.677   0.636  10.666  0.3114  0.0492 -0.2969
  178SLPC  H13A20253   5.720   0.732  10.640 -2.6092  1.3163 -0.5740
  178SLPC  H13B20254   5.668   0.583  10.572 -1.1948  0.3008 -0.2931
  178SLPC  H13C20255   5.583   0.657  10.714  0.2956 -2.2141  0.7495
  178SLPC   C1420256   5.912   0.628  10.734  0.7887  0.1968 -0.7689
  178SLPC  H14A20257   5.964   0.645  10.827 -1.8278 -0.7108  0.9236
  178SLPC  H14B20258   5.961   0.549  10.679 -0.4730 -1.8801  0.9988
  178SLPC  H14C20259   5.901   0.726  10.689  1.6483  0.3518 -0.6467
  178SLPC   C1520260   5.766   0.428  10.751 -0.1396  0.0831 -0.4008
  178SLPC  H15A20261   5.666   0.390  10.768  0.3506 -0.4854  1.3540
  178SLPC  H15B20262   5.790   0.404  10.649 -0.5249  0.3553 -0.5574
  178SLPC  H15C20263   5.833   0.385  10.823  0.3701  1.4748 -0.0309
  178SLPC   C1220264   5.721   0.610  10.900 -1.0831  0.4729  0.3044
  178SLPC  H12A20265   5.617   0.581  10.908 -0.4831 -1.4613  1.2444
  178SLPC  H12B20266   5.720   0.717  10.911  0.6724  0.5655 -0.3127
  178SLPC   C1120267   5.800   0.550  11.016 -0.1559 -0.0585  0.1192
  178SLPC  H11A20268   5.786   0.622  11.100 -2.4512  1.5786 -1.5706
  178SLPC  H11B20269   5.909   0.561  10.999 -0.5437  1.5904 -1.4355
  178SLPC     P20270   5.604   0.405  11.090  0.1191 -0.1640 -0.3788
  178SLPC   O1320271   5.587   0.302  11.199 -0.2520  0.2048  0.0708
  178SLPC   O1420272   5.545   0.536  11.117  0.4151 -0.4057 -0.2738
  178SLPC   O1220273   5.762   0.420  11.066  0.4862  0.0099  0.6265
  178SLPC   O1120274   5.538   0.362  10.953 -0.7508  0.5631 -0.7692
  178SLPC    C120275   5.495   0.225  10.949  0.4430  0.4080 -0.2894
  178SLPC    HA20276   5.565   0.176  10.877  0.1602 -0.6314  0.1236
  178SLPC    HB20277   5.492   0.159  11.038  2.9584  1.7970  0.8656
  178SLPC    C220278   5.355   0.196  10.872 -0.3342 -0.2949 -0.9547
  178SLPC    HS20279   5.336   0.087  10.873  1.1198 -0.5813 -2.4519
  178SLPC   O2120280   5.351   0.249  10.735 -0.0575 -0.8392 -0.0465
  178SLPC   C2120281   5.413   0.169  10.647  0.0769  0.0498  0.3963
  178SLPC   O2220282   5.451   0.055  10.674  0.1104 -0.2928  0.3654
  178SLPC   C2220283   5.456   0.242  10.518  0.2933 -0.8146 -0.6496
  178SLPC   H2R20284   5.520   0.324  10.557  0.5926 -1.7348  0.8179
  178SLPC   H2S20285   5.511   0.174  10.449  0.2265 -0.4050 -1.1120
  178SLPC    C320286   5.234   0.259  10.960 -0.3690  0.2685  0.5727
  178SLPC    HX20287   5.266   0.365  10.966  0.6935 -0.0207  0.1746
  178SLPC    HY20288   5.239   0.210  11.059  1.9238  1.8637  1.2722
  178SLPC   O3120289   5.110   0.236  10.894  0.2665  0.0089 -0.0787
  178SLPC   C3120290   5.068   0.338  10.815  0.4177 -0.4925  0.0341
  178SLPC   O3220291   5.126   0.444  10.805  0.4216  0.7516  0.4073
  178SLPC   C3220292   4.950   0.283  10.723  0.3554  0.0303 -0.1531
  178SLPC   H2X20293   4.871   0.269  10.801  1.8316  0.7392  1.4988
  178SLPC   H2Y20294   4.982   0.180  10.696 -0.6029  0.0798 -1.5505
  178SLPC   C2320295   5.334   0.313  10.456 -0.2716 -0.3352 -0.5511
  178SLPC   H3R20296   5.275   0.373  10.528  1.2590 -1.1112  1.4024
  178SLPC   H3S20297   5.266   0.237  10.411 -0.0995 -0.6240 -0.3291
  178SLPC   C2420298   5.397   0.405  10.349  0.5478  0.3630  1.0399
  178SLPC   H4R20299   5.453   0.330  10.289  1.5090  0.9762  1.1645
  178SLPC   H4S20300   5.480   0.464  10.393  0.3131  1.9064 -0.5285
  178SLPC   C2520301   5.288   0.490  10.288  0.1192  0.4454 -0.1509
  178SLPC   H5R20302   5.246   0.559  10.364 -2.0341  2.1840 -2.8005
  178SLPC   H5S20303   5.207   0.418  10.261  0.0952  0.5807 -0.4320
  178SLPC   C2620304   5.330   0.566  10.163  0.9086 -0.3965 -0.3551
  178SLPC   H6R20305   5.431   0.610  10.177 -0.2824  3.3325 -2.9795
  178SLPC   H6S20306   5.257   0.648  10.145  1.7343  0.5253  0.4377
  178SLPC   C2720307   5.335   0.473  10.036  0.1149 -0.8256 -0.2664
  178SLPC   H7R20308   5.228   0.445  10.020 -0.6680  0.7251  1.9800
  178SLPC   H7S20309   5.397   0.382  10.054  0.0250 -0.8028  0.1571
  178SLPC   C2820310   5.372   0.539   9.906 -0.2217 -0.4575 -0.6435
  178SLPC   H8R20311   5.481   0.548   9.922 -0.6004 -0.8882  2.7326
  178SLPC   H8S20312   5.342   0.646   9.901 -0.7955 -0.4855  1.5833
  178SLPC   C2920313   5.336   0.460   9.781  0.0468  0.1512  0.2580
  178SLPC   H9R20314   5.246   0.397   9.795 -0.2990  0.2302 -1.5496
  178SLPC  C21020315   5.396   0.452   9.660  0.2310  0.3437 -0.4387
  178SLPC  H10R20316   5.356   0.383   9.585  2.2490 -0.2537 -1.0038
  178SLPC  C21120317   5.523   0.532   9.622  0.6093 -0.0551  0.6197
  178SLPC  H11R20318   5.585   0.457   9.570  1.3826  1.6822 -1.0066
  178SLPC  H11S20319   5.586   0.558   9.710  0.8219  3.2395 -0.4422
  178SLPC  C21220320   5.509   0.653   9.534  0.0598 -0.0157  0.5472
  178SLPC  H12R20321   5.502   0.750   9.584 -0.7144  1.1821 -1.8240
  178SLPC  C21320322   5.525   0.656   9.397 -0.1523 -0.3007 -0.0745
  178SLPC  H13R20323   5.498   0.752   9.351 -0.2826  0.2593  1.1396
  178SLPC  C21420324   5.541   0.530   9.313 -0.8646 -0.6402 -0.2674
  178SLPC  H14R20325   5.495   0.441   9.361 -0.8860 -1.7823 -2.3189
  178SLPC  H14S20326   5.650   0.507   9.305 -0.1076  2.0567  1.6704
  178SLPC  C21520327   5.477   0.538   9.173  0.4064 -0.2139  0.3334
  178SLPC  H15R20328   5.390   0.607   9.176  1.3007  1.0005 -0.8277
  178SLPC  H15S20329   5.448   0.436   9.141 -0.5855  0.1889 -0.0598
  178SLPC  C21620330   5.571   0.597   9.066  0.7213  0.3334  0.0935
  178SLPC  H16R20331   5.646   0.518   9.045  0.7032  0.4520 -0.4277
  178SLPC  H16S20332   5.612   0.693   9.105  1.3566  1.3302 -2.8460
  178SLPC  C21720333   5.500   0.628   8.932  0.2957  0.2532 -0.0241
  178SLPC  H17R20334   5.576   0.665   8.861  1.6979 -1.0807  0.7262
  178SLPC  H17S20335   5.425   0.708   8.951 -0.7270 -0.5076 -0.8024
  178SLPC  C21820336   5.427   0.506   8.862 -0.1279 -0.2475  0.5866
  178SLPC  H18R20337   5.359   0.460   8.937 -0.9353  0.5559  0.3548
  178SLPC  H18S20338   5.501   0.430   8.828 -0.8389 -1.2679  1.2962
  178SLPC  H18T20339   5.376   0.551   8.774 -0.3690 -1.4447  0.1050
  178SLPC   C3320340   4.905   0.390  10.629  0.7174  0.5051  0.3747
  178SLPC   H3X20341   4.994   0.432  10.578  0.5334 -0.6799 -0.9216
  178SLPC   H3Y20342   4.849   0.471  10.680 -0.0644  0.8179 -0.9619
  178SLPC   C3420343   4.794   0.344  10.527  0.5167 -0.2932 -0.3543
  178SLPC   H4X20344   4.715   0.296  10.588 -0.1558  0.4871 -0.6153
  178SLPC   H4Y20345   4.829   0.267  10.455  0.7268 -1.2652  0.7736
  178SLPC   C3520346   4.734   0.465  10.460 -0.2549  0.7559 -0.4694
  178SLPC   H5X20347   4.707   0.542  10.536 -0.3097 -0.1083  0.3935
  178SLPC   H5Y20348   4.633   0.448  10.416 -0.4140 -1.1664  0.5521
  178SLPC   C3620349   4.834   0.526  10.353 -0.3671  0.1319  0.4304
  178SLPC   H6X20350   4.920   0.552  10.417  0.1168 -0.1671 -0.0879
  178SLPC   H6Y20351   4.789   0.616  10.307  1.4135  0.4624 -0.7041
  178SLPC   C3720352   4.863   0.433  10.236  0.0123  0.4260 -0.1751
  178SLPC   H7X20353   4.765   0.395  10.198  0.5039  0.7582 -1.7708
  178SLPC   H7Y20354   4.929   0.353  10.276  0.5958  1.2586  0.5285
  178SLPC   C3820355   4.926   0.520  10.130  0.0308  0.2884  0.1803
  178SLPC   H8X20356   5.034   0.538  10.150 -0.2709  1.1711  1.0627
  178SLPC   H8Y20357   4.876   0.617  10.108 -0.3721 -0.6752 -3.3943
  178SLPC   C3920358   4.924   0.459   9.983 -0.6858  0.2763 -0.0324
  178SLPC   H9X20359   4.818   0.437   9.958 -0.9396  2.8511 -1.4166
  178SLPC   H9Y20360   4.979   0.363   9.977 -2.9540 -0.9857 -1.3030
  178SLPC  C31020361   4.970   0.561   9.885  0.4347  0.3246  0.4641
  178SLPC  H10X20362   5.081   0.569   9.895  0.8547 -3.8107 -0.1712
  178SLPC  H10Y20363   4.920   0.658   9.906 -1.0807 -0.3124 -0.1225
  178SLPC  C31120364   4.940   0.525   9.734  0.4395  0.6715 -0.1984
  178SLPC  H11X20365   4.833   0.502   9.716  0.2246 -0.3029  2.1166
  178SLPC  H11Y20366   4.993   0.429   9.718 -1.6059 -0.0440 -2.9543
  178SLPC  C31220367   4.994   0.618   9.623 -0.3237  0.1330 -0.6298
  178SLPC  H12X20368   5.100   0.627   9.657 -0.2608 -0.1605 -0.7444
  178SLPC  H12Y20369   4.939   0.714   9.624 -3.1692 -1.4712  0.6030
  178SLPC  C31320370   4.996   0.558   9.479 -0.0754  0.7128  0.7018
  178SLPC  H13X20371   4.903   0.577   9.421  0.1652  0.6487  0.2953
  178SLPC  H13Y20372   5.004   0.448   9.487  0.0950  0.7105  0.5118
  178SLPC  C31420373   5.102   0.625   9.392 -0.0210 -0.8084 -0.3302
  178SLPC  H14X20374   5.205   0.605   9.430  0.0648  0.0266 -0.1004
  178SLPC  H14Y20375   5.099   0.736   9.404 -0.8579 -1.0106  1.3083
  178SLPC  C31520376   5.089   0.576   9.248  0.3035 -0.4988  1.1287
  178SLPC  H15X20377   5.192   0.541   9.227  0.2789 -1.2148  2.1313
  178SLPC  H15Y20378   5.020   0.490   9.234 -0.5427  0.3475 -0.0698
  178SLPC  C31620379   5.048   0.679   9.143 -0.4050  0.3509 -1.1043
  178SLPC  H16X20380   5.116   0.767   9.144  1.5245 -1.1084 -0.2974
  178SLPC  H16Y20381   4.942   0.710   9.156 -0.6677 -0.9373 -0.1469
  178SLPC  C31720382   5.052   0.626   8.999 -0.1969  0.2073  0.2260
  178SLPC  H17X20383   4.977   0.546   8.977  1.1268 -0.8037 -0.7088
  178SLPC  H17Y20384   5.145   0.567   8.986 -1.2370 -1.1565 -1.4066
  178SLPC  C31820385   5.054   0.720   8.881 -0.3489  0.2791 -0.0460
  178SLPC  H18X20386   4.964   0.785   8.877 -0.3952  0.2045 -0.2165
  178SLPC  H18Y20387   5.064   0.664   8.786  1.6383 -0.7250  0.7252
  178SLPC  H18Z20388   5.147   0.780   8.888  0.5966 -1.0730 -0.7681
  179SLPC     N20389   0.264   4.228  10.873  0.0593  0.9461  0.1279
  179SLPC   C1320390   0.392   4.301  10.882  0.0048 -0.1370  0.8704
  179SLPC  H13A20391   0.451   4.275  10.795 -0.8610  2.0887 -0.4138
  179SLPC  H13B20392   0.380   4.409  10.880  0.1122 -0.1399 -2.3949
  179SLPC  H13C20393   0.452   4.271  10.967  2.0367  2.3050  0.3536
  179SLPC   C1420394   0.177   4.294  10.763 -0.0743 -0.1103 -0.4104
  179SLPC  H14A20395   0.101   4.228  10.723  1.8360 -0.8026 -3.0081
  179SLPC  H14B20396   0.121   4.378  10.802 -2.1191 -1.1840 -0.9594
  179SLPC  H14C20397   0.244   4.328  10.686  0.8773  1.3525  1.0349
  179SLPC   C1520398   0.196   4.245  11.001 -0.0810 -0.2891  0.1887
  179SLPC  H15A20399   0.127   4.166  11.026  0.2832 -0.4213  0.7822
  179SLPC  H15B20400   0.264   4.237  11.084 -0.2059 -1.6358  0.1696
  179SLPC  H15C20401   0.142   4.338  11.004 -2.0962 -1.3728 -1.0316
  179SLPC   C1220402   0.281   4.084  10.858  0.3169  0.1661 -0.3221
  179SLPC  H12A20403   0.178   4.052  10.854  0.6890 -0.8546 -2.2633
  179SLPC  H12B20404   0.325   4.034  10.943 -0.0987 -1.3299 -0.9698
  179SLPC   C1120405   0.339   4.031  10.723 -0.7418  0.0958  0.3202
  179SLPC  H11A20406   0.368   3.926  10.746  1.7855  0.6962  0.0386
  179SLPC  H11B20407   0.428   4.093  10.698 -1.0769 -0.2343 -1.8009
  179SLPC     P20408   0.258   3.948  10.485  0.2492  0.1754  0.2230
  179SLPC   O1320409   0.396   3.906  10.460  0.1424 -0.7021 -0.2540
  179SLPC   O1420410   0.156   3.844  10.484  0.1932  0.3870  0.1797
  179SLPC   O1220411   0.242   4.026  10.623 -0.1662  0.0759 -0.3064
  179SLPC   O1120412   0.231   4.055  10.372 -0.2604  0.2322  0.1846
  179SLPC    C120413   0.112   4.126  10.369 -0.3777 -0.5844 -0.0038
  179SLPC    HA20414   0.054   4.119  10.464 -0.2159  2.4783  0.3860
  179SLPC    HB20415   0.139   4.234  10.360 -1.7469 -0.2248  0.1750
  179SLPC    C220416   0.023   4.073  10.257  0.0109 -0.1199  0.1875
  179SLPC    HS20417   0.020   3.962  10.251 -1.4123 -0.1708  1.6238
  179SLPC   O2120418   0.085   4.113  10.135 -0.5726  0.3533  0.4046
  179SLPC   C2120419   0.099   4.242  10.103  0.3940 -0.6654  0.0930
  179SLPC   O2220420   0.052   4.338  10.161  0.5954  0.2630  0.1684
  179SLPC   C2220421   0.175   4.255   9.972 -0.6708  0.1918  0.1055
  179SLPC   H2R20422   0.231   4.350   9.980 -0.2343 -0.2569  3.0162
  179SLPC   H2S20423   0.244   4.168   9.967 -1.1032 -0.1742  0.4183
  179SLPC    C320424  -0.124   4.124  10.269 -0.0674  0.2131 -0.8893
  179SLPC    HX20425  -0.108   4.230  10.300  0.6942  0.4418 -2.0390
  179SLPC    HY20426  -0.185   4.080  10.351 -1.7635  1.3503 -1.5258
  179SLPC   O3120427  -0.196   4.109  10.151  0.5913  0.3136  0.4481
  179SLPC   C3120428  -0.307   4.197  10.140  0.0707 -0.3898 -0.2232
  179SLPC   O3220429  -0.333   4.278  10.223 -0.0414  0.4057 -0.1971
  179SLPC   C3220430  -0.386   4.158  10.017 -0.3880  0.5854  0.4031
  179SLPC   H2X20431  -0.395   4.048  10.011  0.5604  0.4627  1.2812
  179SLPC   H2Y20432  -0.332   4.197   9.928 -0.0806 -2.1846 -0.6587
  179SLPC   C2320433   0.094   4.261   9.846 -0.5466 -0.0021  0.2057
  179SLPC   H3R20434   0.010   4.188   9.845  0.9840 -1.8024 -2.0900
  179SLPC   H3S20435   0.158   4.247   9.756 -2.3874 -1.4676 -0.9148
  179SLPC   C2420436   0.051   4.409   9.812  0.4637  0.6833 -0.2859
  179SLPC   H4R20437   0.137   4.475   9.832 -0.0958  1.1942  0.4654
  179SLPC   H4S20438  -0.031   4.441   9.879  1.1372 -0.1894  0.9744
  179SLPC   C2520439   0.001   4.426   9.674  0.2035 -0.1576 -0.3850
  179SLPC   H5R20440  -0.099   4.379   9.672  0.0130  0.1538  1.4318
  179SLPC   H5S20441   0.051   4.368   9.594  1.4405  1.2823 -0.6807
  179SLPC   C2620442  -0.020   4.569   9.624 -0.6948  0.6494 -0.9887
  179SLPC   H6R20443   0.076   4.621   9.641 -1.2533  1.2880  0.2683
  179SLPC   H6S20444  -0.093   4.626   9.686 -0.9735  1.0253 -1.6602
  179SLPC   C2720445  -0.059   4.578   9.471 -0.4356  0.5170 -0.0149
  179SLPC   H7R20446  -0.160   4.536   9.454  0.9823 -2.3883 -1.6817
  179SLPC   H7S20447   0.021   4.524   9.415 -0.2647 -0.6995  1.3663
  179SLPC   C2820448  -0.051   4.722   9.419  0.1428  0.4101 -0.2660
  179SLPC   H8R20449   0.054   4.756   9.430  0.7941 -2.4560  3.3000
  179SLPC   H8S20450  -0.123   4.783   9.478  0.2834 -1.2595  1.6746
  179SLPC   C2920451  -0.077   4.739   9.269 -0.5582  0.0723  0.1812
  179SLPC   H9R20452  -0.009   4.696   9.194  0.0290  3.0843 -1.1034
  179SLPC  C21020453  -0.179   4.805   9.209 -0.3723 -0.3607 -0.2944
  179SLPC  H10R20454  -0.179   4.780   9.102  0.6539 -3.5318  0.3806
  179SLPC  C21120455  -0.306   4.866   9.272 -0.1050 -0.3809 -0.2376
  179SLPC  H11R20456  -0.276   4.967   9.307  0.1526 -0.8105  0.7982
  179SLPC  H11S20457  -0.327   4.806   9.363 -0.0060  2.9284  2.0422
  179SLPC  C21220458  -0.425   4.859   9.181 -0.2546  0.5255  0.7530
  179SLPC  H12R20459  -0.472   4.760   9.172 -1.6720  1.4703 -2.7683
  179SLPC  C21320460  -0.473   4.957   9.110  0.6486  0.6239 -0.0091
  179SLPC  H13R20461  -0.568   4.945   9.056  1.2812 -0.3763 -0.9073
  179SLPC  C21420462  -0.418   5.096   9.103  0.2224  0.0823 -0.4746
  179SLPC  H14R20463  -0.363   5.126   9.195  0.9223 -1.0968 -0.4891
  179SLPC  H14S20464  -0.510   5.158   9.099 -0.2306 -0.5451  0.0276
  179SLPC  C21520465  -0.316   5.128   8.994  0.2015  0.7423  0.6455
  179SLPC  H15R20466  -0.227   5.063   9.011 -0.4355  0.3283  2.4100
  179SLPC  H15S20467  -0.287   5.235   8.994 -1.0419  1.0908 -0.7120
  179SLPC  C21620468  -0.366   5.076   8.852  0.3396  1.1099  0.0024
  179SLPC  H16R20469  -0.421   4.980   8.871  1.4825  0.2066 -1.2037
  179SLPC  H16S20470  -0.275   5.058   8.791 -0.7114  0.3899 -1.3838
  179SLPC  C21720471  -0.460   5.169   8.778 -0.2934 -0.6657 -0.1237
  179SLPC  H17R20472  -0.420   5.272   8.764  0.0555 -0.6839  0.7323
  179SLPC  H17S20473  -0.546   5.184   8.846  0.4892  1.0926  0.5036
  179SLPC  C21820474  -0.505   5.122   8.637 -0.1415 -0.5527  0.6999
  179SLPC  H18R20475  -0.421   5.138   8.567 -1.1007  1.5814  0.0318
  179SLPC  H18S20476  -0.592   5.175   8.595 -0.4714 -2.1648 -0.7007
  179SLPC  H18T20477  -0.533   5.014   8.633 -1.7352 -0.1087 -0.1581
  179SLPC   C3320478  -0.519   4.223  10.005 -0.0098 -0.4660  0.0705
  179SLPC   H3X20479  -0.513   4.334  10.004 -1.6968 -0.3376  1.9447
  179SLPC   H3Y20480  -0.575   4.196  10.097  1.0208  0.8670  1.1075
  179SLPC   C3420481  -0.599   4.189   9.885 -0.2614  0.0518  0.7003
  179SLPC   H4X20482  -0.621   4.081   9.893  1.2242 -0.5992 -2.8940
  179SLPC   H4Y20483  -0.529   4.209   9.801 -2.1182  0.6226 -0.7144
  179SLPC   C3520484  -0.729   4.277   9.882 -0.0156 -0.6591 -0.2507
  179SLPC   H5X20485  -0.699   4.380   9.853 -3.3215  0.9054  1.6460
  179SLPC   H5Y20486  -0.777   4.279   9.982  3.9004 -1.6261  1.7779
  179SLPC   C3620487  -0.836   4.221   9.788  0.2004  0.4653  0.2638
  179SLPC   H6X20488  -0.930   4.279   9.803 -1.2078 -1.6311 -0.2770
  179SLPC   H6Y20489  -0.864   4.116   9.811 -1.9806  0.6177 -1.5294
  179SLPC   C3720490  -0.799   4.235   9.641  0.7298 -0.9789 -0.4301
  179SLPC   H7X20491  -0.707   4.175   9.627  0.9741 -0.1721 -2.3796
  179SLPC   H7Y20492  -0.784   4.342   9.616 -0.5838 -0.4286  1.0070
  179SLPC   C3820493  -0.913   4.177   9.554  0.7138 -0.4466 -0.4047
  179SLPC   H8X20494  -0.998   4.248   9.551  1.8791  0.9979 -0.0474
  179SLPC   H8Y20495  -0.952   4.084   9.601  0.1538  0.5730  1.1779
  179SLPC   C3920496  -0.864   4.140   9.410 -0.0133 -0.3875  0.0083
  179SLPC   H9X20497  -0.787   4.061   9.404  0.6004  0.4088 -5.7146
  179SLPC   H9Y20498  -0.817   4.229   9.364 -0.1998  1.8789  4.0207
  179SLPC  C31020499  -0.989   4.098   9.322 -0.2507 -0.7536  0.5095
  179SLPC  H10X20500  -1.071   4.172   9.331 -1.0087 -1.6777  1.2625
  179SLPC  H10Y20501  -1.040   4.009   9.365 -0.1570 -0.6361  0.8633
  179SLPC  C31120502  -0.969   4.071   9.173  0.6301 -0.9154  0.0635
  179SLPC  H11X20503  -0.894   3.995   9.142  1.1870 -0.5075  0.4017
  179SLPC  H11Y20504  -0.941   4.171   9.133  0.1202 -0.5774  0.5424
  179SLPC  C31220505  -1.116   4.058   9.105  0.0321  0.4294 -0.5229
  179SLPC  H12X20506  -1.177   4.150   9.100  1.8615  1.5695 -2.2660
  179SLPC  H12Y20507  -1.170   3.977   9.161  1.2078 -0.5004 -0.7146
  179SLPC  C31320508  -1.124   3.998   8.955  0.6101  0.5766 -0.5920
  179SLPC  H13X20509  -1.104   3.889   8.953  1.0011  0.5192  2.7312
  179SLPC  H13Y20510  -1.057   4.060   8.893  1.6691 -0.2787 -0.3200
  179SLPC  C31420511  -1.264   4.004   8.894  0.0491  0.7491  0.0744
  179SLPC  H14X20512  -1.295   4.108   8.873  0.1702  0.7942  0.1231
  179SLPC  H14Y20513  -1.342   3.955   8.957 -0.3849  0.5985 -0.5723
  179SLPC  C31520514  -1.248   3.941   8.754  0.5282  0.0631  0.2414
  179SLPC  H15X20515  -1.250   3.830   8.758  1.0513  0.0503  0.1186
  179SLPC  H15Y20516  -1.153   3.974   8.707  0.2495 -0.6835 -0.8589
  179SLPC  C31620517  -1.359   3.993   8.658  0.3851 -0.2729  0.0987
  179SLPC  H16X20518  -1.343   4.101   8.638 -0.1275 -0.0310  0.9512
  179SLPC  H16Y20519  -1.459   3.999   8.705  0.9381  0.5740  1.2046
  179SLPC  C31720520  -1.356   3.917   8.528 -0.0218  0.2046 -0.5408
  179SLPC  H17X20521  -1.397   3.815   8.540  0.7334  0.0029  0.4228
  179SLPC  H17Y20522  -1.250   3.912   8.495  0.3704  1.4468  0.4783
  179SLPC  C31820523  -1.431   3.981   8.410  0.0976  0.1574 -0.5883
  179SLPC  H18X20524  -1.540   3.968   8.427 -0.0051  0.7856 -0.7702
  179SLPC  H18Y20525  -1.402   3.925   8.318 -0.0617 -0.0616 -0.5082
  179SLPC  H18Z20526  -1.407   4.089   8.402  0.7498  0.1405  0.8669
  180SLPC     N20527   1.151   1.778  10.672 -0.4349 -0.1933 -0.3194
  180SLPC   C1320528   1.222   1.855  10.559 -0.2120  0.3909 -0.5668
  180SLPC  H13A20529   1.160   1.935  10.521 -0.2597  2.1983  3.0600
  180SLPC  H13B20530   1.307   1.910  10.596 -0.0047 -0.0177 -0.4314
  180SLPC  H13C20531   1.249   1.788  10.479  0.1623 -0.1925  0.0364
  180SLPC   C1420532   1.122   1.875  10.779 -0.1505  0.0458  0.4615
  180SLPC  H14A20533   1.208   1.932  10.812  1.5182 -1.3050 -1.4060
  180SLPC  H14B20534   1.054   1.954  10.749  0.1349  0.7795  1.7257
  180SLPC  H14C20535   1.086   1.810  10.857 -0.0659 -0.1520  0.3345
  180SLPC   C1520536   1.245   1.668  10.726 -0.1643 -0.1770 -0.1064
  180SLPC  H15A20537   1.209   1.627  10.819  0.6789  1.1148  0.8177
  180SLPC  H15B20538   1.240   1.585  10.657 -0.4777 -1.1411  1.0582
  180SLPC  H15C20539   1.351   1.690  10.733 -0.6047  1.9645  0.1606
  180SLPC   C1220540   1.019   1.713  10.623  0.7912  0.0027 -0.5381
  180SLPC  H12A20541   0.959   1.782  10.566 -0.0440 -0.2794 -0.0055
  180SLPC  H12B20542   0.966   1.685  10.713  2.0280 -2.6932 -0.6055
  180SLPC   C1120543   1.036   1.576  10.542 -0.3709  0.1506  0.2256
  180SLPC  H11A20544   1.125   1.586  10.477 -1.5012  0.0053 -1.3899
  180SLPC  H11B20545   0.941   1.566  10.485 -2.0683 -2.0905  3.3466
  180SLPC     P20546   0.954   1.399  10.728 -0.0841  0.2548  0.0587
  180SLPC   O1320547   0.966   1.253  10.710 -0.2458  0.4650 -0.6304
  180SLPC   O1420548   0.985   1.448  10.860 -0.7197  0.1287  0.6388
  180SLPC   O1220549   1.052   1.463  10.624 -0.4098  0.2935  0.0751
  180SLPC   O1120550   0.812   1.457  10.675 -0.3027 -0.3778  0.4450
  180SLPC    C120551   0.705   1.370  10.646 -0.5038  0.4152 -0.5676
  180SLPC    HA20552   0.716   1.269  10.690 -1.5093 -0.1233 -1.5086
  180SLPC    HB20553   0.613   1.423  10.681 -0.3819 -0.1801  0.6540
  180SLPC    C220554   0.695   1.338  10.488  0.1968 -0.1559 -0.2180
  180SLPC    HS20555   0.799   1.343  10.451  1.2214  0.0644  2.5894
  180SLPC   O2120556   0.615   1.440  10.425 -0.0419 -0.2002 -0.1206
  180SLPC   C2120557   0.675   1.512  10.334 -0.0093  0.1680  0.0081
  180SLPC   O2220558   0.787   1.503  10.295 -0.1671  0.1427 -0.6562
  180SLPC   C2220559   0.573   1.611  10.288  0.6455  0.0197  0.1375
  180SLPC   H2R20560   0.498   1.632  10.367 -0.5952  1.4220 -1.3855
  180SLPC   H2S20561   0.623   1.709  10.274  1.1676 -0.2056  0.4025
  180SLPC    C320562   0.650   1.191  10.448 -0.1818 -0.2287 -0.2100
  180SLPC    HX20563   0.542   1.189  10.476 -0.0077  0.8092  0.5677
  180SLPC    HY20564   0.691   1.115  10.517  0.4188  0.0744 -0.2285
  180SLPC   O3120565   0.655   1.162  10.306  0.1044 -0.2686 -0.1206
  180SLPC   C3120566   0.771   1.142  10.257 -0.3081 -0.1868  0.0770
  180SLPC   O3220567   0.872   1.115  10.322  0.4911  0.2231  0.1262
  180SLPC   C3220568   0.777   1.161  10.107  0.7628 -1.2229 -0.1383
  180SLPC   H2X20569   0.678   1.198  10.073  0.1884 -0.7304  1.9631
  180SLPC   H2Y20570   0.790   1.055  10.077 -1.4899 -2.4264  2.9023
  180SLPC   C2320571   0.507   1.563  10.155 -0.1762 -0.1111 -0.0418
  180SLPC   H3R20572   0.445   1.649  10.121  1.3208  1.0376  0.0844
  180SLPC   H3S20573   0.444   1.473  10.173 -2.3732  1.2583 -0.6361
  180SLPC   C2420574   0.614   1.536  10.051  0.2339  0.5338 -0.1666
  180SLPC   H4R20575   0.666   1.441  10.076 -1.5256 -1.3098 -3.1298
  180SLPC   H4S20576   0.679   1.626  10.043 -0.0591  0.8628  1.0453
  180SLPC   C2520577   0.557   1.537   9.907 -0.2483 -0.3459 -0.0603
  180SLPC   H5R20578   0.490   1.623   9.890 -0.5699 -0.6743 -0.4715
  180SLPC   H5S20579   0.496   1.447   9.885 -0.8285 -0.0327  0.2536
  180SLPC   C2620580   0.654   1.547   9.789  0.3439 -0.1318 -0.2938
  180SLPC   H6R20581   0.748   1.492   9.811 -0.1205 -0.7468  0.1572
  180SLPC   H6S20582   0.675   1.655   9.773  0.0211  0.3244  2.1462
  180SLPC   C2720583   0.608   1.481   9.656  0.1868  0.0094  0.2513
  180SLPC   H7R20584   0.511   1.521   9.622 -0.6442 -1.7913  0.4589
  180SLPC   H7S20585   0.591   1.374   9.680  1.1618 -0.2509 -0.1795
  180SLPC   C2820586   0.711   1.492   9.549 -0.3229  0.1384  0.3133
  180SLPC   H8R20587   0.792   1.422   9.580  2.1060  1.6044 -2.4212
  180SLPC   H8S20588   0.756   1.593   9.558 -0.4785  0.0168  3.0305
  180SLPC   C2920589   0.655   1.489   9.411 -0.3036 -0.1398 -0.2439
  180SLPC   H9R20590   0.562   1.548   9.403  0.0005  0.3087 -0.5178
  180SLPC  C21020591   0.693   1.418   9.308  0.3639  0.6038  0.2117
  180SLPC  H10R20592   0.638   1.429   9.214  2.1465  1.7057 -0.7298
  180SLPC  C21120593   0.801   1.313   9.300 -0.4244 -0.4161 -0.0167
  180SLPC  H11R20594   0.751   1.222   9.261  0.6641 -0.3492 -1.6071
  180SLPC  H11S20595   0.841   1.291   9.401 -0.1789  0.5691  0.1059
  180SLPC  C21220596   0.916   1.351   9.210  0.3512 -0.1567  0.3210
  180SLPC  H12R20597   1.005   1.376   9.269  2.5893 -0.5990 -2.7144
  180SLPC  C21320598   0.917   1.348   9.073 -0.3759  0.6616 -0.4587
  180SLPC  H13R20599   1.008   1.385   9.023 -1.0597  1.6575 -0.9929
  180SLPC  C21420600   0.804   1.303   8.989  0.2598 -0.4279 -0.3099
  180SLPC  H14R20601   0.717   1.270   9.051 -0.0594 -0.9669 -1.0353
  180SLPC  H14S20602   0.831   1.217   8.925  1.6972 -0.1267 -0.1129
  180SLPC  C21520603   0.746   1.407   8.886 -0.3023 -0.5897  0.6496
  180SLPC  H15R20604   0.705   1.481   8.958 -0.4621 -0.9710  0.9474
  180SLPC  H15S20605   0.658   1.367   8.833  0.4584  0.3353 -1.3831
  180SLPC  C21620606   0.857   1.466   8.788  0.0385 -0.2853 -0.5386
  180SLPC  H16R20607   0.921   1.533   8.849 -1.4296  1.5427 -0.9412
  180SLPC  H16S20608   0.806   1.534   8.716 -0.7845  1.0282  1.2605
  180SLPC  C21720609   0.941   1.359   8.718 -0.3854 -0.0971  0.9043
  180SLPC  H17R20610   0.886   1.288   8.654 -0.2103 -0.7101  1.4238
  180SLPC  H17S20611   0.985   1.293   8.796  0.4915 -1.1267 -0.4438
  180SLPC  C21820612   1.053   1.408   8.631  0.3911  0.9478 -0.7780
  180SLPC  H18R20613   1.133   1.331   8.624 -0.7429 -0.4414  0.8936
  180SLPC  H18S20614   1.097   1.499   8.678 -0.1389  1.6063 -1.5480
  180SLPC  H18T20615   1.016   1.437   8.531  1.4656 -0.0220 -1.4556
  180SLPC   C3320616   0.895   1.246  10.056  0.3338 -0.3738  0.1922
  180SLPC   H3X20617   0.994   1.206  10.089 -0.3563  0.0659  2.9089
  180SLPC   H3Y20618   0.877   1.353  10.079 -1.7849 -0.8662  0.9363
  180SLPC   C3420619   0.911   1.247   9.906 -0.2336  0.0306  0.5195
  180SLPC   H4X20620   0.818   1.285   9.857  0.1491 -0.9359 -1.0244
  180SLPC   H4Y20621   0.907   1.137   9.887  0.0350 -0.0865  1.1254
  180SLPC   C3520622   1.039   1.300   9.841  0.8020  0.1411  0.8604
  180SLPC   H5X20623   1.118   1.262   9.909 -0.9543 -2.4500  1.5442
  180SLPC   H5Y20624   1.045   1.410   9.848 -0.6660  0.1934  1.3360
  180SLPC   C3620625   1.066   1.248   9.701 -0.6094  0.1859  0.6955
  180SLPC   H6X20626   0.969   1.248   9.647  0.2974 -0.2277 -0.9618
  180SLPC   H6Y20627   1.098   1.142   9.699  0.6655  0.5857 -0.8964
  180SLPC   C3720628   1.176   1.327   9.632  0.7695  0.0678  0.9152
  180SLPC   H7X20629   1.264   1.342   9.698 -0.0232 -1.5234  2.3614
  180SLPC   H7Y20630   1.143   1.433   9.620 -0.2333 -0.3730 -0.2739
  180SLPC   C3820631   1.215   1.263   9.497  0.4145  0.0116  0.0222
  180SLPC   H8X20632   1.125   1.247   9.434  1.8678  0.5988 -2.2936
  180SLPC   H8Y20633   1.271   1.168   9.512  1.3241  0.5975  0.3771
  180SLPC   C3920634   1.312   1.357   9.417  0.2841  0.1933 -0.0915
  180SLPC   H9X20635   1.404   1.376   9.476 -0.6203 -1.6001  1.9759
  180SLPC   H9Y20636   1.254   1.450   9.398  0.8050  0.7462  0.9763
  180SLPC  C31020637   1.339   1.302   9.279 -0.3199  0.6420 -0.2498
  180SLPC  H10X20638   1.233   1.291   9.246 -0.2748 -1.3088  0.1820
  180SLPC  H10Y20639   1.386   1.201   9.281 -2.5572 -0.4624  5.3173
  180SLPC  C31120640   1.409   1.396   9.174 -0.4028  0.1081  0.1146
  180SLPC  H11X20641   1.513   1.419   9.206 -0.3073  1.8106 -1.2756
  180SLPC  H11Y20642   1.351   1.492   9.171  0.4790  0.6694  0.8948
  180SLPC  C31220643   1.429   1.330   9.036  0.1453 -0.6859 -0.1322
  180SLPC  H12X20644   1.342   1.279   8.989 -1.5582  3.3924 -1.6083
  180SLPC  H12Y20645   1.513   1.258   9.032  1.4214  0.8173 -0.7223
  180SLPC  C31320646   1.473   1.438   8.942 -0.3934 -0.4488 -0.1465
  180SLPC  H13X20647   1.568   1.478   8.984 -1.0096  0.3193  0.5455
  180SLPC  H13Y20648   1.393   1.515   8.948  0.3908  0.4588 -1.1043
  180SLPC  C31420649   1.491   1.400   8.801 -0.0471  0.4332 -0.3728
  180SLPC  H14X20650   1.404   1.343   8.764 -1.2057  2.4839 -0.9078
  180SLPC  H14Y20651   1.580   1.333   8.799  0.4706  1.1204 -2.0804
  180SLPC  C31520652   1.515   1.516   8.700 -0.6704  0.2858 -0.0140
  180SLPC  H15X20653   1.590   1.582   8.749 -1.4726  1.5313 -0.4477
  180SLPC  H15Y20654   1.419   1.567   8.678 -0.6192 -0.3230 -1.6797
  180SLPC  C31620655   1.544   1.458   8.563 -0.4994  0.5721  0.4472
  180SLPC  H16X20656   1.447   1.433   8.513  0.7134 -1.3876 -1.0040
  180SLPC  H16Y20657   1.610   1.369   8.561  2.1407  2.5133 -2.7520
  180SLPC  C31720658   1.625   1.553   8.472 -0.1263  0.1714  0.3242
  180SLPC  H17X20659   1.710   1.579   8.538  0.5248 -1.0973 -0.0029
  180SLPC  H17Y20660   1.571   1.648   8.449 -0.4671 -0.1692 -0.2732
  180SLPC  C31820661   1.642   1.493   8.334 -0.3497  0.2381  0.0795
  180SLPC  H18X20662   1.711   1.406   8.346  0.3818  0.9081  0.7916
  180SLPC  H18Y20663   1.700   1.560   8.269  0.3417 -2.2222 -1.9264
  180SLPC  H18Z20664   1.544   1.465   8.289 -0.0835 -0.8852  0.1826
  181SLPC     N20665   3.719   6.047  11.113  0.5884  0.0037  0.1263
  181SLPC   C1320666   3.652   5.948  11.031 -0.5062 -0.2227 -0.5103
  181SLPC  H13A20667   3.565   5.995  10.988 -0.0758  0.6690 -0.4241
  181SLPC  H13B20668   3.710   5.903  10.952  1.6062 -3.6246  2.8347
  181SLPC  H13C20669   3.602   5.877  11.094 -0.9327  0.6910  0.1889
  181SLPC   C1420670   3.634   6.093  11.228  0.0204 -0.4466 -0.2466
  181SLPC  H14A20671   3.537   6.134  11.205 -0.9934 -1.7177  1.6249
  181SLPC  H14B20672   3.606   6.000  11.275 -1.2243  0.8956  1.7379
  181SLPC  H14C20673   3.690   6.155  11.296 -0.9592 -1.4394  1.5151
  181SLPC   C1520674   3.740   6.165  11.017  0.3789 -0.3266 -0.3885
  181SLPC  H15A20675   3.646   6.206  10.982  1.1406  1.1941 -0.6877
  181SLPC  H15B20676   3.788   6.248  11.066 -0.1837 -0.0312 -0.3310
  181SLPC  H15C20677   3.793   6.143  10.925  0.4927  1.2097 -0.7076
  181SLPC   C1220678   3.848   6.002  11.160 -0.0086 -0.1142  0.5941
  181SLPC  H12A20679   3.844   5.923  11.233 -0.2847 -0.2180  0.4681
  181SLPC  H12B20680   3.895   6.085  11.211  1.7988  0.3361 -1.7600
  181SLPC   C1120681   3.950   5.946  11.060  0.5401 -0.3511  0.1009
  181SLPC  H11A20682   3.978   6.024  10.985 -1.4948  0.4639  0.1716
  181SLPC  H11B20683   3.911   5.856  11.008  0.7970 -0.6348  0.4009
  181SLPC     P20684   4.209   5.911  11.086  0.3204 -0.1708  0.4265
  181SLPC   O1320685   4.283   5.991  11.186 -0.0504  0.2525  0.2034
  181SLPC   O1420686   4.243   5.762  11.073 -0.3816 -0.2741 -0.2558
  181SLPC   O1220687   4.064   5.900  11.134  0.3807  0.1571  0.1664
  181SLPC   O1120688   4.209   5.982  10.944  0.0423  0.1254  0.0875
  181SLPC    C120689   4.208   5.908  10.823  0.1321 -0.9952  0.6285
  181SLPC    HA20690   4.300   5.846  10.827  0.2929 -0.7858  0.2425
  181SLPC    HB20691   4.119   5.841  10.820 -2.0048  1.7873 -1.7392
  181SLPC    C220692   4.218   6.014  10.710 -0.6544  0.6130  0.2866
  181SLPC    HS20693   4.146   6.090  10.747 -2.6517 -1.3289  0.4736
  181SLPC   O2120694   4.187   5.952  10.586  0.3414  0.0865 -0.4175
  181SLPC   C2120695   4.085   6.012  10.519 -0.5016 -0.9558  0.2472
  181SLPC   O2220696   4.021   6.110  10.558  0.7433  0.1983 -0.1447
  181SLPC   C2220697   4.050   5.919  10.409  0.2804  0.8698  0.3347
  181SLPC   H2R20698   4.140   5.905  10.345 -0.1793  0.0521 -0.1406
  181SLPC   H2S20699   4.037   5.818  10.453 -0.7494  0.6127 -0.5311
  181SLPC    C320700   4.354   6.078  10.703 -0.3479  0.4000  0.3790
  181SLPC    HX20701   4.367   6.122  10.804 -0.0574  0.1419  0.4552
  181SLPC    HY20702   4.352   6.165  10.632 -2.9936 -1.3354 -1.7721
  181SLPC   O3120703   4.454   5.985  10.663 -0.4269 -0.4585  0.3945
  181SLPC   C3120704   4.553   5.965  10.749  0.2558 -0.0927 -0.9155
  181SLPC   O3220705   4.563   6.035  10.850 -0.3502 -0.3694  0.0187
  181SLPC   C3220706   4.642   5.861  10.697 -0.0534 -0.8840 -0.0090
  181SLPC   H2X20707   4.596   5.770  10.742 -2.6786 -0.2509 -1.2612
  181SLPC   H2Y20708   4.745   5.879  10.734 -0.0455  4.0297 -1.9911
  181SLPC   C2320709   3.910   5.941  10.337  0.1797 -0.7631  0.2292
  181SLPC   H3R20710   3.918   6.030  10.271 -0.2655  0.3804  1.6860
  181SLPC   H3S20711   3.833   5.958  10.415 -1.1564  1.5228 -1.5310
  181SLPC   C2420712   3.872   5.818  10.250 -0.3392 -0.1744 -0.4246
  181SLPC   H4R20713   3.877   5.731  10.319  1.1437 -0.4594 -0.8756
  181SLPC   H4S20714   3.945   5.794  10.170 -2.6440 -1.5170 -2.1522
  181SLPC   C2520715   3.734   5.825  10.190  0.0976  0.0748 -0.2970
  181SLPC   H5R20716   3.655   5.845  10.266 -0.5012  2.0596 -1.3869
  181SLPC   H5S20717   3.716   5.727  10.143  1.7784  0.6038 -2.0652
  181SLPC   C2620718   3.727   5.940  10.084 -0.1037 -0.3923  0.3277
  181SLPC   H6R20719   3.813   5.924  10.015  0.6007 -3.5099  1.8446
  181SLPC   H6S20720   3.743   6.034  10.141  0.7127 -1.0597  1.2150
  181SLPC   C2720721   3.591   5.953  10.012 -0.9541  0.4987  0.7992
  181SLPC   H7R20722   3.517   5.982  10.089 -0.3127 -2.8931  2.7999
  181SLPC   H7S20723   3.562   5.857   9.963  2.0441 -0.0601  0.0067
  181SLPC   C2820724   3.595   6.044   9.896 -0.4831 -0.6780 -0.4337
  181SLPC   H8R20725   3.665   5.992   9.827 -1.2957 -3.1042  0.5232
  181SLPC   H8S20726   3.628   6.146   9.926  2.2816 -0.9964 -2.2163
  181SLPC   C2920727   3.459   6.057   9.828  0.0977 -0.1649 -0.2241
  181SLPC   H9R20728   3.371   6.054   9.894  0.1687  1.0356 -0.0665
  181SLPC  C21020729   3.442   6.102   9.702  0.5495 -0.0096  0.1103
  181SLPC  H10R20730   3.342   6.099   9.658  0.8631  0.6555 -0.6485
  181SLPC  C21120731   3.555   6.133   9.606  0.1580  0.6803  0.2284
  181SLPC  H11R20732   3.533   6.106   9.500  2.0666  0.6534 -0.1816
  181SLPC  H11S20733   3.649   6.082   9.638 -0.5398 -2.0161 -1.8095
  181SLPC  C21220734   3.599   6.276   9.609 -0.4520 -0.3989  1.1166
  181SLPC  H12R20735   3.582   6.318   9.709 -0.1146  1.9064  0.2351
  181SLPC  C21320736   3.640   6.357   9.510  0.5019  0.2819  0.5577
  181SLPC  H13R20737   3.655   6.463   9.535 -2.1016  0.7852  0.0989
  181SLPC  C21420738   3.654   6.322   9.366  0.6208 -0.0667  0.1424
  181SLPC  H14R20739   3.576   6.386   9.319 -0.0590  1.0789  2.7164
  181SLPC  H14S20740   3.636   6.214   9.345  0.1620  0.3461 -1.6390
  181SLPC  C21520741   3.805   6.334   9.323 -0.0744  0.3645 -0.4936
  181SLPC  H15R20742   3.875   6.260   9.368  1.2136  2.1106  0.4096
  181SLPC  H15S20743   3.837   6.433   9.360 -1.7177  0.8707 -0.3789
  181SLPC  C21620744   3.823   6.330   9.165  0.0655 -0.3272 -0.1727
  181SLPC  H16R20745   3.930   6.340   9.140  0.3394  0.5255  1.2553
  181SLPC  H16S20746   3.749   6.404   9.127 -0.6800 -0.3406  1.1914
  181SLPC  C21720747   3.772   6.196   9.104 -0.0233 -0.4880 -0.6437
  181SLPC  H17R20748   3.661   6.202   9.098  0.0620  0.3491 -1.3687
  181SLPC  H17S20749   3.796   6.111   9.172  2.0010 -0.5790 -1.4469
  181SLPC  C21820750   3.831   6.158   8.965 -0.1788 -0.3752 -0.3887
  181SLPC  H18R20751   3.785   6.065   8.925 -0.5338  0.8589 -2.9078
  181SLPC  H18S20752   3.941   6.159   8.973 -0.1659  1.2020 -0.5861
  181SLPC  H18T20753   3.816   6.244   8.897  2.4654  0.9672  0.6845
  181SLPC   C3320754   4.638   5.854  10.535 -0.2503 -0.6876  0.5331
  181SLPC   H3X20755   4.535   5.846  10.494 -0.6731 -0.1456  1.4654
  181SLPC   H3Y20756   4.698   5.763  10.517  2.1053  0.9698 -0.3082
  181SLPC   C3420757   4.704   5.979  10.469  0.2621  0.2747 -0.2899
  181SLPC   H4X20758   4.804   6.000  10.512  0.7369 -0.3203 -1.0843
  181SLPC   H4Y20759   4.644   6.068  10.495 -1.2520 -0.9647  0.5265
  181SLPC   C3520760   4.713   5.963  10.315  0.8017 -0.3632 -0.0194
  181SLPC   H5X20761   4.728   6.064  10.272 -1.6162 -0.4835 -1.2182
  181SLPC   H5Y20762   4.619   5.920  10.275  0.0229  0.6278  0.7167
  181SLPC   C3620763   4.823   5.865  10.272  0.1602 -0.6865 -0.0889
  181SLPC   H6X20764   4.780   5.763  10.274 -0.5718 -0.3684  0.9437
  181SLPC   H6Y20765   4.916   5.860  10.334 -1.0918  1.7153  2.1013
  181SLPC   C3720766   4.867   5.871  10.121  0.3266 -0.7563 -0.3228
  181SLPC   H7X20767   4.768   5.858  10.073  0.6184  1.0003 -1.4179
  181SLPC   H7Y20768   4.935   5.785  10.101 -0.0688 -1.3669  0.9064
  181SLPC   C3820769   4.934   6.002  10.064 -0.2043 -0.7449  0.0798
  181SLPC   H8X20770   5.027   6.035  10.115 -0.0624 -1.5006  0.3121
  181SLPC   H8Y20771   4.857   6.081  10.072 -0.1622 -0.3877 -2.4948
  181SLPC   C3920772   4.982   5.981   9.923 -0.5690 -0.0671  0.2441
  181SLPC   H9X20773   5.023   5.879   9.908 -1.5965 -0.3689 -0.6286
  181SLPC   H9Y20774   5.061   6.055   9.898 -1.7456  1.7885  1.8631
  181SLPC  C31020775   4.875   6.000   9.822  0.4574  0.3266 -0.4348
  181SLPC  H10X20776   4.851   6.109   9.819 -3.1711 -0.3951  0.2046
  181SLPC  H10Y20777   4.784   5.943   9.849 -0.2600  1.2153 -0.9386
  181SLPC  C31120778   4.919   5.957   9.678  0.3551  0.6361 -0.4256
  181SLPC  H11X20779   4.884   5.851   9.685 -2.2150  1.4814 -0.0731
  181SLPC  H11Y20780   5.029   5.957   9.660  0.1936 -0.1708 -1.4791
  181SLPC  C31220781   4.841   6.031   9.565 -0.3175  0.0070 -0.1859
  181SLPC  H12X20782   4.863   5.993   9.463  0.6813  2.1641 -0.8050
  181SLPC  H12Y20783   4.874   6.138   9.561 -0.0646 -0.0437  0.4682
  181SLPC  C31320784   4.688   6.010   9.584 -0.6823 -0.0676 -0.3617
  181SLPC  H13X20785   4.663   6.084   9.663  1.3702 -0.5919  0.8257
  181SLPC  H13Y20786   4.666   5.912   9.632  1.9579 -1.4379 -1.8022
  181SLPC  C31420787   4.611   6.022   9.454 -0.0608 -0.1931  0.1992
  181SLPC  H14X20788   4.515   5.966   9.462 -1.3913  1.7097 -1.9128
  181SLPC  H14Y20789   4.668   5.971   9.374  1.5089  0.6495  0.7681
  181SLPC  C31520790   4.592   6.176   9.405  0.6331 -0.2788 -0.2658
  181SLPC  H15X20791   4.690   6.228   9.413  0.7711 -0.4466 -0.7864
  181SLPC  H15Y20792   4.531   6.227   9.482  0.2857 -1.7762  0.4801
  181SLPC  C31620793   4.520   6.200   9.266 -0.2124  0.1550 -0.6857
  181SLPC  H16X20794   4.600   6.166   9.196  0.5212 -0.4095  0.4183
  181SLPC  H16Y20795   4.506   6.310   9.252 -2.5697  0.0909  0.8772
  181SLPC  C31720796   4.387   6.116   9.252  0.1328 -0.0472 -1.0493
  181SLPC  H17X20797   4.321   6.163   9.328  0.3680 -0.2142 -0.7383
  181SLPC  H17Y20798   4.397   6.008   9.280 -2.2809  0.4557  2.1060
  181SLPC  C31820799   4.311   6.129   9.115  0.2348  0.5592  0.4477
  181SLPC  H18X20800   4.381   6.107   9.032 -1.9599 -0.9514 -1.0427
  181SLPC  H18Y20801   4.273   6.233   9.104  2.0383  0.7492 -5.4865
  181SLPC  H18Z20802   4.233   6.051   9.113 -1.7082  2.4988 -1.2752
  182SLPC     N20803   3.413   0.034  10.875  0.4805  0.2225  0.7221
  182SLPC   C1320804   3.555   0.077  10.853 -0.2570  0.2002  0.0834
  182SLPC  H13A20805   3.599   0.062  10.950 -2.8261 -0.6886  1.1613
  182SLPC  H13B20806   3.604   0.005  10.789 -1.2518  0.1673 -0.6677
  182SLPC  H13C20807   3.565   0.180  10.823  0.8392  0.9811  2.9653
  182SLPC   C1420808   3.342   0.134  10.959 -0.0184  0.8155  0.2019
  182SLPC  H14A20809   3.400   0.148  11.049  0.2475 -1.6206  0.4264
  182SLPC  H14B20810   3.337   0.226  10.902  1.5212 -0.0869 -1.4835
  182SLPC  H14C20811   3.243   0.099  10.982  1.4622 -2.6656  1.5457
  182SLPC   C1520812   3.412  -0.107  10.933  0.3572 -0.6511  0.0822
  182SLPC  H15A20813   3.466  -0.104  11.027  1.6456 -1.8043 -0.6085
  182SLPC  H15B20814   3.313  -0.147  10.948 -0.0009  0.4808  0.7656
  182SLPC  H15C20815   3.472  -0.169  10.868  0.4858 -2.1481  1.5758
  182SLPC   C1220816   3.344   0.027  10.741  0.2844  0.3135 -0.3150
  182SLPC  H12A20817   3.406  -0.026  10.670  1.5325  2.8417 -1.2084
  182SLPC  H12B20818   3.345   0.120  10.686  1.9008 -0.9033 -2.4435
  182SLPC   C1120819   3.196  -0.027  10.739 -0.1901 -0.4063 -0.6202
  182SLPC  H11A20820   3.195  -0.131  10.779 -4.9990  0.3067  1.4904
  182SLPC  H11B20821   3.170  -0.036  10.632  2.8580 -1.0379 -1.3492
  182SLPC     P20822   2.945  -0.004  10.821  0.0850 -0.0404  0.0254
  182SLPC   O1320823   2.944  -0.148  10.780 -0.1052  0.0545  0.1920
  182SLPC   O1420824   2.887   0.035  10.948 -0.1708 -0.1293  0.4376
  182SLPC   O1220825   3.093   0.049  10.809  0.1287 -0.1756  0.4427
  182SLPC   O1120826   2.877   0.082  10.713 -0.7146  0.2238 -0.4723
  182SLPC    C120827   2.770   0.174  10.736 -0.0598 -0.0700  0.1488
  182SLPC    HA20828   2.752   0.208  10.841 -2.9971  1.1803 -0.7007
  182SLPC    HB20829   2.787   0.266  10.677  0.0134  0.2054  0.5957
  182SLPC    C220830   2.632   0.119  10.688  0.3652  0.9795  0.2820
  182SLPC    HS20831   2.610   0.038  10.761 -1.7962 -0.6770 -2.1299
  182SLPC   O2120832   2.649   0.076  10.551 -0.3595 -0.5924  0.0804
  182SLPC   C2120833   2.565  -0.021  10.516 -0.1576 -0.3757  0.8190
  182SLPC   O2220834   2.471  -0.064  10.583  0.4765 -0.4763  0.0313
  182SLPC   C2220835   2.610  -0.082  10.381  0.0417  0.0109  0.1159
  182SLPC   H2R20836   2.632   0.003  10.313 -0.0402  1.1017  1.4552
  182SLPC   H2S20837   2.704  -0.138  10.403  0.4895  0.3294 -0.9449
  182SLPC    C320838   2.516   0.224  10.699 -0.8234 -0.0729 -0.2008
  182SLPC    HX20839   2.510   0.256  10.806  0.9121  0.7574 -0.3278
  182SLPC    HY20840   2.422   0.178  10.662 -0.5994 -0.2087 -0.5925
  182SLPC   O3120841   2.552   0.338  10.611 -0.3281  0.4091 -0.0593
  182SLPC   C3120842   2.471   0.351  10.500  0.1498 -0.2834  0.0355
  182SLPC   O3220843   2.382   0.271  10.464  0.0796 -0.2825 -0.0453
  182SLPC   C3220844   2.515   0.482  10.431  0.2220  0.0214 -0.2574
  182SLPC   H2X20845   2.552   0.543  10.517 -2.4598  0.6290  0.4905
  182SLPC   H2Y20846   2.423   0.520  10.382  0.6432 -0.4734 -1.4413
  182SLPC   C2320847   2.497  -0.164  10.313 -0.0932  0.8784 -0.3688
  182SLPC   H3R20848   2.420  -0.201  10.384 -0.3980  1.0373 -0.6122
  182SLPC   H3S20849   2.544  -0.258  10.275  3.3631  2.1294  0.6184
  182SLPC   C2420850   2.421  -0.092  10.204 -0.5892  0.3634 -0.5576
  182SLPC   H4R20851   2.496  -0.055  10.130 -0.2382 -1.2058 -1.0136
  182SLPC   H4S20852   2.367  -0.011  10.257 -0.8149 -0.8046  1.0552
  182SLPC   C2520853   2.324  -0.185  10.131 -0.1353  0.2803 -0.4877
  182SLPC   H5R20854   2.239  -0.210  10.198  1.4689  1.1850  1.9623
  182SLPC   H5S20855   2.376  -0.281  10.107 -0.7395 -0.1762  0.0286
  182SLPC   C2620856   2.290  -0.121   9.998  1.3102  0.6403 -0.0605
  182SLPC   H6R20857   2.378  -0.095   9.936  0.4529 -0.9094 -1.9661
  182SLPC   H6S20858   2.230  -0.028  10.011 -0.6811 -0.0208 -3.7807
  182SLPC   C2720859   2.213  -0.223   9.912  0.5073 -0.0182  0.1170
  182SLPC   H7R20860   2.183  -0.166   9.821 -0.0951 -0.6185 -0.0581
  182SLPC   H7S20861   2.115  -0.227   9.965  0.7034 -1.4671  0.3901
  182SLPC   C2820862   2.265  -0.369   9.894  0.1922 -0.3634 -0.2108
  182SLPC   H8R20863   2.196  -0.424   9.827  1.3792  0.1585 -1.9007
  182SLPC   H8S20864   2.262  -0.430   9.987  2.3837  0.5874  0.5211
  182SLPC   C2920865   2.399  -0.374   9.832 -0.4045 -0.5292 -0.1724
  182SLPC   H9R20866   2.490  -0.379   9.894 -1.2829 -1.0008  1.1016
  182SLPC  C21020867   2.431  -0.370   9.699  0.1405  1.3102  0.1101
  182SLPC  H10R20868   2.536  -0.369   9.667  0.2029  0.5851  0.2842
  182SLPC  C21120869   2.334  -0.357   9.579 -0.4732 -0.1323  0.6140
  182SLPC  H11R20870   2.381  -0.292   9.502 -0.3107  0.1403  0.9352
  182SLPC  H11S20871   2.238  -0.309   9.610  0.1159  1.6764 -0.3078
  182SLPC  C21220872   2.286  -0.489   9.524 -0.2864  0.2858  0.2195
  182SLPC  H12R20873   2.234  -0.547   9.602  1.8582  0.4481  1.8342
  182SLPC  C21320874   2.311  -0.551   9.408 -0.3555 -0.3616 -0.0493
  182SLPC  H13R20875   2.277  -0.654   9.389  3.2533 -0.9359 -4.2104
  182SLPC  C21420876   2.401  -0.506   9.299  0.4908  0.4777 -0.5700
  182SLPC  H14R20877   2.504  -0.549   9.299 -0.7064 -2.5653 -2.7489
  182SLPC  H14S20878   2.419  -0.396   9.291 -0.3585  0.5682 -1.4023
  182SLPC  C21520879   2.325  -0.548   9.167  0.1848 -0.0170 -0.6436
  182SLPC  H15R20880   2.225  -0.502   9.149 -0.8400 -0.6231  3.0187
  182SLPC  H15S20881   2.316  -0.659   9.165  0.6836 -0.0964  1.1234
  182SLPC  C21620882   2.417  -0.519   9.045 -0.0604 -0.0898 -0.5558
  182SLPC  H16R20883   2.378  -0.563   8.951 -0.0948  1.3771 -1.2492
  182SLPC  H16S20884   2.515  -0.568   9.066  0.7355  1.2016 -1.1385
  182SLPC  C21720885   2.431  -0.372   9.001  0.8116 -0.4094 -0.9622
  182SLPC  H17R20886   2.514  -0.336   9.065  1.4458  0.0818 -2.0545
  182SLPC  H17S20887   2.337  -0.317   9.025 -0.9506 -2.8884 -1.9363
  182SLPC  C21820888   2.474  -0.345   8.854 -0.1454  0.1350 -0.3491
  182SLPC  H18R20889   2.405  -0.386   8.778 -0.5612  0.5884 -0.2161
  182SLPC  H18S20890   2.564  -0.410   8.852 -0.1401  0.1905 -2.1955
  182SLPC  H18T20891   2.498  -0.238   8.837 -0.9276  0.1305 -1.4896
  182SLPC   C3320892   2.628   0.470  10.335  0.3520  0.3334 -0.1359
  182SLPC   H3X20893   2.727   0.462  10.384 -0.0690 -1.2466  0.4766
  182SLPC   H3Y20894   2.623   0.562  10.272 -0.7774  0.3457 -0.0373
  182SLPC   C3420895   2.631   0.343  10.246  0.1239  0.2233  0.1330
  182SLPC   H4X20896   2.632   0.244  10.297 -1.1327  0.6764  1.0842
  182SLPC   H4Y20897   2.722   0.338  10.182  0.6225  3.5233  0.4780
  182SLPC   C3520898   2.506   0.350  10.152 -1.2284  0.3511 -0.0988
  182SLPC   H5X20899   2.488   0.457  10.129  0.8111  0.6937 -0.1642
  182SLPC   H5Y20900   2.419   0.322  10.216  0.1268 -2.9778  0.3614
  182SLPC   C3620901   2.521   0.271  10.017  0.2487  0.4058  0.2896
  182SLPC   H6X20902   2.429   0.280   9.955  1.1708  1.5103 -0.9500
  182SLPC   H6Y20903   2.529   0.162  10.039  0.5545  0.3449 -0.1202
  182SLPC   C3720904   2.629   0.310   9.920 -0.5544 -0.1276  0.1870
  182SLPC   H7X20905   2.725   0.275   9.963 -0.3170  0.4656  0.1367
  182SLPC   H7Y20906   2.631   0.421   9.917 -2.0099 -0.1541 -2.7991
  182SLPC   C3820907   2.622   0.243   9.783 -0.2855  0.1009 -0.3375
  182SLPC   H8X20908   2.532   0.274   9.726 -0.0404 -1.0412 -1.3860
  182SLPC   H8Y20909   2.610   0.135   9.803 -1.7933 -0.0773 -2.1090
  182SLPC   C3920910   2.756   0.266   9.701  0.9373 -0.5486  0.6115
  182SLPC   H9X20911   2.843   0.254   9.769  1.2822 -0.0198  0.2615
  182SLPC   H9Y20912   2.758   0.371   9.665 -0.9496 -0.2166  1.4079
  182SLPC  C31020913   2.753   0.192   9.569 -0.1715  0.3468 -0.2185
  182SLPC  H10X20914   2.673   0.227   9.500 -0.2155  0.7871  0.0586
  182SLPC  H10Y20915   2.715   0.091   9.596 -0.8537  1.0894  1.6622
  182SLPC  C31120916   2.895   0.194   9.510 -0.2553 -0.8426  0.1779
  182SLPC  H11X20917   2.964   0.150   9.586 -1.6449 -2.2214  0.6518
  182SLPC  H11Y20918   2.927   0.292   9.468 -0.6161 -1.6184 -1.9727
  182SLPC  C31220919   2.893   0.115   9.379  0.5734 -1.1048 -0.1593
  182SLPC  H12X20920   2.846   0.177   9.300 -1.0009 -1.6167  0.3749
  182SLPC  H12Y20921   2.848   0.014   9.382 -0.5352 -0.5876  1.1246
  182SLPC  C31320922   3.041   0.100   9.333  0.8210 -0.5000 -0.7684
  182SLPC  H13X20923   3.081   0.007   9.377  1.5166  1.2117  2.3596
  182SLPC  H13Y20924   3.099   0.179   9.385 -0.3983 -0.3315  0.3649
  182SLPC  C31420925   3.079   0.094   9.183  0.0566 -0.3142 -0.0884
  182SLPC  H14X20926   3.082   0.198   9.145  1.3067 -1.0672 -2.1217
  182SLPC  H14Y20927   3.009   0.041   9.115  0.2933  1.6617 -1.9075
  182SLPC  C31520928   3.221   0.031   9.168 -0.0480 -0.0854  0.5287
  182SLPC  H15X20929   3.212  -0.068   9.216 -3.5556 -0.2263 -0.3005
  182SLPC  H15Y20930   3.305   0.092   9.208  0.2034  0.5583 -0.9321
  182SLPC  C31620931   3.244  -0.010   9.026  0.0861 -0.4079  0.2385
  182SLPC  H16X20932   3.152  -0.068   9.000  0.3828 -1.4833  1.5058
  182SLPC  H16Y20933   3.326  -0.085   9.029 -0.6687 -1.2966 -0.7441
  182SLPC  C31720934   3.275   0.102   8.929  0.0093  0.8661 -0.1735
  182SLPC  H17X20935   3.380   0.136   8.942  0.5842  0.0681 -2.6486
  182SLPC  H17Y20936   3.205   0.186   8.950  1.7493  2.0361  1.1377
  182SLPC  C31820937   3.259   0.059   8.775 -0.4583 -0.5058 -0.5253
  182SLPC  H18X20938   3.274   0.150   8.714  0.8472 -0.3781 -0.0272
  182SLPC  H18Y20939   3.154   0.022   8.770 -0.7629  0.5588 -2.5716
  182SLPC  H18Z20940   3.331  -0.016   8.737  0.4209  0.5595 -0.9735
  183SLPC     N20941   3.815   0.728  11.083 -0.1080 -0.2920 -0.1714
  183SLPC   C1320942   3.914   0.630  11.145 -0.3319 -0.5116 -0.2353
  183SLPC  H13A20943   3.873   0.596  11.240  0.6742  0.6436  0.6334
  183SLPC  H13B20944   3.940   0.552  11.076  1.3465 -0.0021 -0.1984
  183SLPC  H13C20945   4.003   0.679  11.183 -0.2429  0.9689 -2.2690
  183SLPC   C1420946   3.843   0.865  11.140 -0.2662  0.4284  0.4318
  183SLPC  H14A20947   3.773   0.945  11.118  0.3065  0.5997 -0.8048
  183SLPC  H14B20948   3.844   0.857  11.248  3.1270 -1.5745  0.3279
  183SLPC  H14C20949   3.942   0.893  11.107  0.6211 -1.3986  1.4322
  183SLPC   C1520950   3.679   0.679  11.114 -0.0742  0.3084  0.5867
  183SLPC  H15A20951   3.659   0.574  11.094  0.0537  0.3530  0.2196
  183SLPC  H15B20952   3.654   0.719  11.211  1.0293  0.2915  0.8887
  183SLPC  H15C20953   3.596   0.722  11.059 -0.5563 -2.0906 -0.6572
  183SLPC   C1220954   3.826   0.734  10.929  0.2460  0.2306 -0.4709
  183SLPC  H12A20955   3.824   0.630  10.900  0.0194  0.3134 -0.7559
  183SLPC  H12B20956   3.923   0.768  10.894 -0.1667  1.5744 -0.3269
  183SLPC   C1120957   3.717   0.810  10.846  0.0989 -0.1674  0.4086
  183SLPC  H11A20958   3.622   0.758  10.870 -0.9353  1.4021 -0.1593
  183SLPC  H11B20959   3.752   0.782  10.744 -0.0404  2.1894 -0.3132
  183SLPC     P20960   3.824   1.044  10.811  0.0289  0.3293 -0.8305
  183SLPC   O1320961   3.790   1.182  10.846  0.0942 -0.0944  0.1013
  183SLPC   O1420962   3.952   0.983  10.859  0.0442 -0.4431  0.2469
  183SLPC   O1220963   3.707   0.952  10.859 -0.1401 -0.3426 -0.5825
  183SLPC   O1120964   3.807   1.034  10.657 -0.3234  0.6306 -0.3534
  183SLPC    C120965   3.688   1.081  10.593  0.1725  0.7062  0.1431
  183SLPC    HA20966   3.629   0.996  10.552 -0.1179  0.9468  0.0667
  183SLPC    HB20967   3.611   1.128  10.658  0.4641  2.1027 -0.5002
  183SLPC    C220968   3.708   1.171  10.472 -0.6244 -0.0734 -0.6011
  183SLPC    HS20969   3.607   1.201  10.435 -1.1898  0.3181  1.2108
  183SLPC   O2120970   3.789   1.110  10.370  0.0839 -0.0488  0.5165
  183SLPC   C2120971   3.748   0.994  10.315 -0.1371  0.2929 -0.1350
  183SLPC   O2220972   3.638   0.945  10.336 -0.1823  0.0807  0.0817
  183SLPC   C2220973   3.844   0.950  10.201  1.1850  0.4101 -0.5753
  183SLPC   H2R20974   3.936   1.012  10.200  0.7668  1.0411 -0.5194
  183SLPC   H2S20975   3.881   0.847  10.223  0.2631 -0.2540 -2.0815
  183SLPC    C320976   3.784   1.299  10.531  0.0439 -0.3740 -0.4073
  183SLPC    HX20977   3.890   1.279  10.556  0.2596  0.1707 -0.8981
  183SLPC    HY20978   3.739   1.329  10.628 -2.4400 -0.2689 -1.5464
  183SLPC   O3120979   3.777   1.406  10.436  1.0345  0.1359 -0.5659
  183SLPC   C3120980   3.875   1.499  10.442  0.1863  0.0090 -0.2076
  183SLPC   O3220981   3.972   1.495  10.515 -0.0496 -0.3558  0.5569
  183SLPC   C3220982   3.860   1.595  10.326 -0.1213 -0.3938 -0.7706
  183SLPC   H2X20983   3.805   1.685  10.360  0.1122 -0.9455  1.0991
  183SLPC   H2Y20984   3.792   1.550  10.250  1.4734  0.0133 -2.4737
  183SLPC   C2320985   3.768   0.958  10.068  0.6062  0.1180  0.3630
  183SLPC   H3R20986   3.660   0.933  10.068  0.8825 -1.1032 -0.2377
  183SLPC   H3S20987   3.819   0.880  10.008  0.7114  1.2434 -1.0274
  183SLPC   C2420988   3.785   1.089   9.986  0.5393 -0.0991  0.5622
  183SLPC   H4R20989   3.891   1.123   9.993  1.0929 -1.6724  0.2417
  183SLPC   H4S20990   3.716   1.167  10.024 -0.1918 -0.2556 -0.4475
  183SLPC   C2520991   3.721   1.067   9.844 -0.3321  0.0918  0.6672
  183SLPC   H5R20992   3.715   1.157   9.780  2.2916 -0.9725 -1.1254
  183SLPC   H5S20993   3.616   1.042   9.872 -0.4597  1.2171  1.2475
  183SLPC   C2620994   3.784   0.955   9.757 -0.1411 -1.0292 -0.5791
  183SLPC   H6R20995   3.741   0.950   9.654  2.2268  0.1312 -1.6625
  183SLPC   H6S20996   3.759   0.862   9.812  0.4466  0.1092  1.6374
  183SLPC   C2720997   3.938   0.983   9.747  0.6794 -0.3930 -0.0167
  183SLPC   H7R20998   3.988   0.952   9.841 -0.3273 -0.5897  0.4605
  183SLPC   H7S20999   3.952   1.093   9.741 -1.7875 -0.0755 -0.6603
  183SLPC   C2821000   3.996   0.933   9.614  0.0559  0.0622 -0.3917
  183SLPC   H8R21001   4.088   0.985   9.578  1.2833 -2.0951 -0.4410
  183SLPC   H8S21002   3.920   0.942   9.533 -0.0106  2.2115 -0.1351
  183SLPC   C2921003   4.036   0.794   9.639  0.7131 -0.3726  0.2077
  183SLPC   H9R21004   3.958   0.735   9.688 -0.5255  0.8603 -0.2669
  183SLPC  C21021005   4.150   0.723   9.611  0.7782 -0.0841  0.1766
  183SLPC  H10R21006   4.162   0.623   9.655 -2.1893  0.3794  2.1661
  183SLPC  C21121007   4.270   0.783   9.548 -0.2788  0.8478 -0.0281
  183SLPC  H11R21008   4.233   0.872   9.491  0.7872  2.3014  1.5038
  183SLPC  H11S21009   4.313   0.717   9.470 -1.1315 -0.3056  0.4645
  183SLPC  C21221010   4.379   0.825   9.636 -1.1034  0.5108  1.3954
  183SLPC  H12R21011   4.347   0.896   9.713 -2.8591  1.5554 -0.2515
  183SLPC  C21321012   4.510   0.809   9.627 -0.7825  0.7607 -0.7788
  183SLPC  H13R21013   4.574   0.850   9.706 -1.4277  0.0979  0.0991
  183SLPC  C21421014   4.592   0.743   9.526 -0.2484  0.2148  0.5478
  183SLPC  H14R21015   4.520   0.691   9.459 -0.4850  2.2517 -0.7986
  183SLPC  H14S21016   4.658   0.670   9.578  0.8118  2.1249  1.9338
  183SLPC  C21521017   4.697   0.823   9.449 -0.2435 -0.7458  0.0335
  183SLPC  H15R21018   4.748   0.759   9.374 -0.0526 -0.4221 -0.1141
  183SLPC  H15S21019   4.777   0.867   9.512 -1.2747  1.8017 -0.3669
  183SLPC  C21621020   4.634   0.938   9.365 -0.2658 -0.5748 -0.4758
  183SLPC  H16R21021   4.608   1.002   9.451  0.0600 -0.8825 -0.1462
  183SLPC  H16S21022   4.531   0.906   9.336 -1.4914  0.1088  2.9349
  183SLPC  C21721023   4.717   1.021   9.267  0.0187 -0.2926 -0.3874
  183SLPC  H17R21024   4.815   1.032   9.316 -0.7196  4.6145  0.2458
  183SLPC  H17S21025   4.690   1.128   9.271  2.0074  0.3884 -3.5203
  183SLPC  C21821026   4.741   0.956   9.123 -0.0532  0.5797 -0.1018
  183SLPC  H18R21027   4.647   0.947   9.064 -0.3178  0.4373  0.3422
  183SLPC  H18S21028   4.781   0.854   9.141 -0.2812  0.5347  0.1457
  183SLPC  H18T21029   4.804   1.028   9.067  1.7480 -0.0927  1.0079
  183SLPC   C3321030   3.993   1.658  10.270 -0.0906 -0.1920 -0.2650
  183SLPC   H3X21031   4.053   1.698  10.354 -0.6994 -1.2511  0.6899
  183SLPC   H3Y21032   3.976   1.744  10.201  1.1443  0.7410  0.5802
  183SLPC   C3421033   4.073   1.549  10.200  0.0016  0.4803 -0.3281
  183SLPC   H4X21034   4.118   1.487  10.280 -1.3008 -0.3243 -0.1958
  183SLPC   H4Y21035   4.152   1.613  10.156 -0.6956  0.4806 -1.6106
  183SLPC   C3521036   4.003   1.475  10.087 -0.4038  0.2798  0.0167
  183SLPC   H5X21037   3.908   1.532  10.072 -1.5210 -1.2868  0.9601
  183SLPC   H5Y21038   3.971   1.370  10.100 -0.1766  0.5061  2.6672
  183SLPC   C3621039   4.094   1.474   9.964 -0.6382  0.5087  0.5018
  183SLPC   H6X21040   4.186   1.416   9.991 -0.2942  0.9627  0.3059
  183SLPC   H6Y21041   4.112   1.582   9.944 -0.2000  0.1632 -1.0218
  183SLPC   C3721042   4.024   1.432   9.832  0.1748  0.0965 -0.3984
  183SLPC   H7X21043   4.001   1.324   9.838  0.3266  0.0899  0.0298
  183SLPC   H7Y21044   4.095   1.442   9.747 -0.4672  1.9431 -0.7561
  183SLPC   C3821045   3.895   1.508   9.804  0.1669 -0.7428  0.2176
  183SLPC   H8X21046   3.919   1.616   9.794 -3.5783 -0.0445 -2.3830
  183SLPC   H8Y21047   3.822   1.484   9.884  0.4139  1.3089  1.0840
  183SLPC   C3921048   3.842   1.455   9.671  0.1588  0.1686  0.0506
  183SLPC   H9X21049   3.745   1.506   9.651  0.2644  0.2827 -0.1688
  183SLPC   H9Y21050   3.828   1.345   9.667  0.3009  0.2032 -4.0655
  183SLPC  C31021051   3.922   1.482   9.542 -0.2135  0.0525 -0.2394
  183SLPC  H10X21052   4.029   1.455   9.556 -0.8247 -1.7580  1.1049
  183SLPC  H10Y21053   3.928   1.591   9.522 -4.2355  0.1082 -1.5781
  183SLPC  C31121054   3.876   1.401   9.417  0.1658  0.5110  0.0800
  183SLPC  H11X21055   3.929   1.437   9.327 -0.5325 -0.0823 -0.5730
  183SLPC  H11Y21056   3.768   1.421   9.399 -0.3813  2.0107  4.3984
  183SLPC  C31221057   3.894   1.247   9.425  0.5791  0.5022 -0.4642
  183SLPC  H12X21058   3.839   1.196   9.507  0.6553  0.2869 -0.5478
  183SLPC  H12Y21059   4.003   1.228   9.433  0.6292 -0.7236 -3.4269
  183SLPC  C31321060   3.850   1.177   9.287  0.2829  0.1877 -0.0494
  183SLPC  H13X21061   3.947   1.145   9.242  0.1931 -0.3330  0.1235
  183SLPC  H13Y21062   3.820   1.255   9.214 -0.5567  0.4913  0.6149
  183SLPC  C31421063   3.763   1.059   9.290  0.0968 -0.1714  0.1878
  183SLPC  H14X21064   3.657   1.087   9.305  0.4477  1.4605 -0.3107
  183SLPC  H14Y21065   3.788   0.997   9.379  2.5822  0.5584  0.0304
  183SLPC  C31521066   3.775   0.964   9.169 -0.3834  0.0854 -0.0482
  183SLPC  H15X21067   3.724   0.877   9.216 -2.3846  1.0644 -0.3316
  183SLPC  H15Y21068   3.883   0.940   9.159  0.1326  1.6391  1.6834
  183SLPC  C31621069   3.705   1.003   9.037 -0.6919  0.1927 -0.6242
  183SLPC  H16X21070   3.755   1.091   8.991  0.9300  0.0194  0.7420
  183SLPC  H16Y21071   3.602   1.033   9.065 -0.2734 -1.1803  2.6338
  183SLPC  C31721072   3.699   0.885   8.934 -0.4247 -0.0249 -0.2033
  183SLPC  H17X21073   3.650   0.919   8.841  1.0432  0.2829 -0.8831
  183SLPC  H17Y21074   3.628   0.809   8.975 -0.0236  0.6379  1.7874
  183SLPC  C31821075   3.825   0.799   8.895  0.0047 -0.5285  0.6351
  183SLPC  H18X21076   3.808   0.742   8.801  0.0529  0.8365 -0.2205
  183SLPC  H18Y21077   3.871   0.733   8.971  1.9376 -1.0508 -0.9394
  183SLPC  H18Z21078   3.897   0.878   8.864  0.5113 -1.3075 -0.1936
  184SLPC     N21079   5.767   5.204  10.890  0.4711 -0.0787  1.1424
  184SLPC   C1321080   5.620   5.207  10.910  0.3409  0.3683  0.1344
  184SLPC  H13A21081   5.583   5.109  10.887 -0.3304  0.1386  2.1033
  184SLPC  H13B21082   5.594   5.227  11.013  1.1832 -0.5920  0.5487
  184SLPC  H13C21083   5.588   5.292  10.851  0.3441 -0.2493 -0.7493
  184SLPC   C1421084   5.817   5.093  10.982 -0.6639  0.0631  0.2229
  184SLPC  H14A21085   5.804   5.120  11.085 -1.2320 -1.0537  0.4542
  184SLPC  H14B21086   5.760   5.003  10.965 -2.3115  1.0049  0.6782
  184SLPC  H14C21087   5.921   5.076  10.955 -0.5605  1.3745 -0.2362
  184SLPC   C1521088   5.830   5.332  10.940 -0.4596  0.2504  0.4643
  184SLPC  H15A21089   5.938   5.320  10.935 -0.6994 -3.1353  1.8711
  184SLPC  H15B21090   5.791   5.414  10.881  0.2910  0.4039  0.1814
  184SLPC  H15C21091   5.803   5.348  11.043  2.6002 -0.3622  1.4028
  184SLPC   C1221092   5.794   5.184  10.746  0.0080 -0.6735  0.0127
  184SLPC  H12A21093   5.756   5.084  10.730  1.3403 -1.6404  2.6038
  184SLPC  H12B21094   5.900   5.185  10.726  0.0531  0.4876  0.2643
  184SLPC   C1121095   5.736   5.285  10.641  0.6534 -0.9856 -0.1088
  184SLPC  H11A21096   5.626   5.287  10.654  0.7461  2.4696  0.6478
  184SLPC  H11B21097   5.745   5.244  10.538  2.6763 -0.5829 -0.1218
  184SLPC     P21098   5.915   5.476  10.595 -0.2395  0.1876 -0.4375
  184SLPC   O1321099   5.900   5.623  10.583  0.0023  0.0914  0.0070
  184SLPC   O1421100   6.034   5.432  10.675 -0.2360 -0.0793  0.3753
  184SLPC   O1221101   5.777   5.424  10.652 -0.7230 -0.5440 -0.3866
  184SLPC   O1121102   5.931   5.413  10.451 -0.1903  0.5566 -0.1026
  184SLPC    C121103   5.999   5.501  10.355  0.7214 -0.4387 -1.3880
  184SLPC    HA21104   5.938   5.586  10.319 -1.1213 -1.4929 -0.8021
  184SLPC    HB21105   6.090   5.542  10.404  0.0111 -0.9958  0.4366
  184SLPC    C221106   6.047   5.427  10.225  0.2300  0.6026 -0.0943
  184SLPC    HS21107   6.134   5.482  10.184  0.1965  1.5579  1.0793
  184SLPC   O2121108   5.940   5.435  10.121  0.1774  0.4822 -0.5635
  184SLPC   C2121109   5.939   5.545  10.043 -0.0025  0.7277 -0.3308
  184SLPC   O2221110   6.023   5.632  10.047  0.4496  0.1666  0.3074
  184SLPC   C2221111   5.840   5.529   9.920  0.2469  0.0252 -0.7780
  184SLPC   H2R21112   5.831   5.418   9.913 -1.7397  0.1007  0.2213
  184SLPC   H2S21113   5.741   5.573   9.944  0.3935 -0.2777  0.4470
  184SLPC    C321114   6.075   5.278  10.257  0.0325 -0.2509 -0.2761
  184SLPC    HX21115   6.013   5.236  10.339  0.0611 -1.1301 -0.6944
  184SLPC    HY21116   6.174   5.272  10.307 -0.1777  0.4738  0.2397
  184SLPC   O3121117   6.092   5.199  10.139  0.1228 -0.8786 -0.4021
  184SLPC   C3121118   5.988   5.136  10.091  0.0353  0.6058 -0.4259
  184SLPC   O3221119   5.885   5.120  10.155  0.3531 -0.8157 -0.2803
  184SLPC   C3221120   6.002   5.082   9.951 -0.9664  0.3911  0.9834
  184SLPC   H2X21121   5.907   5.035   9.918 -1.6047  1.7280  0.8972
  184SLPC   H2Y21122   6.079   5.002   9.954 -0.9027  0.2975 -1.8134
  184SLPC   C2321123   5.880   5.589   9.785 -0.1046 -0.5245  0.3453
  184SLPC   H3R21124   5.966   5.536   9.738  1.1870  0.2799  1.7263
  184SLPC   H3S21125   5.925   5.687   9.812  1.2810 -1.1626  0.4361
  184SLPC   C2421126   5.760   5.612   9.689 -0.4897  0.5246 -0.4767
  184SLPC   H4R21127   5.678   5.672   9.735 -1.0435 -0.7491  0.2262
  184SLPC   H4S21128   5.729   5.506   9.678  0.5940 -0.0271  1.4718
  184SLPC   C2521129   5.800   5.671   9.553 -0.2730  0.6273  0.7776
  184SLPC   H5R21130   5.905   5.639   9.533  0.4504  1.8929  2.4370
  184SLPC   H5S21131   5.812   5.781   9.555  1.6139  0.4592 -0.2129
  184SLPC   C2621132   5.711   5.639   9.429  0.3249 -0.3519 -0.1318
  184SLPC   H6R21133   5.604   5.666   9.447 -0.0945 -1.9102 -0.2096
  184SLPC   H6S21134   5.712   5.529   9.415 -0.8837 -0.5642  1.2860
  184SLPC   C2721135   5.760   5.707   9.297  0.5006  0.3925 -0.3172
  184SLPC   H7R21136   5.871   5.709   9.289  0.8116 -0.5622  3.3050
  184SLPC   H7S21137   5.731   5.813   9.315  0.4223  0.2443  0.4418
  184SLPC   C2821138   5.691   5.660   9.165  0.3625 -0.6593  0.1143
  184SLPC   H8R21139   5.704   5.735   9.083 -0.0738 -0.7890 -0.0783
  184SLPC   H8S21140   5.582   5.649   9.185  0.0822 -0.1662 -1.0313
  184SLPC   C2921141   5.758   5.534   9.112 -1.2443 -0.8025 -0.1083
  184SLPC   H9R21142   5.863   5.522   9.142 -1.0468  1.6292  0.3170
  184SLPC  C21021143   5.698   5.469   9.013  0.1206 -0.6339 -0.4378
  184SLPC  H10R21144   5.734   5.366   8.995  0.4645 -0.9980  2.0393
  184SLPC  C21121145   5.570   5.493   8.939 -0.1731 -0.3100  0.3705
  184SLPC  H11R21146   5.491   5.512   9.015 -1.3298  3.8349 -1.6771
  184SLPC  H11S21147   5.565   5.392   8.893 -4.1518 -1.4014  2.9500
  184SLPC  C21221148   5.582   5.609   8.837 -0.1213  0.2392  0.9565
  184SLPC  H12R21149   5.672   5.628   8.776 -1.7084 -0.2267 -1.6095
  184SLPC  C21321150   5.474   5.678   8.792  0.2766 -0.7702  1.3079
  184SLPC  H13R21151   5.473   5.758   8.718 -0.1322 -0.0345  2.1030
  184SLPC  C21421152   5.332   5.657   8.849 -0.1789  0.3925 -0.3463
  184SLPC  H14R21153   5.284   5.755   8.868  0.9902  0.9585 -0.2711
  184SLPC  H14S21154   5.340   5.602   8.945 -0.6988  1.1715  0.1473
  184SLPC  C21521155   5.261   5.569   8.754 -0.3396 -0.0123  0.3215
  184SLPC  H15R21156   5.283   5.602   8.650  1.1354 -1.4837  0.1633
  184SLPC  H15S21157   5.151   5.572   8.772 -0.2972  0.3444  0.5346
  184SLPC  C21621158   5.277   5.415   8.771 -0.1524 -1.0005  0.0177
  184SLPC  H16R21159   5.220   5.391   8.863  0.0208 -0.1676  0.3455
  184SLPC  H16S21160   5.379   5.373   8.787  1.0223  1.1290 -1.4670
  184SLPC  C21721161   5.210   5.350   8.650  0.3482  0.4378  0.0218
  184SLPC  H17R21162   5.266   5.367   8.555 -0.6005  1.9056 -0.2908
  184SLPC  H17S21163   5.114   5.402   8.630 -0.2939 -0.1204  1.6003
  184SLPC  C21821164   5.175   5.199   8.672 -0.4218 -0.7644  0.3063
  184SLPC  H18R21165   5.271   5.145   8.666  0.5098  0.4727  3.5336
  184SLPC  H18S21166   5.117   5.151   8.590 -0.4106  2.5845 -1.7814
  184SLPC  H18T21167   5.118   5.179   8.765 -2.5936 -0.0401 -0.8284
  184SLPC   C3321168   6.039   5.183   9.852 -0.7359 -0.6138 -0.0516
  184SLPC   H3X21169   6.136   5.217   9.895 -1.0707  0.7256 -0.3410
  184SLPC   H3Y21170   5.973   5.272   9.858  0.4361  0.2641  0.1643
  184SLPC   C3421171   6.048   5.142   9.705 -0.2503 -0.1810 -0.1638
  184SLPC   H4X21172   5.947   5.125   9.662 -0.0376  1.8965 -1.5466
  184SLPC   H4Y21173   6.107   5.048   9.699  0.5444  0.1365  2.1419
  184SLPC   C3521174   6.135   5.246   9.624  0.9372  0.4043 -0.4082
  184SLPC   H5X21175   6.237   5.232   9.663  0.4286  0.6606  1.0357
  184SLPC   H5Y21176   6.091   5.348   9.630 -2.3949 -0.8647 -1.5147
  184SLPC   C3621177   6.141   5.203   9.483  0.3008 -0.2194  0.1285
  184SLPC   H6X21178   6.166   5.096   9.468 -1.3043 -0.8669  1.8505
  184SLPC   H6Y21179   6.217   5.270   9.437 -0.2982  1.0306  0.9393
  184SLPC   C3721180   6.008   5.214   9.396 -0.1181  0.2848  0.0611
  184SLPC   H7X21181   5.992   5.324   9.395 -1.4233  0.1467 -3.6487
  184SLPC   H7Y21182   5.932   5.153   9.449  2.1261 -2.7284 -0.0530
  184SLPC   C3821183   6.034   5.165   9.252 -0.3794 -0.1552 -0.5106
  184SLPC   H8X21184   6.063   5.058   9.261  0.4494 -0.1236 -2.4793
  184SLPC   H8Y21185   6.118   5.217   9.200 -0.2189  0.7201  0.5915
  184SLPC   C3921186   5.908   5.174   9.170 -0.3397 -0.2598  0.0532
  184SLPC   H9X21187   5.876   5.280   9.171  0.3017 -0.0477  2.8960
  184SLPC   H9Y21188   5.826   5.117   9.219  0.2834 -2.7312 -1.6819
  184SLPC  C31021189   5.936   5.141   9.023 -0.0349  0.8266 -0.2897
  184SLPC  H10X21190   6.036   5.180   8.994 -0.7515  2.4117 -0.6860
  184SLPC  H10Y21191   5.855   5.192   8.967  0.1426 -0.3783 -1.6752
  184SLPC  C31121192   5.932   4.990   8.989 -0.3662  0.3648 -0.3481
  184SLPC  H11X21193   5.830   4.946   8.997 -0.8952  1.0855 -2.7986
  184SLPC  H11Y21194   5.994   4.932   9.061  0.7592 -0.0568 -1.6386
  184SLPC  C31221195   5.988   4.961   8.851 -0.4491  0.2052 -0.1198
  184SLPC  H12X21196   6.082   5.017   8.836  0.6203 -2.0909 -2.2130
  184SLPC  H12Y21197   5.920   5.009   8.778  0.8635 -0.3658 -1.7336
  184SLPC  C31321198   6.008   4.811   8.830 -0.0600  0.6535 -0.4496
  184SLPC  H13X21199   5.918   4.756   8.863 -0.5652  1.8261  0.1721
  184SLPC  H13Y21200   6.091   4.783   8.898 -0.6711  0.1943  0.1129
  184SLPC  C31421201   6.056   4.779   8.689 -0.3098 -0.5981 -0.2403
  184SLPC  H14X21202   6.123   4.863   8.661  1.6054 -2.6361 -1.9870
  184SLPC  H14Y21203   5.963   4.776   8.628 -0.3276 -1.5098 -0.1650
  184SLPC  C31521204   6.131   4.649   8.682 -0.3950  0.2375 -0.2689
  184SLPC  H15X21205   6.156   4.622   8.577 -0.9638  0.3739 -0.4408
  184SLPC  H15Y21206   6.073   4.565   8.725 -1.8253  0.4706 -1.7072
  184SLPC  C31621207   6.274   4.651   8.735 -0.2991 -0.1126 -0.3830
  184SLPC  H16X21208   6.314   4.548   8.722  1.5592  0.6286 -0.5733
  184SLPC  H16Y21209   6.289   4.674   8.843 -2.6360  0.7075 -0.1893
  184SLPC  C31721210   6.365   4.743   8.655 -0.1865  0.2259 -0.3338
  184SLPC  H17X21211   6.367   4.847   8.694  0.1528 -0.4662  1.5231
  184SLPC  H17Y21212   6.330   4.746   8.549 -0.7485  0.5148 -0.1432
  184SLPC  C31821213   6.505   4.679   8.649 -0.3179  0.3603 -0.1376
  184SLPC  H18X21214   6.498   4.573   8.614  1.0651 -0.3275  1.6125
  184SLPC  H18Y21215   6.551   4.674   8.750 -0.7764 -0.9564  0.0268
  184SLPC  H18Z21216   6.566   4.732   8.572 -1.1246  0.3008 -0.8270
  185SLPC     N21217   3.649   2.517   6.667  0.3731  0.8588 -0.6963
  185SLPC   C1321218   3.770   2.524   6.580  0.1734  0.5776 -0.3162
  185SLPC  H13A21219   3.765   2.434   6.521 -3.8921  0.0557  0.6683
  185SLPC  H13B21220   3.771   2.611   6.517  0.6692  0.9391  0.1894
  185SLPC  H13C21221   3.864   2.520   6.633  0.7814  1.1207 -1.3318
  185SLPC   C1421222   3.667   2.402   6.760 -0.0130  0.1744  0.0990
  185SLPC  H14A21223   3.585   2.396   6.831 -0.3665  2.1953 -0.1094
  185SLPC  H14B21224   3.682   2.312   6.701 -0.2241 -0.2151  0.6380
  185SLPC  H14C21225   3.756   2.425   6.816 -0.1157  1.6627 -0.3387
  185SLPC   C1521226   3.534   2.501   6.574 -0.1386  0.0634 -0.5610
  185SLPC  H15A21227   3.541   2.411   6.515 -0.6063 -1.8407  2.2067
  185SLPC  H15B21228   3.444   2.492   6.633  0.1489  1.6416  0.1559
  185SLPC  H15C21229   3.529   2.590   6.512 -1.5695 -1.2637 -2.3921
  185SLPC   C1221230   3.629   2.645   6.752  0.1345  0.5329 -0.1878
  185SLPC  H12A21231   3.712   2.652   6.822 -0.1705 -0.4808  0.2926
  185SLPC  H12B21232   3.539   2.632   6.811 -1.2019  0.7549 -2.1446
  185SLPC   C1121233   3.609   2.777   6.677  0.3077  0.2873  0.5190
  185SLPC  H11A21234   3.591   2.866   6.741 -0.5200  0.1027  0.5496
  185SLPC  H11B21235   3.515   2.765   6.620 -1.5351  0.5311  3.3810
  185SLPC     P21236   3.860   2.858   6.648  0.2416 -0.3430  0.0993
  185SLPC   O1321237   3.976   2.827   6.567  0.3887 -0.1946  0.2560
  185SLPC   O1421238   3.832   2.999   6.679  0.0181  0.1479  0.3492
  185SLPC   O1221239   3.721   2.802   6.582 -0.2822  0.7947  0.3425
  185SLPC   O1121240   3.877   2.771   6.773  0.1164  0.3533  0.5328
  185SLPC    C121241   3.998   2.756   6.853 -0.3278 -0.0238  0.2954
  185SLPC    HA21242   4.074   2.696   6.798  0.1314 -0.3673  1.2894
  185SLPC    HB21243   4.042   2.856   6.873 -0.6376 -0.0681  1.1941
  185SLPC    C221244   3.979   2.669   6.980 -0.0228  0.3758  0.0090
  185SLPC    HS21245   4.081   2.656   7.022  0.3879  1.4782 -0.6268
  185SLPC   O2121246   3.927   2.537   6.939  0.4449  0.0603  0.0397
  185SLPC   C2121247   4.017   2.440   6.922  0.3159  0.4838  0.1951
  185SLPC   O2221248   4.139   2.454   6.935 -0.4412  0.3693  0.0289
  185SLPC   C2221249   3.955   2.297   6.923  0.1537  0.5783  0.7961
  185SLPC   H2R21250   3.848   2.316   6.948 -0.2941 -1.6643  0.6431
  185SLPC   H2S21251   3.964   2.243   6.826 -0.7949  2.7916 -0.5626
  185SLPC    C321252   3.878   2.732   7.073  0.5568 -0.0321 -0.1630
  185SLPC    HX21253   3.776   2.734   7.027  0.2193 -1.1756  0.5214
  185SLPC    HY21254   3.901   2.841   7.065 -0.0356  0.1203  0.1715
  185SLPC   O3121255   3.889   2.698   7.210 -0.3705 -0.1541  0.3098
  185SLPC   C3121256   3.797   2.615   7.261 -0.3383 -0.0672 -0.1588
  185SLPC   O3221257   3.699   2.568   7.197 -0.2277  0.2699 -0.1331
  185SLPC   C3221258   3.841   2.565   7.397  0.0141  0.5216  0.3207
  185SLPC   H2X21259   3.860   2.660   7.453 -0.5427  0.5970  0.3889
  185SLPC   H2Y21260   3.939   2.518   7.376  0.0362  0.7517 -0.0981
  185SLPC   C2321261   4.018   2.200   7.026 -0.1294 -0.5520  1.0480
  185SLPC   H3R21262   4.128   2.201   7.019  0.1023 -0.5292  4.0914
  185SLPC   H3S21263   3.971   2.101   7.011  1.4989 -1.2065  0.2152
  185SLPC   C2421264   3.977   2.233   7.168  0.8230  0.0380 -0.5034
  185SLPC   H4R21265   3.870   2.208   7.186  1.1821 -1.5277 -0.4375
  185SLPC   H4S21266   4.004   2.339   7.187  0.3158  0.4295 -1.8660
  185SLPC   C2521267   4.066   2.161   7.264  0.7166 -0.1155  1.0642
  185SLPC   H5R21268   4.172   2.192   7.256  0.4896  0.9002  1.8352
  185SLPC   H5S21269   4.059   2.054   7.233 -0.8039  0.1533  0.4185
  185SLPC   C2621270   4.020   2.159   7.409  0.8611 -0.8297 -0.1071
  185SLPC   H6R21271   3.924   2.104   7.418  0.2124  0.3977  0.4615
  185SLPC   H6S21272   4.010   2.264   7.442  1.3110 -0.1385 -2.0979
  185SLPC   C2721273   4.124   2.099   7.506 -0.1430 -0.0404  0.7002
  185SLPC   H7R21274   4.227   2.136   7.484 -0.5613 -0.1967 -1.6089
  185SLPC   H7S21275   4.125   1.988   7.499 -0.3904 -0.0126  0.2028
  185SLPC   C2821276   4.094   2.132   7.660 -0.8148 -0.2672 -0.3291
  185SLPC   H8R21277   4.004   2.072   7.683 -0.4038 -1.8574 -2.7107
  185SLPC   H8S21278   4.077   2.242   7.670  2.7000  0.3762 -0.7103
  185SLPC   C2921279   4.216   2.088   7.744  0.8231  0.0351 -0.0855
  185SLPC   H9R21280   4.306   2.097   7.681  0.5026  0.5585 -0.4750
  185SLPC  C21021281   4.212   2.057   7.871 -0.0699 -0.7673 -0.0599
  185SLPC  H10R21282   4.302   2.039   7.931  0.3943 -1.2228 -0.8920
  185SLPC  C21121283   4.087   2.061   7.955  0.7372  0.8981  0.0010
  185SLPC  H11R21284   4.015   2.131   7.906  0.0457  1.0665  1.2394
  185SLPC  H11S21285   4.117   2.098   8.056 -1.7615 -0.1367  1.1718
  185SLPC  C21221286   4.024   1.919   7.965  0.0993 -0.5715 -0.1374
  185SLPC  H12R21287   3.997   1.869   7.870  1.4372  1.2585 -1.5331
  185SLPC  C21321288   4.007   1.841   8.074  0.2901  0.5510  0.2140
  185SLPC  H13R21289   3.970   1.739   8.055  3.2529 -0.3366 -1.0734
  185SLPC  C21421290   4.053   1.860   8.210 -0.4965  0.2917 -0.3670
  185SLPC  H14R21291   4.125   1.944   8.220  1.1014 -1.2859  1.7285
  185SLPC  H14S21292   4.097   1.765   8.246 -1.3013  1.6447  4.4752
  185SLPC  C21521293   3.931   1.890   8.295 -0.4529  0.1424  0.2996
  185SLPC  H15R21294   3.865   1.975   8.266  0.8009  0.1638 -2.6587
  185SLPC  H15S21295   3.973   1.919   8.394  1.4213 -0.6843 -0.2217
  185SLPC  C21621296   3.846   1.768   8.327  0.2469 -0.7051  0.1261
  185SLPC  H16R21297   3.912   1.685   8.357  1.9842  0.4154 -0.5291
  185SLPC  H16S21298   3.787   1.741   8.236  0.6523  2.0290 -1.0158
  185SLPC  C21721299   3.738   1.795   8.436 -0.2777 -0.3369  0.1244
  185SLPC  H17R21300   3.654   1.863   8.409  0.5414  1.2446  1.5180
  185SLPC  H17S21301   3.790   1.856   8.512 -1.5462 -0.6451  1.2750
  185SLPC  C21821302   3.679   1.664   8.488 -0.2921  0.3266 -0.3225
  185SLPC  H18R21303   3.628   1.677   8.586  0.0419  2.5366 -0.4158
  185SLPC  H18S21304   3.765   1.595   8.491  1.0210  1.9432  0.0858
  185SLPC  H18T21305   3.601   1.621   8.422 -0.3325 -1.3970  0.8259
  185SLPC   C3321306   3.744   2.466   7.471 -0.2330  0.1296  0.6562
  185SLPC   H3X21307   3.724   2.378   7.407  2.1565 -0.9857  1.3874
  185SLPC   H3Y21308   3.653   2.524   7.495  0.0240  1.7034 -1.9160
  185SLPC   C3421309   3.804   2.412   7.606 -0.3864  0.2721 -0.4208
  185SLPC   H4X21310   3.906   2.373   7.583 -0.1723 -0.0978  1.1053
  185SLPC   H4Y21311   3.738   2.328   7.637  2.3624 -1.6698  0.4447
  185SLPC   C3521312   3.825   2.518   7.713 -0.4226 -0.7356  0.0642
  185SLPC   H5X21313   3.739   2.587   7.727 -1.2137 -1.9657  1.3537
  185SLPC   H5Y21314   3.899   2.589   7.669  0.9278 -1.0181  1.8206
  185SLPC   C3621315   3.888   2.473   7.849 -0.9180  0.6096 -0.4404
  185SLPC   H6X21316   3.934   2.567   7.887  0.4445  0.9140 -2.7519
  185SLPC   H6Y21317   3.978   2.410   7.834 -0.5323  1.3231 -1.1615
  185SLPC   C3721318   3.785   2.415   7.942 -0.3501  0.1571  0.7485
  185SLPC   H7X21319   3.781   2.312   7.900 -1.9576  0.1768  0.8329
  185SLPC   H7Y21320   3.691   2.470   7.917 -0.7670 -0.2956  1.3087
  185SLPC   C3821321   3.814   2.424   8.089 -0.0306 -0.7064  0.2668
  185SLPC   H8X21322   3.712   2.406   8.129 -0.1037  0.3333  0.5686
  185SLPC   H8Y21323   3.832   2.533   8.106  0.1328 -0.4577 -1.4078
  185SLPC   C3921324   3.924   2.334   8.144 -0.4516 -0.3047 -0.1942
  185SLPC   H9X21325   4.015   2.379   8.100 -1.1271  0.0246 -1.2774
  185SLPC   H9Y21326   3.909   2.228   8.117 -1.7023 -0.2781  0.3622
  185SLPC  C31021327   3.952   2.333   8.298  0.1726 -0.2998 -0.3200
  185SLPC  H10X21328   3.992   2.429   8.336 -0.4192 -1.3871  3.2005
  185SLPC  H10Y21329   4.035   2.267   8.331  0.5502  0.9236  1.2640
  185SLPC  C31121330   3.831   2.291   8.373  0.0718  0.5868 -0.2375
  185SLPC  H11X21331   3.777   2.226   8.301  2.1829 -0.6473 -0.7499
  185SLPC  H11Y21332   3.761   2.374   8.397 -1.1868 -0.6659  0.5321
  185SLPC  C31221333   3.854   2.202   8.494  0.2269  0.0671 -0.0474
  185SLPC  H12X21334   3.932   2.126   8.474  0.5043 -0.0877  1.4930
  185SLPC  H12Y21335   3.759   2.153   8.524 -0.0605 -0.8221 -2.3386
  185SLPC  C31321336   3.913   2.286   8.609 -0.3988  0.9205 -0.4159
  185SLPC  H13X21337   3.848   2.373   8.633 -2.7712 -0.3114 -2.1983
  185SLPC  H13Y21338   4.014   2.314   8.574 -0.2659 -0.2875 -1.0295
  185SLPC  C31421339   3.927   2.204   8.738 -0.0566  0.0501 -0.0432
  185SLPC  H14X21340   4.028   2.157   8.744  0.3857  1.0020  0.0844
  185SLPC  H14Y21341   3.856   2.120   8.740  0.4789 -0.4028  3.9948
  185SLPC  C31521342   3.922   2.289   8.864  0.4010  0.0198  1.0462
  185SLPC  H15X21343   3.834   2.357   8.863  0.9464  0.8579 -3.2769
  185SLPC  H15Y21344   4.007   2.361   8.864 -0.7970  1.4535  0.2299
  185SLPC  C31621345   3.903   2.208   8.997 -0.4025  0.1914  0.4293
  185SLPC  H16X21346   3.998   2.167   9.037 -0.2781 -0.2564 -0.3296
  185SLPC  H16Y21347   3.826   2.133   8.968 -0.1369  1.2211 -3.1444
  185SLPC  C31721348   3.831   2.298   9.105  0.4488  0.9792  0.1208
  185SLPC  H17X21349   3.730   2.331   9.071 -0.4218 -0.6616  1.0785
  185SLPC  H17Y21350   3.881   2.397   9.107 -1.1522  1.7917  1.0376
  185SLPC  C31821351   3.812   2.228   9.236  0.5893 -0.0014 -0.1977
  185SLPC  H18X21352   3.796   2.118   9.231  1.1512 -0.1218  0.6118
  185SLPC  H18Y21353   3.724   2.268   9.291 -0.0982  0.8979 -1.9165
  185SLPC  H18Z21354   3.892   2.256   9.307  1.3546 -1.1900 -0.5702
  186SLPC     N21355   4.832   4.170   5.949  0.3559  0.3956 -0.4221
  186SLPC   C1321356   4.952   4.242   5.897 -0.0755 -0.2868 -0.4020
  186SLPC  H13A21357   4.940   4.278   5.796  0.7703  1.7336  0.2024
  186SLPC  H13B21358   4.962   4.331   5.958 -1.2703 -0.7028  0.4352
  186SLPC  H13C21359   5.036   4.174   5.900  1.8418  2.0693  0.9532
  186SLPC   C1421360   4.790   4.066   5.843 -0.6742 -0.3100 -0.0553
  186SLPC  H14A21361   4.705   4.010   5.877 -0.3944 -0.0494  1.0814
  186SLPC  H14B21362   4.777   4.135   5.761  0.5881  1.8308  1.5006
  186SLPC  H14C21363   4.868   3.994   5.822 -1.2731 -0.8522 -0.4157
  186SLPC   C1521364   4.716   4.272   5.969  0.0746 -0.0572  0.3563
  186SLPC  H15A21365   4.638   4.209   6.011  1.6696 -1.0520  1.9147
  186SLPC  H15B21366   4.754   4.339   6.044  1.2978 -1.1538  0.7415
  186SLPC  H15C21367   4.693   4.327   5.879  1.8598  0.9055  0.4699
  186SLPC   C1221368   4.866   4.104   6.081  0.1221 -0.0599 -0.4556
  186SLPC  H12A21369   4.947   4.033   6.068  0.0816 -0.7337  2.5681
  186SLPC  H12B21370   4.781   4.046   6.114  0.3074 -0.2677 -0.3364
  186SLPC   C1121371   4.910   4.188   6.200 -0.3635 -0.1914 -0.0395
  186SLPC  H11A21372   5.011   4.226   6.172 -0.5522 -2.0338 -3.6320
  186SLPC  H11B21373   4.916   4.111   6.280  0.2955 -0.2555 -0.1473
  186SLPC     P21374   4.732   4.292   6.361  0.2589  0.7615 -0.2513
  186SLPC   O1321375   4.629   4.390   6.344  0.1109  0.5043 -0.4078
  186SLPC   O1421376   4.674   4.154   6.382 -0.7902  0.3728  0.1109
  186SLPC   O1221377   4.819   4.291   6.227  0.2862  0.0727 -0.1718
  186SLPC   O1121378   4.837   4.320   6.472 -0.2631 -0.4191 -0.1513
  186SLPC    C121379   4.946   4.414   6.427 -0.2446 -0.7794 -0.4809
  186SLPC    HA21380   5.039   4.360   6.400 -0.4203 -0.8912 -0.8639
  186SLPC    HB21381   4.912   4.479   6.344 -0.8271  0.0047  0.3649
  186SLPC    C221382   4.968   4.519   6.546  0.0685  0.6394 -0.1650
  186SLPC    HS21383   5.056   4.578   6.512  0.4210  0.1505 -0.1128
  186SLPC   O2121384   4.967   4.451   6.672  0.2224 -0.0053 -0.4125
  186SLPC   C2121385   5.059   4.491   6.757 -0.4001 -0.4100  0.0687
  186SLPC   O2221386   5.127   4.589   6.734 -0.2478 -0.1101  0.2532
  186SLPC   C2221387   5.068   4.390   6.880  0.1677 -0.0670  0.1683
  186SLPC   H2R21388   4.965   4.362   6.907 -0.0702  0.3516 -0.2980
  186SLPC   H2S21389   5.138   4.306   6.860  1.8144  1.5610 -1.1637
  186SLPC    C321390   4.846   4.616   6.552  0.3537  0.2926 -0.0962
  186SLPC    HX21391   4.744   4.572   6.550 -0.5542  2.2993  0.3838
  186SLPC    HY21392   4.851   4.672   6.457 -1.7300 -0.6897 -0.8178
  186SLPC   O3121393   4.859   4.707   6.662  0.0329 -0.1391 -0.7886
  186SLPC   C3121394   4.828   4.834   6.650 -0.3978  0.1157 -0.0788
  186SLPC   O3221395   4.782   4.895   6.556 -0.4008  0.0518 -0.0507
  186SLPC   C3221396   4.855   4.907   6.785  0.2619  0.5356 -0.1163
  186SLPC   H2X21397   4.761   4.966   6.790  1.3188  2.4462 -1.7042
  186SLPC   H2Y21398   4.936   4.982   6.769  0.5944  0.1213 -0.3693
  186SLPC   C2321399   5.126   4.466   7.006 -1.0744  0.0362 -0.6180
  186SLPC   H3R21400   5.096   4.573   7.001  0.6793  0.4629 -2.6992
  186SLPC   H3S21401   5.236   4.461   7.015 -1.1108  1.2137  0.8044
  186SLPC   C2421402   5.056   4.402   7.130 -0.2338  0.3910 -0.3703
  186SLPC   H4R21403   5.071   4.293   7.141  2.0855  0.8164  1.1791
  186SLPC   H4S21404   4.948   4.426   7.121 -0.3334 -0.3087 -1.0650
  186SLPC   C2521405   5.116   4.466   7.264  0.2139 -0.1846 -0.2230
  186SLPC   H5R21406   5.104   4.576   7.269  0.9014  0.0090 -2.4280
  186SLPC   H5S21407   5.222   4.436   7.275  0.8394  1.7549 -0.8107
  186SLPC   C2621408   5.033   4.419   7.393  0.1381  0.0711  0.7076
  186SLPC   H6R21409   5.023   4.309   7.396 -2.0134  0.2817  2.6327
  186SLPC   H6S21410   4.932   4.465   7.393  0.4971  0.8856  1.8318
  186SLPC   C2721411   5.110   4.466   7.517 -0.0841 -0.1189  0.1409
  186SLPC   H7R21412   5.129   4.575   7.515 -0.1107 -0.0196  3.1404
  186SLPC   H7S21413   5.206   4.412   7.505  0.6199  1.0049  0.6354
  186SLPC   C2821414   5.050   4.427   7.653 -0.3526 -0.2278  0.5487
  186SLPC   H8R21415   4.974   4.504   7.680 -0.9364  0.0357 -1.7260
  186SLPC   H8S21416   5.131   4.448   7.726 -0.3525  2.6338 -0.1848
  186SLPC   C2921417   5.000   4.285   7.657  0.0956 -0.2398  0.1598
  186SLPC   H9R21418   4.891   4.277   7.639  0.3488 -0.9071 -1.1867
  186SLPC  C21021419   5.082   4.186   7.672 -0.1913 -0.2123  0.1650
  186SLPC  H10R21420   5.045   4.083   7.689  0.5978 -0.8626 -1.9032
  186SLPC  C21121421   5.226   4.200   7.708 -0.1628  0.0147  0.5222
  186SLPC  H11R21422   5.239   4.262   7.800  0.2661 -0.7269  0.9650
  186SLPC  H11S21423   5.285   4.248   7.627 -0.7798  0.1926  0.1731
  186SLPC  C21221424   5.296   4.067   7.730  0.4315  0.9749 -0.2557
  186SLPC  H12R21425   5.325   4.005   7.644  2.5056  0.5702  0.7100
  186SLPC  C21321426   5.333   4.029   7.852  0.7984  0.0179 -0.2605
  186SLPC  H13R21427   5.375   3.929   7.865 -0.4817 -0.3910  0.7860
  186SLPC  C21421428   5.310   4.086   7.989 -0.1648  0.3177 -0.2053
  186SLPC  H14R21429   5.250   4.180   7.984 -0.0835  0.3779 -0.0356
  186SLPC  H14S21430   5.405   4.118   8.036 -0.9236 -1.3921  2.6232
  186SLPC  C21521431   5.238   3.985   8.082  0.0150 -0.7258  0.3482
  186SLPC  H15R21432   5.235   4.035   8.181  4.3563 -1.9832  1.2229
  186SLPC  H15S21433   5.290   3.887   8.087 -1.2498 -1.5886 -2.1243
  186SLPC  C21621434   5.096   3.955   8.040  0.0698 -0.3546  0.0799
  186SLPC  H16R21435   5.102   3.896   7.946  1.2264  3.0031 -2.0236
  186SLPC  H16S21436   5.053   4.056   8.027  0.8651  0.6366  4.3657
  186SLPC  C21721437   5.021   3.878   8.147  0.6000  0.5491  0.3390
  186SLPC  H17R21438   4.911   3.888   8.132  0.1722 -0.4547  2.6528
  186SLPC  H17S21439   5.041   3.932   8.242  1.2164  1.0382 -0.0626
  186SLPC  C21821440   5.061   3.738   8.151  0.8181 -0.2035  0.2317
  186SLPC  H18R21441   5.000   3.676   8.221 -1.3666  0.1161 -1.3462
  186SLPC  H18S21442   5.166   3.728   8.185  0.0318  0.6768  3.0597
  186SLPC  H18T21443   5.058   3.693   8.049 -2.8166 -0.2121  0.2722
  186SLPC   C3321444   4.875   4.824   6.915 -0.1031 -0.9903  0.1246
  186SLPC   H3X21445   4.977   4.781   6.919  0.3002  0.0489  1.3091
  186SLPC   H3Y21446   4.806   4.737   6.909  0.2404 -1.1950 -0.9941
  186SLPC   C3421447   4.842   4.895   7.043  0.1768  0.2912 -0.7572
  186SLPC   H4X21448   4.731   4.893   7.048  0.2445 -1.2252  0.5519
  186SLPC   H4Y21449   4.884   4.997   7.030 -0.6809  0.6959 -0.4320
  186SLPC   C3521450   4.915   4.831   7.170 -0.1613  0.2960  0.0886
  186SLPC   H5X21451   5.023   4.828   7.144  0.1055  1.4663  1.0107
  186SLPC   H5Y21452   4.876   4.729   7.187  0.9432  0.1514  1.8635
  186SLPC   C3621453   4.893   4.910   7.299  0.1099 -1.0263  0.7415
  186SLPC   H6X21454   4.790   4.950   7.311  0.8420  0.9549  0.7309
  186SLPC   H6Y21455   4.945   5.009   7.298  2.2122 -2.1001 -0.5923
  186SLPC   C3721456   4.945   4.844   7.423 -0.6267  0.1247 -0.2934
  186SLPC   H7X21457   5.056   4.840   7.419 -0.4172  2.3641  1.9420
  186SLPC   H7Y21458   4.899   4.743   7.429  0.2704 -0.2320  0.8182
  186SLPC   C3821459   4.914   4.913   7.554 -0.1222  0.5205 -0.0698
  186SLPC   H8X21460   4.803   4.921   7.561 -0.6078 -3.5735 -1.8598
  186SLPC   H8Y21461   4.955   5.016   7.546 -0.3756  0.6069 -0.2767
  186SLPC   C3921462   4.973   4.820   7.661  0.7153  0.2682  0.2115
  186SLPC   H9X21463   5.083   4.831   7.650  0.3828  1.2592 -2.6179
  186SLPC   H9Y21464   4.946   4.712   7.650  0.2938  0.5920 -2.3177
  186SLPC  C31021465   4.946   4.875   7.800 -0.7160  0.1160 -0.5155
  186SLPC  H10X21466   4.835   4.885   7.797 -0.5638  1.6458 -1.4941
  186SLPC  H10Y21467   4.993   4.975   7.803 -0.4485  0.1128 -3.2213
  186SLPC  C31121468   4.988   4.788   7.916  0.1100 -0.2387 -0.3413
  186SLPC  H11X21469   4.924   4.697   7.912  0.0375 -0.1719 -0.7511
  186SLPC  H11Y21470   4.980   4.849   8.009  0.8606  2.5725 -2.0794
  186SLPC  C31221471   5.135   4.740   7.903 -0.2008  0.0981 -0.4320
  186SLPC  H12X21472   5.210   4.819   7.881  0.0414  0.4352  1.4793
  186SLPC  H12Y21473   5.145   4.663   7.823 -0.6725 -1.6251  1.1154
  186SLPC  C31321474   5.184   4.671   8.031  0.2437 -0.0008  1.1654
  186SLPC  H13X21475   5.277   4.614   8.009 -1.2492 -1.4576 -1.5960
  186SLPC  H13Y21476   5.116   4.591   8.066 -0.4329  0.1430  0.2139
  186SLPC  C31421477   5.207   4.757   8.166 -0.1006 -0.0058  0.6402
  186SLPC  H14X21478   5.130   4.833   8.191  1.2113  1.6233 -0.1134
  186SLPC  H14Y21479   5.300   4.817   8.155 -0.8945  1.3767  1.4051
  186SLPC  C31521480   5.229   4.662   8.284  0.3921 -0.2946  0.7064
  186SLPC  H15X21481   5.310   4.592   8.257  0.3906 -0.1456  0.3107
  186SLPC  H15Y21482   5.133   4.607   8.297  1.1316 -2.2048 -1.5832
  186SLPC  C31621483   5.260   4.732   8.418 -0.0689  0.1255 -0.2360
  186SLPC  H16X21484   5.173   4.800   8.432 -1.7619 -2.3063  1.6485
  186SLPC  H16Y21485   5.356   4.788   8.413  0.2703 -0.5241 -1.0944
  186SLPC  C31721486   5.261   4.629   8.527  0.4131  0.1632  0.1895
  186SLPC  H17X21487   5.363   4.587   8.541  0.6798  0.9433  0.6015
  186SLPC  H17Y21488   5.190   4.550   8.494 -0.6563  1.0836  0.2474
  186SLPC  C31821489   5.209   4.701   8.654  0.1735 -0.2921  0.6180
  186SLPC  H18X21490   5.280   4.784   8.675  0.1022 -0.4983  1.7035
  186SLPC  H18Y21491   5.206   4.637   8.746  0.9372 -0.8507  0.2647
  186SLPC  H18Z21492   5.107   4.741   8.642  0.4189  0.3791  0.7474
  187SLPC     N21493   4.876   1.125   6.238 -0.2882  0.5672  0.3242
  187SLPC   C1321494   4.733   1.157   6.208 -0.1295 -0.4066 -0.0446
  187SLPC  H13A21495   4.729   1.238   6.137  0.1285  0.2642  0.7129
  187SLPC  H13B21496   4.680   1.072   6.167 -1.7550 -1.0127  3.1582
  187SLPC  H13C21497   4.674   1.189   6.293 -0.3481 -1.2675  0.1355
  187SLPC   C1421498   4.941   1.064   6.119  0.1024 -0.4304  0.6314
  187SLPC  H14A21499   4.930   1.123   6.030 -2.5894 -0.7520  0.7165
  187SLPC  H14B21500   5.044   1.037   6.136 -0.1583 -0.3273  2.4509
  187SLPC  H14C21501   4.891   0.971   6.095 -0.9676 -0.7024  3.6542
  187SLPC   C1521502   4.879   1.034   6.349  0.0991  0.3413  0.4279
  187SLPC  H15A21503   4.829   0.940   6.330  0.5017  0.0993  0.5768
  187SLPC  H15B21504   4.977   0.995   6.367 -0.3135 -1.9273 -1.9480
  187SLPC  H15C21505   4.840   1.077   6.440  2.4666 -0.7400  1.9767
  187SLPC   C1221506   4.953   1.249   6.268  0.6505 -0.0513  0.0921
  187SLPC  H12A21507   4.914   1.277   6.365  3.0190 -0.8176  1.2934
  187SLPC  H12B21508   4.915   1.328   6.205  3.2500 -0.4085 -2.0107
  187SLPC   C1121509   5.108   1.243   6.286 -0.2103 -0.1645  0.7715
  187SLPC  H11A21510   5.128   1.352   6.282 -1.0784  0.0879  2.7550
  187SLPC  H11B21511   5.165   1.199   6.201 -0.2292  2.0789 -0.4390
  187SLPC     P21512   5.296   1.183   6.450  0.5722 -0.0714 -0.0110
  187SLPC   O1321513   5.389   1.124   6.346  0.4646 -0.4831 -0.1934
  187SLPC   O1421514   5.312   1.324   6.484 -0.1972 -0.7239  0.2709
  187SLPC   O1221515   5.150   1.169   6.396 -0.8340  0.4104 -0.1510
  187SLPC   O1121516   5.309   1.099   6.585 -0.1316  0.3032  0.0482
  187SLPC    C121517   5.200   1.018   6.626 -0.2395 -0.3639 -0.0812
  187SLPC    HA21518   5.115   1.083   6.654  0.2783  0.1942  0.2233
  187SLPC    HB21519   5.170   0.947   6.547  1.8231 -0.7467 -0.5456
  187SLPC    C221520   5.241   0.940   6.755  0.5482 -0.1098  0.1151
  187SLPC    HS21521   5.152   0.899   6.807  0.5152  1.0039  0.9556
  187SLPC   O2121522   5.316   1.015   6.841  1.0515  0.0173 -0.5058
  187SLPC   C2121523   5.257   1.107   6.923 -0.1773 -0.0351 -0.2509
  187SLPC   O2221524   5.139   1.132   6.925 -0.3254 -0.3148  0.6445
  187SLPC   C2221525   5.356   1.182   7.011 -0.2800 -0.4083 -0.3136
  187SLPC   H2R21526   5.411   1.259   6.952  0.6599  0.1976  1.3310
  187SLPC   H2S21527   5.302   1.235   7.093 -1.2914  0.3901 -1.4776
  187SLPC    C321528   5.328   0.825   6.706  0.4621 -0.2101  0.0915
  187SLPC    HX21529   5.418   0.870   6.658 -0.0558  0.2738 -0.4288
  187SLPC    HY21530   5.273   0.767   6.629 -1.2063 -0.0379  1.1293
  187SLPC   O3121531   5.374   0.735   6.815 -0.3731 -0.2337  0.0018
  187SLPC   C3121532   5.498   0.763   6.864 -0.1679  0.4788 -0.9668
  187SLPC   O3221533   5.587   0.838   6.826  0.1106 -0.0913 -0.2707
  187SLPC   C3221534   5.500   0.693   7.003  0.6823  0.3583 -0.1295
  187SLPC   H2X21535   5.460   0.590   6.989 -0.7678  0.8985 -0.0365
  187SLPC   H2Y21536   5.428   0.754   7.061 -0.2292 -0.1718 -0.6772
  187SLPC   C2321537   5.444   1.074   7.080  0.3780 -0.9940 -0.2768
  187SLPC   H3R21538   5.507   1.024   7.004 -0.7836  0.6328 -2.3758
  187SLPC   H3S21539   5.377   1.002   7.131  0.2326 -0.3369  0.4684
  187SLPC   C2421540   5.534   1.129   7.198  0.2927 -0.0894 -0.4395
  187SLPC   H4R21541   5.451   1.163   7.264  0.1063  0.0573 -0.7524
  187SLPC   H4S21542   5.590   1.218   7.162  0.5308 -0.6313 -1.4226
  187SLPC   C2521543   5.622   1.014   7.240  0.2051 -0.6742 -0.3671
  187SLPC   H5R21544   5.685   0.985   7.153  1.3457  0.0145  0.2105
  187SLPC   H5S21545   5.560   0.924   7.260 -1.7712  0.4064 -1.4907
  187SLPC   C2621546   5.710   1.068   7.352 -0.0613 -0.3534  0.2477
  187SLPC   H6R21547   5.653   1.117   7.434  0.7077 -2.5849  2.1600
  187SLPC   H6S21548   5.779   1.142   7.306 -1.8608  0.6185 -0.9450
  187SLPC   C2721549   5.788   0.967   7.424  0.4913 -0.2645  0.3591
  187SLPC   H7R21550   5.875   0.937   7.362 -0.1688  0.1564 -0.7744
  187SLPC   H7S21551   5.725   0.877   7.439 -1.0570  0.9699  1.5045
  187SLPC   C2821552   5.823   1.024   7.568 -0.2163 -0.2946  0.2072
  187SLPC   H8R21553   5.736   1.026   7.637  0.9967 -2.7436  1.8815
  187SLPC   H8S21554   5.856   1.123   7.530 -0.8588  0.3901  1.4072
  187SLPC   C2921555   5.926   0.930   7.625  0.6681  0.0033 -0.4905
  187SLPC   H9R21556   5.990   0.890   7.545  3.0508  0.3088  1.2134
  187SLPC  C21021557   5.948   0.888   7.754 -0.1866 -0.3392 -0.1433
  187SLPC  H10R21558   6.035   0.823   7.771  0.5805  0.3307 -1.4067
  187SLPC  C21121559   5.863   0.928   7.875 -0.2939 -0.4901 -0.1140
  187SLPC  H11R21560   5.779   0.996   7.850  0.6247  0.1021 -1.6721
  187SLPC  H11S21561   5.927   0.991   7.940 -0.1879 -0.7474  0.0346
  187SLPC  C21221562   5.826   0.810   7.954 -0.3794  0.8324  0.3375
  187SLPC  H12R21563   5.722   0.779   7.936 -0.1183 -1.4928  2.6477
  187SLPC  C21321564   5.889   0.746   8.059  0.1349  0.5913 -0.1897
  187SLPC  H13R21565   5.839   0.658   8.102  0.8864  1.1850  1.9212
  187SLPC  C21421566   6.027   0.769   8.098  0.2497  0.1422  0.0600
  187SLPC  H14R21567   6.080   0.813   8.010 -1.8824 -0.5155 -1.5693
  187SLPC  H14S21568   6.076   0.671   8.116  0.1649  0.1010  0.0657
  187SLPC  C21521569   6.046   0.872   8.210 -0.2080  0.0450  0.0120
  187SLPC  H15R21570   6.019   0.970   8.165  1.7071 -0.0767 -1.4605
  187SLPC  H15S21571   6.155   0.885   8.226 -0.0198 -1.6505  0.1917
  187SLPC  C21621572   5.979   0.839   8.344  0.2883 -0.1717  0.1136
  187SLPC  H16R21573   5.871   0.838   8.317  0.5558  0.3680 -0.9609
  187SLPC  H16S21574   5.991   0.916   8.423 -2.9252  2.3781 -1.7640
  187SLPC  C21721575   6.021   0.702   8.410 -0.0292  0.0491  0.1221
  187SLPC  H17R21576   6.029   0.622   8.333 -2.1033 -1.1571  1.1178
  187SLPC  H17S21577   5.936   0.674   8.475 -1.5339  0.1600 -1.7790
  187SLPC  C21821578   6.154   0.704   8.500 -0.3078 -0.1924 -0.2996
  187SLPC  H18R21579   6.234   0.707   8.423  1.5259  0.9416  1.5877
  187SLPC  H18S21580   6.170   0.613   8.562 -0.2311 -0.6170 -0.9361
  187SLPC  H18T21581   6.162   0.793   8.567  2.3500  0.8320 -1.8978
  187SLPC   C3321582   5.634   0.690   7.068  0.0154 -0.0958 -0.2848
  187SLPC   H3X21583   5.671   0.794   7.078 -0.9218  0.3097 -0.9840
  187SLPC   H3Y21584   5.711   0.643   7.003 -2.1349 -0.9850 -2.2485
  187SLPC   C3421585   5.635   0.637   7.221 -0.3178 -0.3248 -0.4049
  187SLPC   H4X21586   5.569   0.548   7.220 -1.5063  0.5114  1.0730
  187SLPC   H4Y21587   5.587   0.708   7.291 -1.6268 -0.9611 -0.6409
  187SLPC   C3521588   5.765   0.588   7.280 -0.2668  0.1732  0.1120
  187SLPC   H5X21589   5.838   0.669   7.303 -0.7445  1.0971 -1.5540
  187SLPC   H5Y21590   5.816   0.534   7.198 -1.4962 -0.4056 -0.2892
  187SLPC   C3621591   5.761   0.488   7.398  0.4566 -0.5021  0.0233
  187SLPC   H6X21592   5.860   0.462   7.441 -0.0180 -0.4365  1.1814
  187SLPC   H6Y21593   5.713   0.395   7.361 -0.3009 -1.2046  2.7091
  187SLPC   C3721594   5.666   0.520   7.515 -0.3654  0.1406  0.6165
  187SLPC   H7X21595   5.693   0.619   7.558  2.6771  0.1434 -1.1686
  187SLPC   H7Y21596   5.564   0.528   7.470  0.0697 -1.3756 -0.6734
  187SLPC   C3821597   5.675   0.420   7.633  0.5919  0.1225 -0.5140
  187SLPC   H8X21598   5.785   0.404   7.638  0.5833 -0.2380 -1.3054
  187SLPC   H8Y21599   5.633   0.319   7.610  1.4754 -0.0246 -1.5268
  187SLPC   C3921600   5.614   0.469   7.767 -0.4049 -0.4758 -0.3880
  187SLPC   H9X21601   5.505   0.485   7.753 -0.0712  2.3739 -0.0188
  187SLPC   H9Y21602   5.666   0.556   7.813 -0.9540 -1.0811  1.4556
  187SLPC  C31021603   5.621   0.345   7.858  0.2436 -0.1495  0.3046
  187SLPC  H10X21604   5.727   0.316   7.871  0.1938 -0.8231 -0.6889
  187SLPC  H10Y21605   5.574   0.257   7.808  2.3702 -0.8562 -0.4811
  187SLPC  C31121606   5.565   0.370   7.999 -0.1217 -0.2254 -0.0839
  187SLPC  H11X21607   5.455   0.369   8.009 -0.2979 -0.3929 -1.8294
  187SLPC  H11Y21608   5.591   0.473   8.030 -1.6859 -0.0467  0.6319
  187SLPC  C31221609   5.621   0.264   8.095  0.9512  0.7013 -0.1616
  187SLPC  H12X21610   5.732   0.268   8.087  0.8955  0.3693 -1.2589
  187SLPC  H12Y21611   5.587   0.165   8.058  1.8630  0.1388  0.4729
  187SLPC  C31321612   5.578   0.300   8.235 -0.1236  0.8127 -0.5773
  187SLPC  H13X21613   5.609   0.221   8.307 -0.1230  0.6280 -0.7798
  187SLPC  H13Y21614   5.467   0.307   8.240 -0.2474 -1.7711  2.0989
  187SLPC  C31421615   5.649   0.417   8.294  0.1969 -0.1195 -0.8720
  187SLPC  H14X21616   5.646   0.494   8.215  3.0526  2.7314  1.6596
  187SLPC  H14Y21617   5.757   0.399   8.313 -0.0266 -3.1661 -2.1754
  187SLPC  C31521618   5.603   0.479   8.422  0.5542  0.8454 -0.1097
  187SLPC  H15X21619   5.638   0.416   8.507  2.6021  1.1322 -0.7122
  187SLPC  H15Y21620   5.492   0.477   8.431  0.3295  0.4215 -2.5917
  187SLPC  C31621621   5.645   0.625   8.432  0.0073  0.3627 -0.0442
  187SLPC  H16X21622   5.590   0.683   8.354 -1.2453  0.0040  0.5524
  187SLPC  H16Y21623   5.753   0.623   8.407 -0.1228  0.2625 -0.5857
  187SLPC  C31721624   5.615   0.679   8.572  0.2264 -0.4041  0.2960
  187SLPC  H17X21625   5.671   0.616   8.645 -0.6920 -1.1143  0.4048
  187SLPC  H17Y21626   5.506   0.667   8.591  0.6368 -2.3747  1.5970
  187SLPC  C31821627   5.650   0.825   8.579  0.2154 -0.2459 -0.2792
  187SLPC  H18X21628   5.585   0.874   8.655 -0.2662  2.3144 -2.2739
  187SLPC  H18Y21629   5.632   0.872   8.480 -1.3884 -0.5552 -0.1534
  187SLPC  H18Z21630   5.754   0.844   8.614 -0.9465  0.5881  2.8892
  188SLPC     N21631   0.194   2.712   6.182  0.4035 -0.2687 -0.0727
  188SLPC   C1321632   0.272   2.605   6.250  0.3814  0.5109 -0.0104
  188SLPC  H13A21633   0.317   2.530   6.187  1.4388  1.0541  0.1000
  188SLPC  H13B21634   0.353   2.639   6.313  0.8109  0.8450 -0.7335
  188SLPC  H13C21635   0.203   2.556   6.318 -1.7764  1.5021 -1.4526
  188SLPC   C1421636   0.103   2.649   6.082 -0.3783  0.0187  0.4500
  188SLPC  H14A21637   0.156   2.579   6.019  2.2695 -0.1242  2.7590
  188SLPC  H14B21638   0.023   2.598   6.135 -1.5468  1.7405  0.3990
  188SLPC  H14C21639   0.060   2.725   6.019 -0.8034 -1.0077 -0.5238
  188SLPC   C1521640   0.287   2.821   6.128  0.1484  0.0973  0.5138
  188SLPC  H15A21641   0.344   2.794   6.040 -2.0029 -1.6399 -0.3965
  188SLPC  H15B21642   0.218   2.903   6.111  0.1929 -0.3790 -2.2676
  188SLPC  H15C21643   0.360   2.847   6.203  0.1671 -1.2849  0.9905
  188SLPC   C1221644   0.109   2.783   6.293  0.4838 -1.0136 -0.8355
  188SLPC  H12A21645   0.050   2.856   6.241  1.7257  0.6325  0.0071
  188SLPC  H12B21646   0.183   2.839   6.349  0.0016  0.9561 -2.1139
  188SLPC   C1121647   0.026   2.704   6.399 -0.2153 -0.1727  0.0476
  188SLPC  H11A21648  -0.024   2.770   6.473 -1.0981 -0.4145 -0.3137
  188SLPC  H11B21649   0.090   2.636   6.458 -0.0856  0.0929  0.2103
  188SLPC     P21650  -0.092   2.464   6.332  0.2991 -0.0126  0.1618
  188SLPC   O1321651  -0.123   2.429   6.190  0.3832 -0.4234 -0.2083
  188SLPC   O1421652   0.015   2.387   6.400 -0.1340  0.2408 -0.4263
  188SLPC   O1221653  -0.068   2.625   6.331 -0.6153  0.1646 -1.0142
  188SLPC   O1121654  -0.223   2.457   6.419  0.5795  0.4440 -0.0547
  188SLPC    C121655  -0.345   2.496   6.371  0.2036  0.0216 -0.2662
  188SLPC    HA21656  -0.358   2.542   6.271 -1.6511  2.3634  0.9985
  188SLPC    HB21657  -0.412   2.408   6.380 -0.7758  0.5703 -2.0206
  188SLPC    C221658  -0.398   2.613   6.463 -0.3994 -0.5059  0.2957
  188SLPC    HS21659  -0.344   2.708   6.441 -0.6305  0.1495  2.4695
  188SLPC   O2121660  -0.392   2.571   6.603  0.1774 -0.2686 -0.1006
  188SLPC   C2121661  -0.289   2.623   6.672 -0.6013  0.1491 -0.1408
  188SLPC   O2221662  -0.214   2.703   6.630 -0.4099 -0.2369  0.4275
  188SLPC   C2221663  -0.284   2.591   6.818 -0.1275  0.7576 -0.1540
  188SLPC   H2R21664  -0.341   2.497   6.836 -1.2186  1.6386  1.0476
  188SLPC   H2S21665  -0.175   2.582   6.839 -0.2481  3.0978  1.6908
  188SLPC    C321666  -0.551   2.649   6.436 -0.0194  0.4992 -0.4618
  188SLPC    HX21667  -0.604   2.559   6.398 -0.2240  0.8666 -1.0463
  188SLPC    HY21668  -0.549   2.712   6.345  2.2296 -1.1136 -1.5933
  188SLPC   O3121669  -0.614   2.711   6.548 -0.5769 -0.1158 -0.2446
  188SLPC   C3121670  -0.697   2.635   6.625  0.0111  0.2297 -0.3130
  188SLPC   O3221671  -0.738   2.524   6.607 -0.3036  0.3714  0.5018
  188SLPC   C3221672  -0.729   2.718   6.747 -0.1935  0.4980  0.7908
  188SLPC   H2X21673  -0.792   2.806   6.721 -0.4943  0.6503  1.9867
  188SLPC   H2Y21674  -0.631   2.760   6.778 -0.5669  1.7424  0.3263
  188SLPC   C2321675  -0.338   2.712   6.895 -0.4821 -0.6826  0.1861
  188SLPC   H3R21676  -0.445   2.722   6.866 -0.7220 -3.5462 -0.0651
  188SLPC   H3S21677  -0.275   2.803   6.885  0.5843 -1.3177  0.9967
  188SLPC   C2421678  -0.338   2.694   7.047  0.1213  0.8940 -0.6466
  188SLPC   H4R21679  -0.401   2.605   7.069 -2.1345  2.4566 -0.5741
  188SLPC   H4S21680  -0.376   2.783   7.101 -1.2679 -0.0883  0.0244
  188SLPC   C2521681  -0.200   2.677   7.110  0.4657 -0.5310 -0.2770
  188SLPC   H5R21682  -0.152   2.777   7.101 -1.0610  0.0471 -2.1600
  188SLPC   H5S21683  -0.143   2.596   7.059  0.5952 -0.2212 -0.6203
  188SLPC   C2621684  -0.209   2.618   7.253 -0.1184  0.1899  0.3129
  188SLPC   H6R21685  -0.107   2.614   7.297 -0.7632 -2.1944  1.7183
  188SLPC   H6S21686  -0.241   2.512   7.248  1.3313 -0.1961 -1.1090
  188SLPC   C2721687  -0.301   2.703   7.349 -0.0903 -0.1057 -0.3106
  188SLPC   H7R21688  -0.404   2.667   7.328 -0.5749 -0.3794  2.3819
  188SLPC   H7S21689  -0.282   2.811   7.332 -2.4241  0.4586  0.6115
  188SLPC   C2821690  -0.266   2.694   7.503  0.4915  0.7455 -0.3955
  188SLPC   H8R21691  -0.206   2.786   7.523 -1.6121  1.7591  1.4363
  188SLPC   H8S21692  -0.215   2.600   7.533 -1.4340 -0.6235 -1.3429
  188SLPC   C2921693  -0.398   2.681   7.579  0.2956 -0.1844 -0.5052
  188SLPC   H9R21694  -0.468   2.609   7.534 -0.3224 -1.2747  2.1462
  188SLPC  C21021695  -0.419   2.738   7.694 -0.0235 -0.5876 -0.0738
  188SLPC  H10R21696  -0.513   2.713   7.745 -0.3273 -0.9096 -0.7829
  188SLPC  C21121697  -0.322   2.820   7.773 -0.0315 -0.6107 -1.1321
  188SLPC  H11R21698  -0.375   2.915   7.795  0.6767 -0.3994 -0.3215
  188SLPC  H11S21699  -0.239   2.850   7.705  1.4528 -3.0261 -0.4268
  188SLPC  C21221700  -0.293   2.742   7.902 -0.4175  0.0147 -0.7739
  188SLPC  H12R21701  -0.268   2.638   7.876  1.4034  0.9297 -2.9255
  188SLPC  C21321702  -0.293   2.784   8.032 -0.2898  0.2973  0.2523
  188SLPC  H13R21703  -0.269   2.713   8.113  1.9067 -1.0821 -1.5669
  188SLPC  C21421704  -0.335   2.911   8.089 -0.0972 -0.5919 -0.4067
  188SLPC  H14R21705  -0.349   2.982   8.004 -2.5319 -0.1226  0.3526
  188SLPC  H14S21706  -0.254   2.959   8.148 -0.6936 -0.6969  0.5170
  188SLPC  C21521707  -0.462   2.908   8.175 -0.1329  0.1876 -0.0565
  188SLPC  H15R21708  -0.532   2.858   8.104  0.7387  0.9672 -1.4774
  188SLPC  H15S21709  -0.502   3.011   8.184 -0.8051 -0.1550  1.0192
  188SLPC  C21621710  -0.438   2.840   8.308 -0.1754  0.8846  0.8533
  188SLPC  H16R21711  -0.364   2.900   8.366  0.5640 -1.4203  2.3583
  188SLPC  H16S21712  -0.395   2.737   8.303  2.0476  1.8653 -1.0942
  188SLPC  C21721713  -0.569   2.813   8.381 -0.0116 -0.7893  0.4456
  188SLPC  H17R21714  -0.548   2.764   8.478 -1.4315  1.0227  1.6868
  188SLPC  H17S21715  -0.627   2.750   8.310  0.3347 -0.0516 -0.5171
  188SLPC  C21821716  -0.646   2.942   8.410  0.6782 -0.0936  0.2799
  188SLPC  H18R21717  -0.582   3.026   8.446  1.2287 -0.5198  0.3075
  188SLPC  H18S21718  -0.729   2.918   8.479  1.1111 -1.5299  0.3199
  188SLPC  H18T21719  -0.696   2.976   8.317  1.6284 -1.6849 -0.8356
  188SLPC   C3321720  -0.802   2.638   6.865  0.4536 -1.0140  0.1244
  188SLPC   H3X21721  -0.748   2.542   6.880  3.6067  0.5930 -0.5544
  188SLPC   H3Y21722  -0.906   2.619   6.830  0.0922 -0.2448  0.7733
  188SLPC   C3421723  -0.789   2.713   7.001 -0.4339 -0.1907 -0.8600
  188SLPC   H4X21724  -0.845   2.809   7.014 -2.0912 -1.6422  3.7371
  188SLPC   H4Y21725  -0.684   2.743   7.024 -0.4772 -0.6351 -0.0611
  188SLPC   C3521726  -0.843   2.629   7.121 -0.8709  1.0560  0.2398
  188SLPC   H5X21727  -0.776   2.541   7.132 -2.2366  0.1629  1.5083
  188SLPC   H5Y21728  -0.949   2.600   7.108 -0.4862 -0.4630  0.4420
  188SLPC   C3621729  -0.824   2.707   7.258  0.3173 -0.5504 -0.0377
  188SLPC   H6X21730  -0.886   2.800   7.261 -1.9915 -2.0419 -0.2115
  188SLPC   H6Y21731  -0.717   2.735   7.256  0.1433  0.0916 -1.3846
  188SLPC   C3721732  -0.845   2.622   7.381  0.0133 -0.4621 -0.5312
  188SLPC   H7X21733  -0.829   2.516   7.351 -2.1301 -0.8166 -0.4617
  188SLPC   H7Y21734  -0.954   2.632   7.399  0.5167 -0.3884  2.8637
  188SLPC   C3821735  -0.777   2.664   7.514  0.4517  1.1454 -0.1788
  188SLPC   H8X21736  -0.790   2.773   7.533  0.7616  1.5693 -2.3037
  188SLPC   H8Y21737  -0.670   2.636   7.508  0.3003  0.4773  0.2418
  188SLPC   C3921738  -0.847   2.597   7.627 -0.0351 -0.0531 -0.3989
  188SLPC   H9X21739  -0.822   2.490   7.605  2.2499  0.1148  1.1942
  188SLPC   H9Y21740  -0.954   2.628   7.626 -0.8340 -2.5299  2.0173
  188SLPC  C31021741  -0.777   2.611   7.770 -0.2322  0.2489 -0.3743
  188SLPC  H10X21742  -0.681   2.554   7.775 -1.1349 -1.3798 -1.3064
  188SLPC  H10Y21743  -0.839   2.558   7.846  2.4377 -1.7737  0.4778
  188SLPC  C31121744  -0.769   2.757   7.813  0.5113  0.4423 -0.0257
  188SLPC  H11X21745  -0.871   2.800   7.805  0.8992  1.8558  2.3113
  188SLPC  H11Y21746  -0.695   2.815   7.753  1.2894 -0.7334 -0.2181
  188SLPC  C31221747  -0.726   2.771   7.960  0.5164 -1.0452  0.2724
  188SLPC  H12X21748  -0.706   2.879   7.975  0.6736 -1.0872  0.3681
  188SLPC  H12Y21749  -0.631   2.715   7.974  0.1672 -1.0208  3.2420
  188SLPC  C31321750  -0.825   2.718   8.066  0.6969  0.0975 -0.2061
  188SLPC  H13X21751  -0.778   2.709   8.166  2.0597 -2.1156 -1.0273
  188SLPC  H13Y21752  -0.849   2.615   8.034 -2.4337  0.6143  0.3447
  188SLPC  C31421753  -0.958   2.801   8.076 -0.0795 -1.1443 -0.3009
  188SLPC  H14X21754  -0.998   2.822   7.974 -0.4337  0.5683  0.1657
  188SLPC  H14Y21755  -0.937   2.895   8.132  3.0678 -2.3500  0.6244
  188SLPC  C31521756  -1.060   2.723   8.163  0.2157  0.3799 -0.2126
  188SLPC  H15X21757  -1.032   2.734   8.270  0.8461 -0.2618 -0.3112
  188SLPC  H15Y21758  -1.050   2.617   8.131 -0.1349  0.2483  0.1171
  188SLPC  C31621759  -1.206   2.769   8.146 -0.2220 -0.0333 -0.0004
  188SLPC  H16X21760  -1.205   2.880   8.152 -1.6112 -0.0383  0.4027
  188SLPC  H16Y21761  -1.258   2.731   8.237  0.9574  0.5272  0.9235
  188SLPC  C31721762  -1.281   2.740   8.011 -0.1451 -0.2682 -0.2255
  188SLPC  H17X21763  -1.215   2.774   7.929 -2.0140 -0.1509 -1.7025
  188SLPC  H17Y21764  -1.373   2.802   8.002  0.7981  1.5711  2.2584
  188SLPC  C31821765  -1.301   2.593   7.990  0.0409  0.3224 -0.7230
  188SLPC  H18X21766  -1.385   2.537   8.035 -0.5157  0.7501 -1.2251
  188SLPC  H18Y21767  -1.203   2.545   8.011  0.6285  2.3869  1.4642
  188SLPC  H18Z21768  -1.320   2.586   7.881  0.1509 -1.3387 -0.6386
  189SLPC     N21769   1.687   4.600   6.261 -0.2886  0.2169 -0.5021
  189SLPC   C1321770   1.545   4.547   6.284  0.1978 -0.2771 -0.2481
  189SLPC  H13A21771   1.542   4.489   6.375 -0.6223  0.1634  0.0135
  189SLPC  H13B21772   1.476   4.629   6.301 -1.1135 -1.5271  0.6092
  189SLPC  H13C21773   1.518   4.489   6.198 -1.8767  0.6812 -0.2903
  189SLPC   C1421774   1.682   4.707   6.154 -0.5165  0.4518 -0.1516
  189SLPC  H14A21775   1.780   4.751   6.158  0.2049 -0.9173 -2.1339
  189SLPC  H14B21776   1.654   4.663   6.060  0.8852 -0.0898 -0.3302
  189SLPC  H14C21777   1.617   4.787   6.186  0.8024  0.5936  2.2991
  189SLPC   C1521778   1.783   4.494   6.226 -0.3902  0.8482 -0.0048
  189SLPC  H15A21779   1.885   4.528   6.213 -0.2942  1.2801  1.7068
  189SLPC  H15B21780   1.765   4.410   6.292  1.1560 -0.7417 -1.5648
  189SLPC  H15C21781   1.763   4.443   6.134 -0.1798 -1.0512  0.9890
  189SLPC   C1221782   1.728   4.666   6.397  0.5136  0.2480 -0.3185
  189SLPC  H12A21783   1.697   4.602   6.478 -1.0874  0.8126 -0.4721
  189SLPC  H12B21784   1.666   4.753   6.410 -1.0049 -0.5943 -1.7803
  189SLPC   C1121785   1.875   4.713   6.407 -0.1466  0.3058 -0.4061
  189SLPC  H11A21786   1.944   4.626   6.408  0.1147  0.5233  0.5245
  189SLPC  H11B21787   1.884   4.765   6.504 -2.9636  2.8088 -1.3899
  189SLPC     P21788   1.884   4.954   6.320  0.0445 -0.2142  0.1144
  189SLPC   O1321789   1.958   5.014   6.433  0.3891 -0.0597  0.3607
  189SLPC   O1421790   1.912   5.015   6.191  0.5490  0.2677 -0.2073
  189SLPC   O1221791   1.914   4.800   6.303 -0.1896  0.6475 -0.1178
  189SLPC   O1121792   1.726   4.956   6.342  0.0889  0.6002 -0.4718
  189SLPC    C121793   1.645   5.067   6.383 -0.3912  1.0521 -1.2405
  189SLPC    HA21794   1.695   5.165   6.390 -0.1789  0.8149  0.8443
  189SLPC    HB21795   1.572   5.082   6.300 -0.2260 -1.3265 -1.8749
  189SLPC    C221796   1.566   5.030   6.511  0.1253  0.8007 -0.0745
  189SLPC    HS21797   1.517   5.124   6.542 -1.9897 -0.0540 -0.7201
  189SLPC   O2121798   1.648   4.965   6.607 -0.1100  0.7539  0.0477
  189SLPC   C2121799   1.729   5.046   6.663 -0.2629  1.0322 -0.2989
  189SLPC   O2221800   1.754   5.159   6.638  0.8051 -0.0130 -0.2181
  189SLPC   C2221801   1.798   4.978   6.772 -0.7734  0.3762 -0.0634
  189SLPC   H2R21802   1.873   4.901   6.742 -0.2667  1.0658 -0.5725
  189SLPC   H2S21803   1.860   5.063   6.809  1.6400 -0.5507 -1.8075
  189SLPC    C321804   1.440   4.938   6.477 -0.8737 -0.0120 -0.3749
  189SLPC    HX21805   1.479   4.851   6.420 -1.8822 -0.7090  0.0040
  189SLPC    HY21806   1.371   4.998   6.414 -0.3358  1.9059  0.8271
  189SLPC   O3121807   1.357   4.909   6.584 -0.7468  0.0359 -0.5347
  189SLPC   C3121808   1.390   4.798   6.658 -0.3559  0.4361  0.1283
  189SLPC   O3221809   1.484   4.721   6.639 -0.2036  0.2545  0.2004
  189SLPC   C3221810   1.286   4.790   6.770 -0.1319 -0.9348  0.0051
  189SLPC   H2X21811   1.215   4.707   6.749  0.2233 -1.9345  2.5715
  189SLPC   H2Y21812   1.225   4.883   6.776  2.0378  0.6185 -1.3780
  189SLPC   C2321813   1.699   4.939   6.883 -0.7256  0.2396 -0.3225
  189SLPC   H3R21814   1.621   4.875   6.838 -0.6331 -1.6885  2.1358
  189SLPC   H3S21815   1.641   5.029   6.912 -1.3577 -0.2770  0.0360
  189SLPC   C2421816   1.778   4.878   7.007  0.2653 -0.1553  0.4265
  189SLPC   H4R21817   1.865   4.826   6.962  0.6071  1.5316 -0.9548
  189SLPC   H4S21818   1.717   4.815   7.075 -1.1954 -0.4471 -1.1195
  189SLPC   C2521819   1.839   4.988   7.090 -0.4295  0.4690 -0.3186
  189SLPC   H5R21820   1.760   5.059   7.120  2.0069  2.4929  1.5774
  189SLPC   H5S21821   1.925   5.041   7.042 -0.3559  2.2578  1.7333
  189SLPC   C2621822   1.898   4.935   7.220  0.2231 -0.0435 -0.4072
  189SLPC   H6R21823   1.996   4.887   7.202 -0.0023 -0.7159  0.1323
  189SLPC   H6S21824   1.821   4.865   7.261 -0.2436  0.4259 -0.4738
  189SLPC   C2721825   1.941   5.050   7.320 -0.3725 -0.1659 -0.2047
  189SLPC   H7R21826   1.860   5.126   7.320 -0.8143 -0.4665  4.7318
  189SLPC   H7S21827   2.024   5.101   7.267 -2.0144  0.0811 -2.6084
  189SLPC   C2821828   1.973   5.001   7.461 -0.3332  0.4740 -0.1301
  189SLPC   H8R21829   1.929   4.899   7.469  4.1682 -1.5191  0.5743
  189SLPC   H8S21830   1.921   5.071   7.531  0.3474 -0.0513  0.9131
  189SLPC   C2921831   2.118   4.985   7.493 -0.9843 -0.2880 -0.5569
  189SLPC   H9R21832   2.176   4.922   7.423  0.6900  1.7740 -1.0696
  189SLPC  C21021833   2.190   5.020   7.603  0.1235 -0.1894  0.9598
  189SLPC  H10R21834   2.291   4.977   7.606  1.0993  1.7817 -1.4697
  189SLPC  C21121835   2.150   5.098   7.719 -0.8149 -0.0877 -0.2986
  189SLPC  H11R21836   2.087   5.178   7.675 -1.6364 -0.9679 -0.7042
  189SLPC  H11S21837   2.235   5.149   7.772  0.5753 -2.4530 -0.1937
  189SLPC  C21221838   2.065   5.020   7.815 -0.6708 -0.1145 -0.2296
  189SLPC  H12R21839   1.993   4.959   7.759 -0.3083  0.8218 -1.7465
  189SLPC  C21321840   2.072   5.016   7.948  0.1184 -0.3898  1.2744
  189SLPC  H13R21841   1.998   4.946   7.988  0.3110 -0.8050  0.9160
  189SLPC  C21421842   2.170   5.087   8.033  0.0518  0.7359 -0.0302
  189SLPC  H14R21843   2.256   5.124   7.973  0.4464 -3.0042 -1.9820
  189SLPC  H14S21844   2.216   5.016   8.105  0.9953 -0.5992 -1.9046
  189SLPC  C21521845   2.104   5.201   8.117  0.5509 -0.8540  0.0314
  189SLPC  H15R21846   2.041   5.164   8.201  0.0145 -2.1010 -0.9012
  189SLPC  H15S21847   2.052   5.270   8.047 -0.6062 -1.4499  0.2927
  189SLPC  C21621848   2.214   5.291   8.177  0.5900  0.1287 -0.1262
  189SLPC  H16R21849   2.280   5.330   8.097 -0.6139  0.6357 -0.8912
  189SLPC  H16S21850   2.279   5.224   8.237  1.0149 -1.4632 -2.3141
  189SLPC  C21721851   2.158   5.401   8.261  0.0589 -0.1308  0.1263
  189SLPC  H17R21852   2.137   5.480   8.187  1.1041  0.0561  0.0277
  189SLPC  H17S21853   2.232   5.446   8.331 -0.2420  1.1190 -0.3489
  189SLPC  C21821854   2.033   5.375   8.346  0.5751 -0.0411  0.3427
  189SLPC  H18R21855   2.046   5.289   8.414  1.8377 -0.7510 -0.7631
  189SLPC  H18S21856   1.948   5.365   8.275  1.2412  0.9665 -0.6183
  189SLPC  H18T21857   1.996   5.465   8.400  1.7833  0.3994  0.4683
  189SLPC   C3321858   1.350   4.746   6.901 -0.0799 -0.5078 -0.1481
  189SLPC   H3X21859   1.435   4.815   6.919 -0.4423  0.4343 -1.9206
  189SLPC   H3Y21860   1.389   4.644   6.883  1.1717  0.0239 -0.4790
  189SLPC   C3421861   1.247   4.732   7.009  0.0807  0.3699  0.0831
  189SLPC   H4X21862   1.157   4.674   6.978  0.9582 -1.6096  1.1751
  189SLPC   H4Y21863   1.227   4.826   7.065 -0.0166 -1.0713  2.5306
  189SLPC   C3521864   1.316   4.647   7.122 -0.0295  0.5633 -0.5182
  189SLPC   H5X21865   1.412   4.699   7.142 -0.2540  0.6691  0.2645
  189SLPC   H5Y21866   1.336   4.547   7.078 -2.0652 -1.0096  2.0179
  189SLPC   C3621867   1.228   4.636   7.247 -0.2529 -0.3596  0.4745
  189SLPC   H6X21868   1.153   4.556   7.231 -0.0961 -0.6082  0.9684
  189SLPC   H6Y21869   1.181   4.734   7.270 -0.6972 -0.0966 -1.4820
  189SLPC   C3721870   1.305   4.597   7.374 -0.1572 -0.0233 -0.4059
  189SLPC   H7X21871   1.365   4.687   7.400 -1.5847  0.8405 -0.0921
  189SLPC   H7Y21872   1.373   4.510   7.362  0.8215  0.6007  0.5246
  189SLPC   C3821873   1.223   4.584   7.501 -0.5873 -0.4686 -0.4595
  189SLPC   H8X21874   1.156   4.496   7.490 -1.4039  0.1120 -0.1266
  189SLPC   H8Y21875   1.157   4.673   7.507 -1.8600 -1.1768 -3.1054
  189SLPC   C3921876   1.298   4.560   7.628 -0.0213  1.1472 -1.4334
  189SLPC   H9X21877   1.368   4.638   7.667  0.1271 -0.1999  1.1183
  189SLPC   H9Y21878   1.352   4.463   7.618  0.5495  1.3048 -0.0405
  189SLPC  C31021879   1.200   4.546   7.745  0.4316 -0.5073  0.1331
  189SLPC  H10X21880   1.236   4.490   7.833 -0.9105  1.4213  1.9541
  189SLPC  H10Y21881   1.118   4.475   7.723  0.5703 -0.2401 -1.3052
  189SLPC  C31121882   1.147   4.683   7.794  0.5954  0.5142 -0.1900
  189SLPC  H11X21883   1.066   4.658   7.867  0.4187  0.2763 -0.4652
  189SLPC  H11Y21884   1.096   4.743   7.716 -1.5216  0.1815  0.8820
  189SLPC  C31221885   1.245   4.771   7.870  0.3139  0.6119 -0.4593
  189SLPC  H12X21886   1.210   4.875   7.884  1.5335  1.1119 -1.0200
  189SLPC  H12Y21887   1.336   4.784   7.808 -0.0822 -1.2085 -1.4510
  189SLPC  C31321888   1.281   4.722   8.008 -0.0066 -0.2295  0.9257
  189SLPC  H13X21889   1.294   4.612   8.001 -0.0329 -0.0543 -3.0597
  189SLPC  H13Y21890   1.199   4.737   8.081  2.2477  2.0348  3.0899
  189SLPC  C31421891   1.401   4.793   8.063 -0.1359 -0.1309 -0.4870
  189SLPC  H14X21892   1.383   4.903   8.060  1.7173  0.2061  0.4234
  189SLPC  H14Y21893   1.482   4.781   7.988  0.8824  1.8389  0.2699
  189SLPC  C31521894   1.443   4.745   8.201 -0.7525 -0.1605  0.4760
  189SLPC  H15X21895   1.548   4.773   8.226 -0.9239  0.3244  0.6444
  189SLPC  H15Y21896   1.433   4.634   8.197  0.9448 -0.3700  1.3926
  189SLPC  C31621897   1.337   4.789   8.309 -0.9861 -0.1684  0.7952
  189SLPC  H16X21898   1.249   4.721   8.318  0.0037 -1.3345  1.8716
  189SLPC  H16Y21899   1.299   4.890   8.283  2.1389  0.8070 -0.2230
  189SLPC  C31721900   1.397   4.791   8.449  0.4517 -0.7229 -0.0056
  189SLPC  H17X21901   1.314   4.818   8.517  0.0898  0.5071 -0.9087
  189SLPC  H17Y21902   1.475   4.870   8.459  2.4165 -2.8507  2.1597
  189SLPC  C31821903   1.454   4.649   8.496  0.3301  0.1473  0.2840
  189SLPC  H18X21904   1.378   4.573   8.468  0.9088 -0.8716  1.4058
  189SLPC  H18Y21905   1.476   4.660   8.604 -0.3281  2.1981  0.2233
  189SLPC  H18Z21906   1.552   4.626   8.447  1.3617  0.0987  2.3076
  190SLPC     N21907   2.521   3.859   6.142  0.2168  0.6922  0.3052
  190SLPC   C1321908   2.509   3.993   6.062  0.0743 -0.0495 -0.0863
  190SLPC  H13A21909   2.417   4.043   6.089  0.0746  1.3201 -2.4877
  190SLPC  H13B21910   2.578   4.070   6.095  0.4408  0.2614 -1.5370
  190SLPC  H13C21911   2.521   3.979   5.956 -0.3641 -0.3345 -0.0980
  190SLPC   C1421912   2.664   3.820   6.116  0.2239  0.2792  0.5032
  190SLPC  H14A21913   2.725   3.888   6.173 -1.7725  1.5561  1.1694
  190SLPC  H14B21914   2.683   3.719   6.151 -0.4027 -1.1771 -3.0770
  190SLPC  H14C21915   2.699   3.819   6.014  3.5058 -0.2391  1.5813
  190SLPC   C1521916   2.442   3.743   6.082  0.1510 -0.2232 -0.6662
  190SLPC  H15A21917   2.475   3.736   5.980 -0.0973 -3.7158 -0.5523
  190SLPC  H15B21918   2.462   3.650   6.134  1.0742 -0.7448 -1.9304
  190SLPC  H15C21919   2.341   3.780   6.073  1.2883  2.9046 -1.1516
  190SLPC   C1221920   2.496   3.868   6.296 -0.1687  0.0438  0.1598
  190SLPC  H12A21921   2.542   3.962   6.323  1.0183  0.0257 -1.6184
  190SLPC  H12B21922   2.555   3.789   6.340 -0.4098 -0.5217 -0.5037
  190SLPC   C1121923   2.348   3.869   6.349 -0.8303 -0.2061  0.6380
  190SLPC  H11A21924   2.344   3.894   6.457  3.4021  1.1068  0.5953
  190SLPC  H11B21925   2.324   3.763   6.325 -0.2647 -0.1371 -0.2412
  190SLPC     P21926   2.120   3.960   6.297 -0.3461 -0.4638  0.1340
  190SLPC   O1321927   2.057   4.079   6.235 -0.6682  0.5628  0.0470
  190SLPC   O1421928   2.062   3.834   6.244 -0.4645  0.1999 -0.0762
  190SLPC   O1221929   2.273   3.968   6.275 -0.1691 -0.2126  0.2026
  190SLPC   O1121930   2.104   3.955   6.454  0.1489 -0.6656  0.5479
  190SLPC    C121931   2.088   4.073   6.521  0.3118 -0.1927 -1.0450
  190SLPC    HA21932   2.190   4.111   6.540  0.1057  0.6693 -1.5933
  190SLPC    HB21933   2.031   4.155   6.471 -2.0929 -0.5284  1.0428
  190SLPC    C221934   2.011   4.041   6.651 -0.7985 -0.1879  0.0572
  190SLPC    HS21935   1.984   4.141   6.690  1.7530  0.4834  0.2016
  190SLPC   O2121936   2.087   3.969   6.751 -0.5454 -0.3524 -0.1604
  190SLPC   C2121937   2.192   4.026   6.803 -0.6738 -0.8086 -0.4251
  190SLPC   O2221938   2.239   4.140   6.784 -0.8910 -0.5765 -0.4746
  190SLPC   C2221939   2.255   3.929   6.899  0.1410  0.0313 -0.3135
  190SLPC   H2R21940   2.258   3.834   6.840  2.1290 -0.3330  0.3113
  190SLPC   H2S21941   2.355   3.964   6.933  0.6212 -1.7473  0.1532
  190SLPC    C321942   1.882   3.955   6.617 -0.2335 -0.5360 -0.5380
  190SLPC    HX21943   1.911   3.848   6.609  1.0627 -0.0557 -2.7001
  190SLPC    HY21944   1.850   4.006   6.523 -0.5557 -0.6353 -0.4826
  190SLPC   O3121945   1.782   3.976   6.721  0.0408 -0.8417  0.2427
  190SLPC   C3121946   1.680   3.887   6.723  0.8217 -0.9773  0.4418
  190SLPC   O3221947   1.661   3.813   6.627  0.0334 -0.0402 -0.2462
  190SLPC   C3221948   1.603   3.895   6.842  0.2484  0.6126  0.0415
  190SLPC   H2X21949   1.496   3.877   6.815 -0.6827  1.9396  2.6463
  190SLPC   H2Y21950   1.611   3.995   6.889  0.8125  0.5449  0.0904
  190SLPC   C2321951   2.162   3.888   7.017 -0.6062 -1.5049  0.0756
  190SLPC   H3R21952   2.220   3.814   7.076  0.0109 -2.8099 -2.1384
  190SLPC   H3S21953   2.071   3.839   6.978  0.2915 -2.6001 -0.6423
  190SLPC   C2421954   2.122   3.999   7.119  0.0792 -0.3283  0.3215
  190SLPC   H4R21955   2.074   4.078   7.057 -1.6329 -1.3427  0.3259
  190SLPC   H4S21956   2.214   4.052   7.151 -1.0984  3.0068 -1.5713
  190SLPC   C2521957   2.045   3.933   7.237  0.4478 -0.2918 -0.4687
  190SLPC   H5R21958   2.103   3.850   7.282 -0.6543 -2.3981 -2.8134
  190SLPC   H5S21959   1.952   3.893   7.191 -0.4698 -0.6581  1.6260
  190SLPC   C2621960   2.005   4.028   7.346  1.0925 -0.1997 -0.2208
  190SLPC   H6R21961   1.940   4.101   7.293 -0.7778 -0.6251  1.4392
  190SLPC   H6S21962   2.100   4.078   7.372  2.3283 -1.8795 -1.3755
  190SLPC   C2721963   1.936   3.958   7.469  0.6052 -0.5047  0.1514
  190SLPC   H7R21964   1.997   3.866   7.473 -0.3631 -1.1797 -0.2745
  190SLPC   H7S21965   1.835   3.930   7.432  0.8977  0.8886 -1.7871
  190SLPC   C2821966   1.928   4.052   7.594  0.4855  0.1336  0.3943
  190SLPC   H8R21967   1.857   4.000   7.662 -1.0229  2.7340  0.8675
  190SLPC   H8S21968   1.888   4.149   7.559  0.3663  0.7938  2.2960
  190SLPC   C2921969   2.054   4.074   7.672  0.2669  0.9061 -0.1719
  190SLPC   H9R21970   2.100   4.174   7.673 -2.1833  2.0751 -0.1707
  190SLPC  C21021971   2.099   3.971   7.750  0.0294  0.0165 -0.0299
  190SLPC  H10R21972   2.200   3.980   7.793 -0.2301  1.8001  0.2424
  190SLPC  C21121973   2.039   3.832   7.757  0.2039  0.6997  0.1428
  190SLPC  H11R21974   2.103   3.767   7.694 -2.4209 -0.5280 -1.3051
  190SLPC  H11S21975   1.941   3.820   7.707  0.0284 -2.1113  1.0515
  190SLPC  C21221976   2.023   3.759   7.892 -0.3335  0.8415  0.2579
  190SLPC  H12R21977   2.076   3.665   7.915  2.3469  1.4817 -2.9490
  190SLPC  C21321978   1.924   3.784   7.978 -0.6710 -0.5270 -0.4448
  190SLPC  H13R21979   1.927   3.734   8.076 -0.1270  0.8969  0.2879
  190SLPC  C21421980   1.820   3.888   7.972 -0.4139  0.2640 -0.3255
  190SLPC  H14R21981   1.716   3.849   7.984 -0.0790 -0.3223  0.7183
  190SLPC  H14S21982   1.823   3.947   7.878 -2.5179  2.8327  1.1490
  190SLPC  C21521983   1.851   3.984   8.081 -0.3582 -0.1048 -0.1992
  190SLPC  H15R21984   1.794   4.075   8.053  0.8128  0.2487 -1.5010
  190SLPC  H15S21985   1.959   4.012   8.086 -0.0726 -0.9246 -1.7310
  190SLPC  C21621986   1.822   3.933   8.221 -0.4222  0.1788 -0.8529
  190SLPC  H16R21987   1.900   3.857   8.241  1.4563  2.0072 -1.0567
  190SLPC  H16S21988   1.720   3.894   8.239 -0.8433  1.7262  0.2561
  190SLPC  C21721989   1.831   4.047   8.321  0.0720 -0.2542 -0.4246
  190SLPC  H17R21990   1.749   4.119   8.302  0.5000  0.0082 -1.3238
  190SLPC  H17S21991   1.927   4.102   8.310  1.2583 -1.8035  1.7818
  190SLPC  C21821992   1.821   3.994   8.469  0.4829  0.4779 -0.1220
  190SLPC  H18R21993   1.824   4.075   8.545 -1.3891  0.8411 -0.4039
  190SLPC  H18S21994   1.905   3.926   8.494  0.1209  0.4583  1.0512
  190SLPC  H18T21995   1.721   3.947   8.483  1.4180 -0.7773  2.5992
  190SLPC   C3321996   1.641   3.783   6.953 -0.4144  0.6104 -0.5683
  190SLPC   H3X21997   1.745   3.790   6.991 -0.8242  2.0100  0.3425
  190SLPC   H3Y21998   1.625   3.681   6.913 -0.1429 -0.3170  1.6473
  190SLPC   C3421999   1.552   3.811   7.077 -0.1054 -1.1554  0.7535
  190SLPC   H4X22000   1.443   3.813   7.054 -0.0250  0.0154  0.4309
  190SLPC   H4Y22001   1.579   3.913   7.109  1.1407 -1.2901  0.1735
  190SLPC   C3522002   1.576   3.725   7.200  0.0057  0.7825 -0.2030
  190SLPC   H5X22003   1.687   3.716   7.203 -0.2314 -2.3543  0.4700
  190SLPC   H5Y22004   1.519   3.632   7.178  1.4769  0.4358 -2.7135
  190SLPC   C3622005   1.524   3.790   7.333  0.5812 -0.4814 -0.4685
  190SLPC   H6X22006   1.414   3.809   7.333  0.2362 -2.4299 -0.6023
  190SLPC   H6Y22007   1.573   3.889   7.347  1.7695 -1.1785  0.3266
  190SLPC   C3722008   1.549   3.695   7.447 -1.0191  0.0441  0.0038
  190SLPC   H7X22009   1.651   3.653   7.433 -1.0520  0.5145 -1.8470
  190SLPC   H7Y22010   1.483   3.607   7.434  0.1166 -0.4614 -2.6915
  190SLPC   C3822011   1.547   3.746   7.593  0.0473  0.4733  0.2752
  190SLPC   H8X22012   1.616   3.832   7.610 -0.3183  0.3036  2.8338
  190SLPC   H8Y22013   1.590   3.679   7.670 -0.7955  0.0111  0.3435
  190SLPC   C3922014   1.403   3.766   7.641 -0.0727  0.0408  0.0426
  190SLPC   H9X22015   1.343   3.672   7.644  0.1408 -0.1504 -1.2867
  190SLPC   H9Y22016   1.355   3.839   7.573  1.4433 -0.1897 -1.3169
  190SLPC  C31022017   1.410   3.831   7.776  0.0705  0.1134 -0.1256
  190SLPC  H10X22018   1.307   3.872   7.782 -0.5728 -1.6822  1.6045
  190SLPC  H10Y22019   1.489   3.908   7.789 -0.5748  0.4914  1.7152
  190SLPC  C31122020   1.428   3.726   7.885 -0.9194  0.0729  1.1899
  190SLPC  H11X22021   1.532   3.690   7.870 -1.2365 -0.1235 -0.6563
  190SLPC  H11Y22022   1.352   3.648   7.864 -1.5989  0.9725  0.2323
  190SLPC  C31222023   1.403   3.794   8.023  0.5066 -0.1996  0.0853
  190SLPC  H12X22024   1.295   3.818   8.031 -0.1639 -2.2824 -2.1734
  190SLPC  H12Y22025   1.463   3.888   8.030  1.2626 -0.7520  1.2272
  190SLPC  C31322026   1.455   3.704   8.135  0.2462  0.0519  0.1646
  190SLPC  H13X22027   1.550   3.666   8.093 -0.3264  1.7103 -2.7345
  190SLPC  H13Y22028   1.386   3.617   8.139 -0.0784  0.3159  0.3500
  190SLPC  C31422029   1.453   3.764   8.273 -0.0910 -0.9636  0.3201
  190SLPC  H14X22030   1.353   3.798   8.306  0.0334 -1.2226  0.9792
  190SLPC  H14Y22031   1.522   3.849   8.254 -1.2590  0.0914  0.7244
  190SLPC  C31522032   1.510   3.665   8.377 -0.2631 -0.2003  0.2689
  190SLPC  H15X22033   1.616   3.640   8.356  0.3718  0.4070  2.6158
  190SLPC  H15Y22034   1.449   3.572   8.374 -2.7660  1.4523 -2.1378
  190SLPC  C31622035   1.517   3.719   8.524  0.0993 -0.5909  0.3947
  190SLPC  H16X22036   1.413   3.743   8.554  0.6479 -0.3224  2.1574
  190SLPC  H16Y22037   1.572   3.815   8.526  0.7547 -0.9171 -1.2048
  190SLPC  C31722038   1.570   3.618   8.612  0.0108 -0.2639  1.0204
  190SLPC  H17X22039   1.524   3.518   8.593  1.1471 -0.8972  1.4930
  190SLPC  H17Y22040   1.537   3.635   8.717  1.4665  1.1830  1.2710
  190SLPC  C31822041   1.720   3.599   8.604  0.0451  0.4652 -0.0309
  190SLPC  H18X22042   1.754   3.564   8.504 -0.0148 -1.2246  0.5151
  190SLPC  H18Y22043   1.761   3.524   8.675 -1.0809 -1.3220 -1.2264
  190SLPC  H18Z22044   1.769   3.697   8.616  0.4984  0.1892  0.3670
  191SLPC     N22045   2.003   6.210   5.949  0.4089 -0.2960 -0.3437
  191SLPC   C1322046   2.121   6.223   6.038 -0.4060 -0.4240  0.5398
  191SLPC  H13A22047   2.132   6.124   6.082 -0.7850 -1.2297 -1.1523
  191SLPC  H13B22048   2.209   6.265   5.992  0.7799 -1.0575  2.1583
  191SLPC  H13C22049   2.097   6.285   6.123  0.2283  1.1614 -0.4163
  191SLPC   C1422050   1.970   6.350   5.898  0.3077 -0.6672  0.0200
  191SLPC  H14A22051   1.930   6.410   5.979  0.5099 -1.8827  1.0285
  191SLPC  H14B22052   2.058   6.398   5.857 -0.0250 -0.7646 -0.8270
  191SLPC  H14C22053   1.898   6.355   5.818 -0.3176  1.0163  0.6481
  191SLPC   C1522054   1.884   6.177   6.032  0.1635 -0.0939  0.2009
  191SLPC  H15A22055   1.790   6.200   5.982 -0.4891 -3.6595 -0.3594
  191SLPC  H15B22056   1.876   6.069   6.040 -1.2544 -0.0156 -0.0057
  191SLPC  H15C22057   1.886   6.218   6.132 -0.4408 -0.0764  0.2087
  191SLPC   C1222058   2.032   6.105   5.840 -0.5270  0.1289  0.3584
  191SLPC  H12A22059   2.118   6.141   5.785  1.6948 -2.3660  2.0229
  191SLPC  H12B22060   1.949   6.098   5.772  0.3411  0.6729 -0.7820
  191SLPC   C1122061   2.061   5.959   5.887  0.0357 -0.7853  0.3075
  191SLPC  H11A22062   2.155   5.960   5.947 -1.8558  0.9614  3.3820
  191SLPC  H11B22063   2.088   5.896   5.800 -0.7922 -1.5544  0.6029
  191SLPC     P22064   1.950   5.751   6.012  0.8410 -0.4111  0.1288
  191SLPC   O1322065   1.805   5.714   6.037 -0.2726 -0.3398 -0.3466
  191SLPC   O1422066   2.035   5.665   5.926  0.9708  0.0379 -0.7940
  191SLPC   O1222067   1.956   5.903   5.957 -0.4172  0.1049 -0.7821
  191SLPC   O1122068   2.017   5.751   6.155  0.3157 -0.2831  0.6205
  191SLPC    C122069   1.937   5.738   6.276  0.9456  0.4643  0.6431
  191SLPC    HA22070   1.858   5.660   6.265 -0.5947  1.7714  2.1423
  191SLPC    HB22071   1.996   5.701   6.362 -2.0603  1.5402  3.2601
  191SLPC    C222072   1.867   5.873   6.324  0.0243 -0.0078 -1.1009
  191SLPC    HS22073   1.846   5.929   6.231 -3.3142  0.1463 -0.3234
  191SLPC   O2122074   1.954   5.949   6.415 -0.9431 -0.2826  0.1765
  191SLPC   C2122075   1.933   6.082   6.405 -0.1943  0.2592 -0.4366
  191SLPC   O2222076   1.851   6.134   6.333 -0.0261  0.4667 -0.0034
  191SLPC   C2222077   2.017   6.156   6.511  0.4170  0.3295  0.3858
  191SLPC   H2R22078   2.016   6.091   6.600  0.5083  0.0100  0.1523
  191SLPC   H2S22079   2.124   6.175   6.488 -0.0841  0.8464 -1.6106
  191SLPC    C322080   1.724   5.836   6.396 -0.3228  0.3206 -0.5316
  191SLPC    HX22081   1.678   5.766   6.323  1.5385 -1.8216  0.2869
  191SLPC    HY22082   1.662   5.928   6.401 -0.1558  0.3558  1.1293
  191SLPC   O3122083   1.740   5.755   6.521  0.0612 -0.2826 -0.6286
  191SLPC   C3122084   1.749   5.833   6.628 -0.0657  0.0025  0.2491
  191SLPC   O3222085   1.771   5.953   6.620 -0.0557  0.3362  0.0429
  191SLPC   C3222086   1.734   5.748   6.753 -0.1166  0.7010 -0.7257
  191SLPC   H2X22087   1.770   5.809   6.839 -0.7057  0.9955 -0.6854
  191SLPC   H2Y22088   1.794   5.655   6.746 -0.0279  0.7887 -1.1164
  191SLPC   C2322089   1.962   6.294   6.560 -0.6885  0.4269  0.3408
  191SLPC   H3R22090   1.852   6.279   6.568 -0.7367  1.7573  2.5838
  191SLPC   H3S22091   1.987   6.381   6.496  0.9425  0.4822  1.0413
  191SLPC   C2422092   2.019   6.330   6.698  0.5046  1.0422 -0.7691
  191SLPC   H4R22093   2.130   6.322   6.691  0.5311  0.6862 -0.0387
  191SLPC   H4S22094   1.979   6.247   6.760 -0.1585  0.5529 -1.8327
  191SLPC   C2522095   1.967   6.454   6.758 -0.1021 -0.3229 -0.1818
  191SLPC   H5R22096   1.856   6.465   6.756 -0.1495 -0.9202 -1.4611
  191SLPC   H5S22097   2.009   6.532   6.692  0.7121  0.0970  0.8283
  191SLPC   C2622098   2.016   6.462   6.903 -1.0474 -0.2501 -0.0676
  191SLPC   H6R22099   2.126   6.478   6.908 -1.4508  2.8117  0.5156
  191SLPC   H6S22100   1.993   6.369   6.958 -1.3125  1.4132  2.7687
  191SLPC   C2722101   1.947   6.576   6.973 -0.1322  0.0965 -0.7772
  191SLPC   H7R22102   1.841   6.571   6.942  0.6051 -0.6674 -3.3392
  191SLPC   H7S22103   1.983   6.675   6.938 -1.7839  1.9325  2.5072
  191SLPC   C2822104   1.976   6.591   7.121  0.3505 -0.0757  0.3501
  191SLPC   H8R22105   1.953   6.501   7.183 -1.5145  0.1563  0.0046
  191SLPC   H8S22106   1.909   6.668   7.166 -0.5006 -0.2465 -0.6218
  191SLPC   C2922107   2.123   6.625   7.145  0.1743  0.3588 -0.2624
  191SLPC   H9R22108   2.194   6.556   7.096  0.1124 -0.5105  0.8571
  191SLPC  C21022109   2.168   6.729   7.222 -0.2709 -0.4301  0.4884
  191SLPC  H10R22110   2.277   6.719   7.236 -0.0618  0.0287 -0.6857
  191SLPC  C21122111   2.090   6.827   7.300 -0.1434 -0.7077 -0.2827
  191SLPC  H11R22112   2.036   6.790   7.390 -0.8861  1.4042  0.1622
  191SLPC  H11S22113   2.010   6.878   7.242 -0.8875 -2.0717 -0.4638
  191SLPC  C21222114   2.196   6.924   7.353  0.6725 -0.5347  1.0097
  191SLPC  H12R22115   2.225   6.996   7.275  0.8689  0.1731  1.7307
  191SLPC  C21322116   2.253   6.940   7.478  0.4678  0.5709 -0.0834
  191SLPC  H13R22117   2.315   7.030   7.488  0.3146  0.9101 -1.9917
  191SLPC  C21422118   2.222   6.859   7.600 -0.1520  0.0588  0.3624
  191SLPC  H14R22119   2.315   6.842   7.658 -0.5316 -1.2990  0.6113
  191SLPC  H14S22120   2.186   6.755   7.581 -1.8678  0.6033  0.5268
  191SLPC  C21522121   2.119   6.919   7.702  0.4582  0.3235 -0.4699
  191SLPC  H15R22122   2.026   6.939   7.645 -1.4007 -0.8581  2.0578
  191SLPC  H15S22123   2.148   7.014   7.752 -0.2768 -0.0387  0.6544
  191SLPC  C21622124   2.091   6.823   7.814 -0.1879  0.5012 -0.3321
  191SLPC  H16R22125   2.189   6.799   7.862 -0.1065  0.4028 -0.5498
  191SLPC  H16S22126   2.067   6.722   7.775  0.0271  1.3255 -2.6688
  191SLPC  C21722127   1.995   6.871   7.923 -0.7135  0.1287  0.5022
  191SLPC  H17R22128   1.888   6.866   7.896 -0.8881  0.5175  1.1011
  191SLPC  H17S22129   2.004   6.978   7.953 -0.9915  0.5384 -0.8259
  191SLPC  C21822130   2.000   6.773   8.045  0.3808 -0.4329  0.1459
  191SLPC  H18R22131   1.921   6.790   8.122  0.1468  0.1844 -0.2191
  191SLPC  H18S22132   2.099   6.775   8.095  1.9809  1.3295 -2.9577
  191SLPC  H18T22133   1.983   6.668   8.013  1.8584 -0.7686  0.4389
  191SLPC   C3322134   1.589   5.710   6.784 -0.0500 -0.0368  0.7084
  191SLPC   H3X22135   1.594   5.610   6.832  2.0366 -0.9576 -1.3071
  191SLPC   H3Y22136   1.539   5.699   6.685 -5.2201 -0.3962  3.2074
  191SLPC   C3422137   1.518   5.814   6.876 -0.4472 -0.1273 -0.0949
  191SLPC   H4X22138   1.505   5.912   6.825  0.8884 -0.0803 -0.3815
  191SLPC   H4Y22139   1.577   5.836   6.967 -0.4728  0.6777 -0.2692
  191SLPC   C3522140   1.384   5.773   6.930  0.1306 -0.2130 -0.3765
  191SLPC   H5X22141   1.382   5.671   6.974 -1.6608  0.0397  0.1436
  191SLPC   H5Y22142   1.313   5.775   6.845 -0.1442 -1.6041 -0.1831
  191SLPC   C3622143   1.333   5.857   7.049 -0.0297 -0.3827  0.0555
  191SLPC   H6X22144   1.222   5.852   7.049 -0.0799  0.3777  1.8780
  191SLPC   H6Y22145   1.348   5.963   7.020  1.5000 -0.5591  0.1636
  191SLPC   C3722146   1.397   5.838   7.190  0.4028  1.2900  0.1305
  191SLPC   H7X22147   1.507   5.856   7.190  0.6972 -0.4084  1.8442
  191SLPC   H7Y22148   1.380   5.731   7.215 -0.8385  1.6628  0.9380
  191SLPC   C3822149   1.333   5.922   7.300 -0.4013 -0.4226  0.0742
  191SLPC   H8X22150   1.224   5.901   7.306 -0.5049 -0.1843 -0.9317
  191SLPC   H8Y22151   1.339   6.028   7.267  2.5371 -0.6857 -0.3418
  191SLPC   C3922152   1.393   5.899   7.440 -0.1160 -0.1237 -0.3727
  191SLPC   H9X22153   1.501   5.924   7.446  0.4036 -2.0933 -1.2289
  191SLPC   H9Y22154   1.384   5.800   7.488  2.1386  0.2195  0.8178
  191SLPC  C31022155   1.326   5.997   7.540 -0.4291  0.2014 -0.7406
  191SLPC  H10X22156   1.216   5.996   7.526 -0.6366 -0.2173  0.7552
  191SLPC  H10Y22157   1.351   6.101   7.511  0.5754  0.0393 -0.4948
  191SLPC  C31122158   1.351   5.963   7.690 -0.3640  0.1304 -0.0767
  191SLPC  H11X22159   1.330   5.856   7.708 -0.2078  0.1456  0.2038
  191SLPC  H11Y22160   1.274   6.017   7.749  0.9591  0.6680  1.2034
  191SLPC  C31222161   1.490   6.012   7.736  0.4697 -0.2698  0.1095
  191SLPC  H12X22162   1.520   6.118   7.719  1.3991 -0.4914  0.3390
  191SLPC  H12Y22163   1.558   5.940   7.686  2.4126  2.4191 -1.2231
  191SLPC  C31322164   1.511   5.987   7.889  1.0276  0.5881  0.2885
  191SLPC  H13X22165   1.609   6.037   7.904 -0.0146  3.3013 -1.6515
  191SLPC  H13Y22166   1.511   5.878   7.915 -1.0456  0.5845  0.3619
  191SLPC  C31422167   1.410   6.062   7.985 -0.6792 -0.0404  0.0330
  191SLPC  H14X22168   1.312   6.024   7.949 -0.7433  0.0206  0.1445
  191SLPC  H14Y22169   1.417   6.170   7.959 -2.5486  0.2758  0.7690
  191SLPC  C31522170   1.445   6.054   8.132  0.0245  0.0283  0.2099
  191SLPC  H15X22171   1.440   5.945   8.153  3.9858 -0.9709 -3.4162
  191SLPC  H15Y22172   1.380   6.118   8.195 -1.7848  1.0233 -2.5864
  191SLPC  C31622173   1.589   6.101   8.163  0.0068 -0.0283  0.4525
  191SLPC  H16X22174   1.600   6.207   8.131  0.0025 -0.1387  0.0775
  191SLPC  H16Y22175   1.673   6.051   8.109 -1.3832 -0.1763 -1.6055
  191SLPC  C31722176   1.624   6.094   8.317  0.4132  0.1240 -0.6047
  191SLPC  H17X22177   1.620   5.984   8.332  0.5279  0.2503  0.3569
  191SLPC  H17Y22178   1.553   6.158   8.373  1.2412 -0.1258  0.7514
  191SLPC  C31822179   1.765   6.137   8.355  0.5114  0.4003 -0.5223
  191SLPC  H18X22180   1.814   6.084   8.439 -1.3119 -0.3096  0.1065
  191SLPC  H18Y22181   1.766   6.244   8.384 -0.9552  1.0541 -2.7799
  191SLPC  H18Z22182   1.832   6.119   8.268 -0.7317  0.8676 -1.5962
  192SLPC     N22183   2.091   0.172   6.275 -0.3728  0.1506 -0.4672
  192SLPC   C1322184   2.003   0.148   6.154  0.2209  0.7879 -0.3002
  192SLPC  H13A22185   2.046   0.185   6.062 -1.9381  0.1713 -1.6025
  192SLPC  H13B22186   1.982   0.046   6.127 -0.6441  0.8276  0.2289
  192SLPC  H13C22187   1.904   0.184   6.178  0.7491  0.9326  1.7180
  192SLPC   C1422188   2.066   0.313   6.315  0.0933  0.7668 -0.9318
  192SLPC  H14A22189   2.138   0.346   6.387  1.1483  0.8815 -2.0240
  192SLPC  H14B22190   2.081   0.374   6.227  0.5364  1.1476 -0.5903
  192SLPC  H14C22191   1.965   0.328   6.351  0.4196 -1.5014  1.0461
  192SLPC   C1522192   2.235   0.161   6.230  0.2516 -0.1146  0.7151
  192SLPC  H15A22193   2.248   0.068   6.176 -0.7033 -1.6816  3.0987
  192SLPC  H15B22194   2.262   0.240   6.162  0.5407 -2.7134 -2.3301
  192SLPC  H15C22195   2.307   0.167   6.310 -0.8096 -0.6516  1.7300
  192SLPC   C1222196   2.066   0.080   6.390  0.6752 -0.5675 -0.0910
  192SLPC  H12A22197   1.965   0.087   6.425  0.1996 -1.7826 -1.1690
  192SLPC  H12B22198   2.122   0.102   6.479  2.0318 -2.2889 -0.4632
  192SLPC   C1122199   2.087  -0.076   6.370 -0.8527  1.0533 -0.3070
  192SLPC  H11A22200   2.028  -0.115   6.284 -1.2449 -1.7426  1.1901
  192SLPC  H11B22201   2.035  -0.114   6.461  2.3276 -0.0674  1.0921
  192SLPC     P22202   2.322  -0.103   6.474 -0.1476 -0.0677  0.2238
  192SLPC   O1322203   2.383  -0.233   6.505  0.4794 -0.0248  0.1060
  192SLPC   O1422204   2.412   0.008   6.432  0.1321 -0.5212 -0.1390
  192SLPC   O1222205   2.220  -0.124   6.356 -0.3354 -0.2103  0.9972
  192SLPC   O1122206   2.239  -0.042   6.597 -0.0907  0.4117 -0.8913
  192SLPC    C122207   2.216  -0.109   6.723 -0.2150 -0.1631 -0.0078
  192SLPC    HA22208   2.106  -0.107   6.744 -0.1314 -0.6515  0.4964
  192SLPC    HB22209   2.246  -0.215   6.740 -2.0755 -0.7076  0.1083
  192SLPC    C222210   2.291  -0.034   6.836 -0.3676 -0.2481  0.2256
  192SLPC    HS22211   2.254  -0.076   6.932  2.0229 -0.1573  1.2097
  192SLPC   O2122212   2.258   0.107   6.833 -0.3324 -0.0039 -0.0209
  192SLPC   C2122213   2.305   0.166   6.938  0.0737 -0.3378  0.0653
  192SLPC   O2222214   2.353   0.125   7.042 -0.3085  0.0804 -0.2571
  192SLPC   C2222215   2.289   0.315   6.901 -0.4507 -0.5789 -0.5866
  192SLPC   H2R22216   2.374   0.334   6.832  0.5312  0.4292  0.8684
  192SLPC   H2S22217   2.195   0.330   6.844 -0.6546  0.0956 -0.0646
  192SLPC    C322218   2.448  -0.072   6.829  0.0420  0.1404 -0.1567
  192SLPC    HX22219   2.492  -0.013   6.746  0.6585  0.7739  0.6131
  192SLPC    HY22220   2.454  -0.182   6.813 -1.5414 -0.0229  0.3255
  192SLPC   O3122221   2.533  -0.026   6.942  0.2024 -0.8993  0.2092
  192SLPC   C3122222   2.540  -0.116   7.041  0.3227 -0.5063 -0.2210
  192SLPC   O3222223   2.476  -0.219   7.040 -0.1409  0.1957 -0.1993
  192SLPC   C3222224   2.625  -0.060   7.152 -0.7387 -0.6953 -0.0123
  192SLPC   H2X22225   2.607   0.045   7.182  0.5635 -0.3006 -0.5425
  192SLPC   H2Y22226   2.735  -0.070   7.139 -0.4403  1.1387  0.9503
  192SLPC   C2322227   2.295   0.421   7.020  0.9191  0.4514 -0.4095
  192SLPC   H3R22228   2.329   0.518   6.977  1.9428 -0.0273 -0.7120
  192SLPC   H3S22229   2.376   0.394   7.091  1.5207 -0.5938 -1.4652
  192SLPC   C2422230   2.161   0.440   7.085 -0.4895 -0.1400 -0.4185
  192SLPC   H4R22231   2.109   0.348   7.120  2.0298 -0.7701  1.8547
  192SLPC   H4S22232   2.102   0.502   7.015  0.1142  0.5993 -0.2766
  192SLPC   C2522233   2.186   0.521   7.216  0.0983  0.8061  0.3551
  192SLPC   H5R22234   2.225   0.620   7.184  0.1641  0.0316 -2.0445
  192SLPC   H5S22235   2.251   0.459   7.281 -2.0483 -1.2226  0.6287
  192SLPC   C2622236   2.059   0.532   7.305  0.1315 -0.5030 -0.2882
  192SLPC   H6R22237   2.099   0.577   7.398  0.2982  1.5768 -1.3275
  192SLPC   H6S22238   2.017   0.431   7.322 -1.5528  0.4769  1.7037
  192SLPC   C2722239   1.960   0.632   7.250  0.2131 -0.6959 -0.2877
  192SLPC   H7R22240   1.899   0.599   7.164 -1.1833  2.2442 -0.5101
  192SLPC   H7S22241   2.017   0.721   7.214  1.3363 -0.9424  0.8304
  192SLPC   C2822242   1.865   0.680   7.366  0.1872  0.0759 -0.0088
  192SLPC   H8R22243   1.834   0.780   7.330  2.5258  0.2918 -1.4863
  192SLPC   H8S22244   1.927   0.706   7.454 -2.4656  0.4878  1.7943
  192SLPC   C2922245   1.745   0.597   7.391  0.4543  0.0842  0.0991
  192SLPC   H9R22246   1.665   0.606   7.315  1.4448  1.2587 -0.8356
  192SLPC  C21022247   1.721   0.530   7.499  0.5826 -0.5156 -0.5169
  192SLPC  H10R22248   1.631   0.467   7.493 -0.1276  0.5082 -0.8233
  192SLPC  C21122249   1.810   0.514   7.626 -0.4664 -0.5777  0.2284
  192SLPC  H11R22250   1.790   0.598   7.695 -1.1247 -0.8788  0.4073
  192SLPC  H11S22251   1.919   0.518   7.608 -0.3694  0.9225  1.0417
  192SLPC  C21222252   1.798   0.388   7.710 -0.0086 -0.2671 -0.2692
  192SLPC  H12R22253   1.887   0.324   7.714 -0.0477 -0.2320  1.1338
  192SLPC  C21322254   1.693   0.360   7.786 -0.6424 -0.2319  0.6545
  192SLPC  H13R22255   1.700   0.271   7.851 -1.2464 -0.3922  0.5026
  192SLPC  C21422256   1.575   0.446   7.805 -0.4684  0.6061  0.0851
  192SLPC  H14R22257   1.479   0.408   7.764  0.0056 -0.1186 -0.3743
  192SLPC  H14S22258   1.590   0.543   7.752  0.0443  1.0807  1.0851
  192SLPC  C21522259   1.555   0.475   7.957  0.5705 -0.0372 -0.1795
  192SLPC  H15R22260   1.532   0.380   8.010  1.0719  0.8047  1.5846
  192SLPC  H15S22261   1.464   0.537   7.971 -0.4720 -1.4256 -0.6211
  192SLPC  C21622262   1.677   0.546   8.025 -0.4625  0.1009 -0.2983
  192SLPC  H16R22263   1.717   0.632   7.968 -2.8948  0.5136 -1.4492
  192SLPC  H16S22264   1.768   0.482   8.020  0.2295  1.0592  0.0695
  192SLPC  C21722265   1.665   0.578   8.177  0.2753 -0.7429 -0.0776
  192SLPC  H17R22266   1.766   0.606   8.213  0.8233 -0.8682 -1.4997
  192SLPC  H17S22267   1.600   0.669   8.178  1.5331  0.1565  1.9334
  192SLPC  C21822268   1.623   0.464   8.264 -0.0789 -0.3003 -0.6182
  192SLPC  H18R22269   1.518   0.428   8.256 -0.2711 -0.1330  0.9555
  192SLPC  H18S22270   1.627   0.509   8.365  2.0807 -1.9901  0.1109
  192SLPC  H18T22271   1.694   0.378   8.254 -0.2798 -0.2711 -2.4460
  192SLPC   C3322272   2.606  -0.139   7.284  0.2940 -0.3393  0.0586
  192SLPC   H3X22273   2.638  -0.245   7.272  0.3628 -0.2949 -0.1634
  192SLPC   H3Y22274   2.500  -0.154   7.313  0.3620 -2.0583 -0.5133
  192SLPC   C3422275   2.671  -0.067   7.395 -0.7548  0.1481 -0.3188
  192SLPC   H4X22276   2.635   0.038   7.386 -2.6512 -0.6305 -2.1334
  192SLPC   H4Y22277   2.782  -0.065   7.387 -0.6631 -3.9395 -1.2760
  192SLPC   C3522278   2.651  -0.145   7.533  0.1725  0.0906  0.4126
  192SLPC   H5X22279   2.679  -0.253   7.529 -2.6240 -0.6842  1.0670
  192SLPC   H5Y22280   2.542  -0.154   7.549 -0.0624  1.1506 -0.4791
  192SLPC   C3622281   2.715  -0.075   7.652  0.9283 -0.4071 -0.5383
  192SLPC   H6X22282   2.675   0.029   7.644 -1.3442 -1.2729 -0.9917
  192SLPC   H6Y22283   2.823  -0.089   7.631  1.1712  2.6927 -1.6468
  192SLPC   C3722284   2.677  -0.139   7.785 -0.3760  0.2981  0.4944
  192SLPC   H7X22285   2.674  -0.250   7.784 -2.1095  0.2883  2.2004
  192SLPC   H7Y22286   2.571  -0.112   7.809 -0.5838 -0.1377  0.0844
  192SLPC   C3822287   2.767  -0.088   7.902  0.8346 -0.1179  0.0889
  192SLPC   H8X22288   2.708  -0.105   7.995 -1.9833  0.6984 -1.4676
  192SLPC   H8Y22289   2.780   0.023   7.900  0.4247 -0.0343  1.4841
  192SLPC   C3922290   2.908  -0.155   7.917 -0.4330 -0.1464  0.5275
  192SLPC   H9X22291   2.969  -0.124   7.830 -0.6279  2.2208  1.1928
  192SLPC   H9Y22292   2.880  -0.262   7.910 -1.3575  0.0791  0.6190
  192SLPC  C31022293   2.976  -0.132   8.059  0.3218 -0.2364  0.3028
  192SLPC  H10X22294   3.071  -0.191   8.056  1.8185  2.1811 -3.3763
  192SLPC  H10Y22295   2.910  -0.156   8.144  0.9031  0.4632  0.9594
  192SLPC  C31122296   3.011   0.020   8.078 -0.9469 -0.0905  0.5203
  192SLPC  H11X22297   2.923   0.075   8.038 -0.0299  1.5322  0.6395
  192SLPC  H11Y22298   3.100   0.037   8.012 -0.9319  1.2713  0.8635
  192SLPC  C31222299   3.038   0.068   8.220 -0.1375 -0.6612 -0.1857
  192SLPC  H12X22300   3.114   0.004   8.270 -0.0028 -0.9374 -0.7368
  192SLPC  H12Y22301   2.939   0.055   8.269 -1.1271  3.2910 -1.0018
  192SLPC  C31322302   3.074   0.217   8.226 -0.4594  0.1067 -0.8889
  192SLPC  H13X22303   3.004   0.284   8.172 -0.2605  0.8867 -0.1920
  192SLPC  H13Y22304   3.171   0.237   8.176 -0.3051 -0.6925 -0.9234
  192SLPC  C31422305   3.094   0.269   8.371 -0.7253  0.2863 -0.4754
  192SLPC  H14X22306   3.146   0.367   8.369 -1.0788  0.4649 -1.4677
  192SLPC  H14Y22307   3.154   0.199   8.432 -0.1699  1.2373  0.0849
  192SLPC  C31522308   2.955   0.284   8.441  0.0531 -0.7477 -0.1288
  192SLPC  H15X22309   2.940   0.195   8.506  0.1397  0.0920  1.0575
  192SLPC  H15Y22310   2.887   0.270   8.354  1.8302  0.2745 -1.7294
  192SLPC  C31622311   2.919   0.412   8.526 -1.0115 -0.2896  0.3158
  192SLPC  H16X22312   2.814   0.395   8.559 -2.4689  2.1479 -2.8117
  192SLPC  H16Y22313   2.898   0.491   8.451 -1.8749  0.6145  1.4896
  192SLPC  C31722314   3.006   0.451   8.641 -0.8961 -0.6205 -0.7169
  192SLPC  H17X22315   2.987   0.558   8.663  2.8355  0.6762 -3.2528
  192SLPC  H17Y22316   3.111   0.441   8.607 -0.5313 -3.0364  0.9687
  192SLPC  C31822317   3.001   0.363   8.759 -0.1084  0.2345  0.1533
  192SLPC  H18X22318   3.045   0.410   8.850 -0.8321  0.0066  0.6284
  192SLPC  H18Y22319   3.051   0.265   8.747 -0.0259  0.2483  0.3823
  192SLPC  H18Z22320   2.896   0.347   8.790  0.8337 -0.2924  3.2765
  193SOD    SOD22321   0.998   4.290   1.685 -0.1829  0.0145  0.0909
  194SOD    SOD22322   6.199   1.249   3.593  0.1204 -0.0951  0.2367
  195SOD    SOD22323   3.664   3.274  16.004  0.1607  0.1160 -0.2167
  196SOD    SOD22324   1.301   4.681   3.985  0.2453  0.0400 -0.8185
  197SOD    SOD22325   0.644   4.228  11.667  0.5466 -0.2210 -0.8337
  198SOD    SOD22326   5.514   1.805  15.397 -0.2121  0.2018  0.2918
  199SOD    SOD22327   1.586   1.191   0.832 -0.2351 -0.2327 -0.1633
  200SOD    SOD22328   5.930   6.449  12.148 -0.1031  0.4664  0.1861
  201SOD    SOD22329   3.162   1.023  14.912 -0.2716 -0.3050 -0.5439
  202SOD    SOD22330   0.213   4.610  14.671  0.0897 -0.3489 -0.1002
  203SOD    SOD22331   1.127   5.834  16.098  0.1148 -0.2498  0.1554
  204SOD    SOD22332   0.387   2.785  10.340  0.2803  0.0061  0.9424
  205SOD    SOD22333   6.166   1.170   4.520  0.0945 -0.2214 -0.1221
  206SOD    SOD22334   4.188   3.803  10.937  0.3532  0.1084  0.0723
  207SOD    SOD22335   4.301   2.510   5.416 -0.0620 -0.1524  0.2969
  208SOD    SOD22336   1.519   0.778   4.264  0.0443 -0.3999 -0.0905
  209SOD    SOD22337   1.149   0.603  12.395 -0.2959  0.4789 -0.3635
  210SOD    SOD22338   2.096   6.690  10.765  0.3503 -0.3682 -0.3573
  211SOD    SOD22339   2.202   2.340  12.058  0.4231  0.7618  0.3212
  212SOD    SOD22340   6.616   4.506  10.551  0.0372 -0.0064 -0.5894
  213SOD    SOD22341   1.487   2.996   2.051  0.2968  0.2789  0.3728
  214SOD    SOD22342   1.952   5.141   4.373  0.0109  0.3145 -0.2495
  215SOD    SOD22343   2.132   3.579  11.044 -0.0703 -0.0393  0.2973
  216SOD    SOD22344   6.803   0.274  14.134 -0.8470  0.6460 -0.3806
  217SOD    SOD22345   2.866   5.568   6.050 -0.7134 -0.2927 -0.2658
  218SOD    SOD22346   2.922   4.913  13.780 -0.6704 -0.4080  0.2705
  219SOD    SOD22347   4.961   0.200  16.900  0.2346  0.3324 -0.0762
  220SOD    SOD22348   5.418   1.483  12.593 -0.1543 -0.1153 -0.0658
  221SOD    SOD22349   4.394   0.967  12.152 -0.2057 -0.5934  0.3433
  222SOD    SOD22350   1.859   3.771  16.477  0.2996  0.1885  0.3950
  223SOD    SOD22351   0.508   6.318   5.503  0.2869  0.0476  0.3011
  224SOD    SOD22352   4.108   1.044   0.913  0.3735  0.6450  0.0755
  225SOD    SOD22353   2.194   0.685  13.383  0.2669 -0.1078 -0.2302
  226SOD    SOD22354   1.136   0.852  10.651 -0.3798 -0.2414  0.3601
  227SOD    SOD22355   6.683   6.332   3.730  1.0154  0.1464  0.3565
  228SOD    SOD22356   1.723   1.914   2.496  0.4492 -0.3541 -0.1138
  229SOD    SOD22357   4.197   4.450   0.274  0.2694 -0.2825  0.0274
  230SOD    SOD22358   4.822   3.466  14.428 -0.1478  0.7127 -0.1023
  231SOD    SOD22359   3.779   4.981   5.344 -0.7306  0.2796  0.1167
  232SOD    SOD22360   1.304   0.243   5.802 -0.3013 -0.3896  0.3338
  233SOD    SOD22361   5.731   3.006   2.279  0.3142  0.8611 -0.0929
  234SOD    SOD22362   5.814   6.167  10.623  0.3379  0.3319 -0.4194
  235SOD    SOD22363   3.784   6.036  14.136  0.4939 -0.2034 -0.2167
  236SOD    SOD22364   3.605   5.298  16.481  0.3713  0.5465 -0.0548
  237SOD    SOD22365   2.401   2.706  12.673  0.8850 -0.2434 -0.0743
  238SOD    SOD22366   4.329   1.900  12.898 -0.4125  0.6976  0.3043
  239SOD    SOD22367   2.926   4.498   4.403  0.4771  0.3382  0.7764
  240SOD    SOD22368   0.030   1.629   5.303 -0.3863  0.2290  0.5146
  241SOD    SOD22369   6.215   0.809  11.305 -0.0963 -0.2103 -0.2258
  242SOD    SOD22370   6.462   5.315   2.463  0.9515 -0.4124 -0.3255
  243SOD    SOD22371   6.547   2.385   5.394 -0.1178 -0.5611  0.0248
  244SOD    SOD22372   1.356   1.397  12.853 -0.4493  0.1567  0.0080
  245SOD    SOD22373   1.677   2.656  14.429  0.1542 -0.2155  0.0936
  246SOD    SOD22374   5.783   1.611   5.034  0.0407 -0.0197  0.2597
  247SOD    SOD22375   6.669   2.371  12.269 -0.0038  0.2761 -0.4098
  248SOD    SOD22376   3.339   2.866   1.821  0.2858 -0.3249 -0.0272
  249SOD    SOD22377   0.201   3.388  11.593  0.9789  0.0899 -0.0460
  250SOD    SOD22378   2.963   4.287  15.555 -0.0090 -0.4092 -0.4114
  251SOD    SOD22379   6.663   0.548   1.236  0.2495  0.0205 -0.3851
  252SOD    SOD22380   6.202   5.354  15.076 -0.4872 -0.7482 -0.1853
  253SOD    SOD22381   2.011   0.995   3.994 -0.1767 -0.2613 -0.1008
  254SOD    SOD22382   0.416   3.613  15.289  0.3012  0.1268 -0.3265
  255SOD    SOD22383   6.172   5.730   4.492 -0.0521 -0.0226  0.8185
  256SOD    SOD22384   1.395   4.086  14.564  0.0556 -0.4955 -0.4726
  257SOD    SOD22385   1.438   6.272   0.908 -0.3053 -0.2241  0.2715
  258SOD    SOD22386   4.382   0.229  11.330 -0.4108  0.1888 -0.3949
  259SOD    SOD22387   2.535   0.216   6.506 -0.9080  0.5717  0.1422
  260SOD    SOD22388   4.414   6.568   4.140  0.0842  0.0943  0.5194
  261SOD    SOD22389   4.522   2.656  11.868 -0.5083  0.1090 -0.1727
  262SOD    SOD22390   6.534   4.911   4.364  0.1801  0.0326 -0.1458
  263SOD    SOD22391   3.097   4.425   5.301  0.0142 -0.6456  0.6872
  264SOD    SOD22392   2.587   3.798   4.268 -0.1512  0.6601 -0.4610
  265SOD    SOD22393   0.297   3.857   4.954  0.0215  0.4210  0.2690
  266CLA    CLA22394   1.530   3.475  12.861  0.2109  0.1258  0.4059
  267CLA    CLA22395   6.113   3.690   0.657 -0.1673  0.1085 -0.3824
  268CLA    CLA22396   2.490   6.427   3.297 -0.1217  0.0398 -0.4061
  269CLA    CLA22397   3.822   4.855   4.766 -0.0944  0.2087 -0.1295
  270CLA    CLA22398   1.610   6.377   4.297  0.5457  0.7751 -0.0254
  271CLA    CLA22399   0.322   1.480  14.469  0.3295  0.2827 -0.1065
  272CLA    CLA22400   3.301   4.381  14.403 -0.1379 -0.5489 -0.3068
  273CLA    CLA22401   4.684   4.007  13.341  0.0579  0.2724 -0.8055
  274CLA    CLA22402   6.362   1.328   4.183  0.2743  0.7441  0.1490
  275CLA    CLA22403   6.716   5.168   0.705  0.1004  0.2356 -0.0519
  276CLA    CLA22404   0.176   2.996  17.114  0.1752 -0.0822 -0.4522
  277CLA    CLA22405   0.996   0.367  11.507 -0.1297  0.4335 -0.1864
  278CLA    CLA22406   1.047   0.785   0.607  0.2215 -0.3049 -0.5214
  279CLA    CLA22407   0.579   1.737   0.501 -0.3920 -0.3669  0.1000
  280CLA    CLA22408   2.508   0.372   1.488  0.3039  0.0758  0.1335
  281CLA    CLA22409   3.907   3.237   4.004  0.0760 -0.2645 -0.0187
  282CLA    CLA22410   0.828   2.402  11.556 -0.1253 -0.3520  0.1497
  283CLA    CLA22411   4.119   3.610   5.131 -0.0904  0.0342  0.2692
  284CLA    CLA22412   1.918   1.336  12.259  0.1385  0.3826  0.3813
  285CLA    CLA22413   0.988   5.638  17.259  0.3202 -0.0505  0.1268
  286CLA    CLA22414   3.920   1.880  14.536  0.0867 -0.1323  0.1465
  287CLA    CLA22415   0.142   0.747  13.748  0.3270  0.4687 -0.0051
  288CLA    CLA22416   3.298   2.955   1.575  0.3239  0.0507  0.2802
  289CLA    CLA22417   0.995   0.463   4.531  0.1191  0.1527  0.0525
  290CLA    CLA22418   0.484   2.848  13.798  0.4385  0.3214 -0.2668
  291CLA    CLA22419   6.751   6.511   5.211 -0.2325  0.2527 -0.0758
  292CLA    CLA22420   4.812   6.712  12.134 -0.1103 -0.0497 -0.0933
  293CLA    CLA22421   1.737   2.157  12.782  0.0065 -0.0243  0.1163
  294CLA    CLA22422   2.178   0.225  12.852  0.4052  0.0011  0.2905
  295CLA    CLA22423   1.762   6.171  16.002  0.0440 -0.1452 -0.2914
  296CLA    CLA22424   3.667   3.945   3.546 -0.0243 -0.5110 -0.2456
  297CLA    CLA22425   5.200   2.256  16.328  0.2923 -0.0654  0.2739
  298CLA    CLA22426   6.588   6.435  11.759  0.2208 -0.3595 -0.0278
  299CLA    CLA22427   5.910   1.454  12.717  0.2012  0.6638  0.1530
  300CLA    CLA22428   6.165   4.377  14.772 -0.0264  0.0166 -0.0132
  301CLA    CLA22429   0.459   4.988   2.285  0.1929 -0.1730  0.0292
  302CLA    CLA22430   4.116   5.960   3.409 -0.3359 -0.4799  0.0272
  303CLA    CLA22431   6.386   5.736  15.353 -0.2584  0.2380 -0.0210
  304CLA    CLA22432   4.528   1.037   1.491  0.4221  0.3413 -0.1087
  305CLA    CLA22433   1.670   4.676   0.826 -0.1335  0.0334  0.1194
  306CLA    CLA22434   4.294   2.120  16.945 -0.1491 -0.0598  0.0430
  307CLA    CLA22435   0.381   6.174   0.091 -0.4673 -0.0515  0.0707
  308CLA    CLA22436   1.478   6.606  13.321 -0.0534 -0.0225 -0.0865
  309CLA    CLA22437   5.821   6.360  15.207 -0.0114  0.0252  0.3107
  310CLA    CLA22438   6.387   4.135   3.310 -0.0637 -0.2945 -0.0691
  311CLA    CLA22439   2.314   1.824   2.118 -0.1142 -0.1980  0.0818
  312CLA    CLA22440   0.782   3.924  14.265 -0.3985  0.1251  0.0405
  313CLA    CLA22441   1.030   5.145  13.485  0.0370  0.5664 -0.2895
  314CLA    CLA22442   3.497   2.825  17.257 -0.1792 -0.3066 -0.3501
  315CLA    CLA22443   3.005   1.439   3.695  0.4149 -0.4030 -0.8020
  316CLA    CLA22444   3.696   5.559  14.402 -0.2233  0.0865  0.0765
  317CLA    CLA22445   3.584   2.083  11.932  0.1328  0.2365 -0.0259
  318CLA    CLA22446   6.182   0.211   4.410  0.0993  0.1083  0.2482
  319TIP3   OH222447   3.393   1.602   2.970 -0.3360 -0.6441  0.2357
  319TIP3    H122448   3.416   1.543   2.899  1.5778  0.0639  0.2382
  319TIP3    H222449   3.471   1.605   3.026 -1.1659  0.2023  1.3876
  320TIP3   OH222450   3.710   3.229   5.293 -0.2404 -0.0775  0.7111
  320TIP3    H122451   3.787   3.283   5.306 -0.3363  0.4883 -0.9423
  320TIP3    H222452   3.711   3.207   5.200 -1.4410 -1.0172  0.9019
  321TIP3   OH222453   2.809   3.893  10.483 -0.4063  0.5273  0.5574
  321TIP3    H122454   2.846   3.848  10.407  0.7063  0.8542  0.8865
  321TIP3    H222455   2.874   3.881  10.552 -0.4101  2.0119  0.8529
  322TIP3   OH222456   0.635   3.589   1.414 -0.0604 -0.5001  0.2282
  322TIP3    H122457   0.676   3.642   1.345  0.6209 -0.5560  0.5896
  322TIP3    H222458   0.543   3.615   1.411 -0.3111 -1.5099 -1.6235
  323TIP3   OH222459   5.403   4.639  16.857  0.0633  0.5860  0.6621
  323TIP3    H122460   5.457   4.620  16.935  0.2023  0.4144  0.5240
  323TIP3    H222461   5.370   4.727  16.873  0.8594  0.9269  0.4847
  324TIP3   OH222462   5.353   0.299  13.613  0.1641 -0.1928 -0.1823
  324TIP3    H122463   5.371   0.253  13.695 -0.1780  1.2459  0.7084
  324TIP3    H222464   5.259   0.314  13.613  0.3176  0.8059 -0.3122
  325TIP3   OH222465   4.526   1.296  13.744 -0.6750  0.1206  0.2221
  325TIP3    H122466   4.478   1.218  13.719 -1.9417  0.1576  2.3797
  325TIP3    H222467   4.602   1.264  13.793 -1.2414  0.2120  1.1831
  326TIP3   OH222468   0.717   5.583  15.831 -0.5111 -0.3503 -0.1967
  326TIP3    H122469   0.800   5.609  15.791 -0.4372 -0.9403 -0.4332
  326TIP3    H222470   0.741   5.516  15.895 -0.6526  0.4471  0.6990
  327TIP3   OH222471   1.953   5.984  10.562 -1.0543  0.2297 -0.0744
  327TIP3    H122472   1.915   6.042  10.496 -1.2065 -1.1658 -1.2480
  327TIP3    H222473   1.882   5.924  10.584 -0.2115 -1.0163 -0.6680
  328TIP3   OH222474   4.469   2.974  17.163 -0.3960  0.5562 -0.2194
  328TIP3    H122475   4.492   2.915  17.234 -1.2739  1.1617  0.5914
  328TIP3    H222476   4.375   2.988  17.174 -0.4567  0.9959 -1.2443
  329TIP3   OH222477   4.268   2.901  12.624  0.0388 -0.6133  0.0557
  329TIP3    H122478   4.340   2.951  12.659  0.1059  0.1514 -1.1486
  329TIP3    H222479   4.192   2.960  12.628 -0.1241 -0.7892 -0.3399
  330TIP3   OH222480   6.345   3.681  14.588  0.1722  0.2718 -0.0570
  330TIP3    H122481   6.256   3.653  14.567  0.2951  0.3642 -0.7101
  330TIP3    H222482   6.339   3.777  14.591  0.1700  0.2634  0.2766
  331TIP3   OH222483   1.896   5.617  12.856  0.2510  0.1654 -0.1650
  331TIP3    H122484   1.831   5.640  12.922 -0.7370  0.0634 -1.0848
  331TIP3    H222485   1.943   5.699  12.839 -0.2509  0.4550 -0.1531
  332TIP3   OH222486   6.785   0.225  12.981  0.0836  0.3052 -0.4752
  332TIP3    H122487   6.794   0.130  12.975 -0.5414  0.2008  0.3028
  332TIP3    H222488   6.762   0.252  12.892 -1.9547 -0.5167 -0.2254
  333TIP3   OH222489   6.007   5.100  13.377 -0.4466  0.0944 -0.1831
  333TIP3    H122490   5.928   5.148  13.354  0.0406  0.4204 -1.1858
  333TIP3    H222491   6.021   5.120  13.470 -2.5561 -1.4375  0.4944
  334TIP3   OH222492   1.872   2.975   1.435  0.0353 -0.2332 -0.1130
  334TIP3    H122493   1.899   2.921   1.509 -0.7783 -0.8253 -0.2466
  334TIP3    H222494   1.916   2.936   1.359  0.0596 -0.2342 -0.0984
  335TIP3   OH222495   4.692   1.264   4.306  1.2392  0.2979  0.6938
  335TIP3    H122496   4.756   1.319   4.351  0.4817  1.9198 -0.1879
  335TIP3    H222497   4.744   1.195   4.265  2.7015  2.8213 -1.8448
  336TIP3   OH222498   4.530   1.469  15.174  0.3997 -0.2050  0.5518
  336TIP3    H122499   4.462   1.493  15.110 -0.0941 -0.6794  0.8871
  336TIP3    H222500   4.481   1.452  15.255  1.0641  0.7737  1.1617
  337TIP3   OH222501   2.351   3.279   0.092  0.0033 -0.2937 -0.0888
  337TIP3    H122502   2.321   3.362   0.128  0.3914 -0.6747  1.1562
  337TIP3    H222503   2.277   3.245   0.042  0.3812  1.5615 -1.9664
  338TIP3   OH222504   5.030   3.095  12.506 -0.3169 -0.6250  0.4222
  338TIP3    H122505   5.016   3.184  12.473 -1.2456 -0.5752  0.9291
  338TIP3    H222506   5.121   3.094  12.535  0.4231 -0.5606 -1.7983
  339TIP3   OH222507   2.829   6.182  12.995  0.1845  0.0646  0.2689
  339TIP3    H122508   2.761   6.186  13.062  1.1636  0.7853  1.2592
  339TIP3    H222509   2.909   6.208  13.041  0.9429  0.2337 -1.1049
  340TIP3   OH222510   2.060   4.277   1.328  0.0285  0.1865 -0.4634
  340TIP3    H122511   2.112   4.213   1.376 -1.1522 -0.0554  0.5063
  340TIP3    H222512   2.005   4.226   1.269 -2.0006  0.1734  1.3727
  341TIP3   OH222513   3.683   6.417  15.110 -0.4578 -0.3819  0.1092
  341TIP3    H122514   3.664   6.399  15.202 -0.3837 -1.7550 -0.1264
  341TIP3    H222515   3.728   6.338  15.079 -0.0369  0.2672 -0.9774
  342TIP3   OH222516   0.120   2.128  14.780  0.4982  0.5379 -0.4167
  342TIP3    H122517   0.199   2.150  14.830  1.6621 -0.5983 -1.7346
  342TIP3    H222518   0.117   2.033  14.780 -0.3208  0.5599 -1.2496
  343TIP3   OH222519   2.462   0.567  14.836 -0.2963 -0.0283 -0.1607
  343TIP3    H122520   2.437   0.639  14.778  2.0321  1.7695  0.9645
  343TIP3    H222521   2.536   0.525  14.793 -1.0446 -1.1968 -0.3505
  344TIP3   OH222522   2.883   3.187   4.464 -0.1047 -0.0302 -0.7724
  344TIP3    H122523   2.945   3.260   4.459  0.0480  0.0986  2.1462
  344TIP3    H222524   2.843   3.183   4.377  0.7625  2.7463 -1.3352
  345TIP3   OH222525   3.295   2.632   2.774 -0.1300  0.3518  0.0168
  345TIP3    H122526   3.294   2.727   2.768 -0.7154  0.3098 -0.5927
  345TIP3    H222527   3.232   2.603   2.708  0.8875 -0.4994 -0.5933
  346TIP3   OH222528   2.546   5.821   5.219 -0.1903 -0.6433 -0.0241
  346TIP3    H122529   2.497   5.900   5.198  0.2269 -0.4269 -0.1993
  346TIP3    H222530   2.521   5.801   5.309  2.0501  1.4716  1.1367
  347TIP3   OH222531   6.359   4.093   2.887  0.4257 -0.4233  0.2758
  347TIP3    H122532   6.323   4.092   2.976  1.4877  2.2290  0.7621
  347TIP3    H222533   6.421   4.019   2.886 -0.7606 -1.4505  1.2303
  348TIP3   OH222534   5.216   6.128   1.924 -0.3959  0.2665  0.1534
  348TIP3    H122535   5.191   6.089   2.008  0.8934  0.2068  0.5210
  348TIP3    H222536   5.311   6.115   1.919 -0.5211 -0.0994 -1.5048
  349TIP3   OH222537   4.417   0.147   5.761 -0.7482  0.2055  0.1044
  349TIP3    H122538   4.376   0.221   5.716 -1.4297 -0.3934 -0.2621
  349TIP3    H222539   4.344   0.089   5.783 -0.2278 -0.3134  0.4788
  350TIP3   OH222540   3.338   6.741  11.373  0.0646  0.1142 -0.6949
  350TIP3    H122541   3.423   6.755  11.332  0.0100  0.9417 -0.5305
  350TIP3    H222542   3.316   6.825  11.414 -1.7593  0.5214 -2.4212
  351TIP3   OH222543   1.150   1.765   3.717 -0.4633  0.0730  0.5362
  351TIP3    H122544   1.085   1.834   3.699 -0.9632  0.0857  2.2817
  351TIP3    H222545   1.098   1.686   3.731  0.0351 -0.3821 -0.1782
  352TIP3   OH222546   4.520   4.891  11.725  0.2289  0.0713  0.0758
  352TIP3    H122547   4.612   4.877  11.702 -0.0155  0.8100 -1.4456
  352TIP3    H222548   4.473   4.824  11.676  0.1077 -1.7047  2.5380
  353TIP3   OH222549   4.858   1.616  12.607  0.1769 -0.4644 -0.1609
  353TIP3    H122550   4.897   1.633  12.521  2.2119 -1.8840  0.4342
  353TIP3    H222551   4.776   1.572  12.588 -0.5136  1.2869 -1.4169
  354TIP3   OH222552   0.628   4.701   0.380  0.0957 -0.2160  0.2767
  354TIP3    H122553   0.578   4.621   0.399  0.3903 -0.4400  0.1156
  354TIP3    H222554   0.714   4.669   0.353 -0.3556  0.1062 -1.5563
  355TIP3   OH222555   3.659   0.560  12.042  0.2656  0.3484 -0.8030
  355TIP3    H122556   3.611   0.617  12.102  2.2603 -0.1721  1.3644
  355TIP3    H222557   3.742   0.604  12.028  1.4609 -1.5015  0.1503
  356TIP3   OH222558   1.021   6.521   3.420 -0.0478  0.1533 -0.0986
  356TIP3    H122559   1.048   6.612   3.432 -3.9398  1.1891  1.7297
  356TIP3    H222560   1.075   6.472   3.482 -0.8563  1.8545  2.0241
  357TIP3   OH222561   3.929   2.659  15.110  0.6043  0.4937 -0.4316
  357TIP3    H122562   3.972   2.586  15.066  1.0749 -0.5622  1.6891
  357TIP3    H222563   3.996   2.727  15.116  0.8651  0.2318 -0.3964
  358TIP3   OH222564   3.624   2.566  16.742 -0.0333 -0.3047 -0.1318
  358TIP3    H122565   3.641   2.655  16.772 -0.7769 -0.2457  0.1446
  358TIP3    H222566   3.691   2.513  16.785 -0.0674  0.0148  0.3198
  359TIP3   OH222567   0.772   6.730   5.287 -0.0855 -0.0481  0.1194
  359TIP3    H122568   0.688   6.729   5.335  0.9053  0.3047  1.9100
  359TIP3    H222569   0.833   6.687   5.347  0.8328 -1.0898 -1.5444
  360TIP3   OH222570   2.679   4.634  14.788 -0.0129 -0.0269 -0.8661
  360TIP3    H122571   2.732   4.589  14.722  1.1560 -1.8525  1.2790
  360TIP3    H222572   2.639   4.564  14.839 -0.3007  1.3755  0.8807
  361TIP3   OH222573   1.756   2.397  13.159 -0.0643 -0.4155 -0.4596
  361TIP3    H122574   1.810   2.467  13.121  1.8282 -0.8376  1.4020
  361TIP3    H222575   1.685   2.386  13.096  1.1615  1.2239 -2.1989
  362TIP3   OH222576   4.083   0.525  13.129 -0.0047  0.5963  0.6650
  362TIP3    H122577   4.148   0.490  13.190 -2.2213 -0.7160  2.3751
  362TIP3    H222578   4.029   0.584  13.183 -1.1165  0.5564 -0.3684
  363TIP3   OH222579   0.400   6.024  16.813 -0.4354  0.0684 -0.4643
  363TIP3    H122580   0.466   5.973  16.766 -0.8404 -0.3966 -0.5366
  363TIP3    H222581   0.349   5.958  16.861  0.1532  0.5697  0.8465
  364TIP3   OH222582   4.020   6.539  15.267  0.1231  0.0283  0.6280
  364TIP3    H122583   3.984   6.611  15.215 -1.2419 -1.4284 -0.4932
  364TIP3    H222584   4.114   6.539  15.247  0.0050  1.0120  0.0645
  365TIP3   OH222585   6.521   2.248  16.907  0.1189  0.6876  0.1577
  365TIP3    H122586   6.485   2.330  16.939 -2.0986  0.4530 -1.5968
  365TIP3    H222587   6.615   2.263  16.902 -0.3415  3.5073 -1.1767
  366TIP3   OH222588   2.026   2.811   1.229 -0.8453  0.0350  0.1345
  366TIP3    H122589   2.071   2.733   1.261 -0.3937 -0.0022 -0.6053
  366TIP3    H222590   1.975   2.781   1.154 -2.2970  0.0236  1.1075
  367TIP3   OH222591   3.421   1.973   4.708 -0.6208  0.2755 -0.4014
  367TIP3    H122592   3.366   1.944   4.635 -1.1017  1.5383 -0.5446
  367TIP3    H222593   3.464   2.052   4.675 -0.1082  0.3079  0.3490
  368TIP3   OH222594   1.628   5.771  16.944  0.3479 -0.0198  0.0702
  368TIP3    H122595   1.711   5.754  16.898 -0.0845 -1.3089 -0.2583
  368TIP3    H222596   1.567   5.794  16.874  1.0214  3.4158  0.5391
  369TIP3   OH222597   4.890   4.123  14.369  0.4335  0.4433 -0.1793
  369TIP3    H122598   4.967   4.167  14.405  1.6027 -2.6415  1.2336
  369TIP3    H222599   4.816   4.172  14.404  1.6035 -0.6855  4.2216
  370TIP3   OH222600   5.938   3.785   2.096  0.8027 -0.5109 -0.1621
  370TIP3    H122601   5.936   3.822   2.008  1.0961  1.1898  0.5305
  370TIP3    H222602   6.031   3.781   2.119  0.6930 -0.1946  0.3633
  371TIP3   OH222603   3.133   5.094  15.030  0.1065 -0.3118  0.1017
  371TIP3    H122604   3.081   5.173  15.015 -0.0890 -0.4313  0.1424
  371TIP3    H222605   3.134   5.049  14.946 -0.4264 -0.6475  0.2747
  372TIP3   OH222606   6.507   1.513   5.845  0.1622 -0.3536 -0.3192
  372TIP3    H122607   6.493   1.510   5.940 -0.6903 -0.2336 -0.4321
  372TIP3    H222608   6.525   1.605   5.826 -1.2406 -0.1023 -0.4750
  373TIP3   OH222609   5.409   6.733   6.349 -0.6245 -0.4400  0.2859
  373TIP3    H122610   5.473   6.747   6.419  0.7427  0.3942 -1.1032
  373TIP3    H222611   5.351   6.809   6.354 -0.7237 -0.5405  0.7039
  374TIP3   OH222612   6.151   5.595   0.271  0.3603  0.3318 -0.1103
  374TIP3    H122613   6.117   5.676   0.311 -0.4057  0.0617 -0.2117
  374TIP3    H222614   6.128   5.602   0.179  0.8314  0.2702 -0.2351
  375TIP3   OH222615   2.860   4.882  12.624  0.3045 -0.0391 -0.0273
  375TIP3    H122616   2.934   4.935  12.595  1.1589 -0.8512  0.6685
  375TIP3    H222617   2.799   4.883  12.550  1.6200 -0.5069 -1.1292
  376TIP3   OH222618   2.870   0.584   5.092 -0.2532  0.2812 -0.0854
  376TIP3    H122619   2.816   0.600   5.015  0.9162 -0.7932 -1.1498
  376TIP3    H222620   2.823   0.516   5.141  0.4308 -1.1459 -1.3566
  377TIP3   OH222621   1.453   4.337   3.097  0.5141 -0.4088  0.0345
  377TIP3    H122622   1.376   4.372   3.141 -0.6694 -0.7408 -1.7260
  377TIP3    H222623   1.453   4.380   3.011  1.0288 -2.0619 -0.8156
  378TIP3   OH222624   0.676   1.752   2.492 -0.5316 -0.2547  0.2572
  378TIP3    H122625   0.643   1.662   2.501 -2.9506  0.5052 -0.6446
  378TIP3    H222626   0.699   1.760   2.400 -0.8118  0.1879  0.2219
  379TIP3   OH222627   1.496   2.938   9.929  0.1846  0.0144 -0.3197
  379TIP3    H122628   1.517   2.896  10.013 -0.1186  1.1871  0.3449
  379TIP3    H222629   1.432   2.879   9.889  0.2257 -0.4812  0.3298
  380TIP3   OH222630   6.592   3.501  16.364 -0.0884 -0.1475 -0.2113
  380TIP3    H122631   6.621   3.447  16.291  0.3231 -0.7026  0.3592
  380TIP3    H222632   6.542   3.441  16.419  1.0105 -0.1317  0.8122
  381TIP3   OH222633   5.568   1.162  15.704  0.7431 -0.2305  0.4341
  381TIP3    H122634   5.598   1.190  15.617  0.2899 -0.1042  0.3132
  381TIP3    H222635   5.522   1.238  15.739  1.7662  0.0453  1.1954
  382TIP3   OH222636   4.739   1.227   2.703  0.1298 -0.0786 -0.1564
  382TIP3    H122637   4.718   1.171   2.778  0.6741  1.1516  0.9407
  382TIP3    H222638   4.672   1.295   2.705  0.1942  0.0039 -0.7508
  383TIP3   OH222639   5.266   1.989   3.566  0.5646 -0.1246 -0.7621
  383TIP3    H122640   5.281   2.065   3.623  1.1242 -0.6028 -0.2652
  383TIP3    H222641   5.274   1.913   3.625 -0.0163 -0.5679 -1.2519
  384TIP3   OH222642   4.374   3.689   1.543 -0.3134 -0.4713 -0.5443
  384TIP3    H122643   4.431   3.764   1.559 -2.7803  0.7465  3.0484
  384TIP3    H222644   4.417   3.616   1.587 -1.5602  0.5078  2.4063
  385TIP3   OH222645   4.908   0.009  16.773  0.3567  0.0282 -0.2004
  385TIP3    H122646   4.813   0.005  16.756 -0.2663  0.7959  2.8121
  385TIP3    H222647   4.933  -0.082  16.790 -0.9115  0.3894  4.0559
  386TIP3   OH222648   5.912   3.993  16.864  0.1672  0.0291 -0.0053
  386TIP3    H122649   5.989   3.978  16.809 -0.4130  0.3197 -0.9196
  386TIP3    H222650   5.838   3.984  16.803 -0.4887  0.3054  0.7464
  387TIP3   OH222651   2.057   6.475  16.516 -0.2368  0.3806  0.7205
  387TIP3    H122652   2.145   6.485  16.479 -0.1761  0.8415  0.9871
  387TIP3    H222653   1.999   6.505  16.447 -0.1136  1.4173  1.0573
  388TIP3   OH222654   5.977   0.776  12.086  0.7058 -0.0772  0.3663
  388TIP3    H122655   5.977   0.846  12.151  0.6164 -0.4955  0.8193
  388TIP3    H222656   5.983   0.695  12.137 -0.2982 -0.4552 -0.0885
  389TIP3   OH222657   2.341   2.377   2.724 -0.2712  0.4116 -0.1955
  389TIP3    H122658   2.422   2.422   2.746  1.9248 -3.0081 -0.9218
  389TIP3    H222659   2.354   2.345   2.635 -2.9378  0.8940 -0.7933
  390TIP3   OH222660   4.162   2.954  17.234 -0.3818  0.0524  0.1913
  390TIP3    H122661   4.069   2.975  17.242 -0.2323  0.7633  0.0971
  390TIP3    H222662   4.165   2.858  17.233 -1.0454  0.0165  0.9870
  391TIP3   OH222663   0.157   3.564  10.460  0.0370 -0.5612 -0.2982
  391TIP3    H122664   0.133   3.656  10.475  0.4086 -0.3066 -1.2166
  391TIP3    H222665   0.181   3.561  10.367 -0.3583 -1.6751 -0.3623
  392TIP3   OH222666   4.267   4.235   5.462  0.3950  0.3539  0.6605
  392TIP3    H122667   4.259   4.322   5.422  1.9071  1.5922  2.9322
  392TIP3    H222668   4.344   4.242   5.518 -0.1161 -2.1418  1.7348
  393TIP3   OH222669   1.659   1.583  14.398  0.8473 -0.0942 -0.2707
  393TIP3    H122670   1.637   1.647  14.331 -1.2073 -0.3329  0.1233
  393TIP3    H222671   1.585   1.522  14.398  1.4345 -0.8495  1.3003
  394TIP3   OH222672   1.523   3.010   0.297 -0.2613 -0.1941 -0.6075
  394TIP3    H122673   1.505   3.082   0.237 -0.0383  0.7860  0.4950
  394TIP3    H222674   1.612   3.026   0.327 -1.4663  1.1246  2.4396
  395TIP3   OH222675   4.789   5.681  12.634  0.1101  0.3980 -0.0940
  395TIP3    H122676   4.752   5.769  12.630  1.0081  0.7353 -1.3101
  395TIP3    H222677   4.848   5.676  12.559 -0.4306 -1.4777 -0.4329
  396TIP3   OH222678   3.503   0.448   4.961  0.2739  0.1877  0.4324
  396TIP3    H122679   3.432   0.387   4.981 -0.1257  0.3677 -0.4152
  396TIP3    H222680   3.508   0.447   4.865 -0.1278  1.9383  0.3906
  397TIP3   OH222681   3.146   5.967  15.135 -0.4548  0.2934 -0.0346
  397TIP3    H122682   3.105   6.041  15.091 -1.7105 -0.2633  0.1739
  397TIP3    H222683   3.212   5.935  15.074 -1.6635 -0.0073 -1.2083
  398TIP3   OH222684   0.137   0.839   1.251  1.2992  0.2969 -0.6646
  398TIP3    H122685   0.134   0.935   1.245  2.3717  0.2577 -2.2006
  398TIP3    H222686   0.151   0.821   1.343 -0.4551  1.5761 -0.1203
  399TIP3   OH222687   4.460   6.473  16.631 -0.1392 -0.7261 -0.2002
  399TIP3    H122688   4.554   6.484  16.645 -0.2963 -0.8978  1.0245
  399TIP3    H222689   4.422   6.560  16.644 -0.1257 -0.6035 -0.9475
  400TIP3   OH222690   2.788   2.422  13.105 -0.3504 -0.3047 -0.2012
  400TIP3    H122691   2.807   2.331  13.127 -0.7690 -0.2692  0.3040
  400TIP3    H222692   2.697   2.422  13.077 -0.5917  0.1006  0.5865
  401TIP3   OH222693   3.284   0.038   5.753  0.2766 -0.6211  0.4471
  401TIP3    H122694   3.350   0.087   5.802  0.6423 -1.9301  1.3053
  401TIP3    H222695   3.231   0.105   5.710 -0.4559  0.6486  3.1733
  402TIP3   OH222696   1.715   6.304  16.793  0.1234  0.4053 -0.0866
  402TIP3    H122697   1.630   6.347  16.796 -0.7644 -1.3102  0.1353
  402TIP3    H222698   1.776   6.373  16.765 -1.3506  1.6131 -0.3996
  403TIP3   OH222699   1.157   6.437   4.089 -0.0735  0.0802 -0.8573
  403TIP3    H122700   1.132   6.445   3.997  0.2478  0.2885 -0.9269
  403TIP3    H222701   1.098   6.498   4.134  0.7178  1.0412 -1.0949
  404TIP3   OH222702   6.400   1.225  16.233 -0.7444  0.6879  0.2391
  404TIP3    H122703   6.443   1.308  16.253  1.6374 -0.4564  0.0921
  404TIP3    H222704   6.468   1.159  16.249 -2.1205 -1.0959 -1.0976
  405TIP3   OH222705   2.595   1.993  13.977 -0.3239  0.3257  0.1395
  405TIP3    H122706   2.672   2.016  14.030 -0.8595  0.3698  0.9134
  405TIP3    H222707   2.543   1.937  14.034 -0.8312  0.2388 -0.4047
  406TIP3   OH222708   3.259   0.689  16.093  0.0035  0.4543 -0.0906
  406TIP3    H122709   3.281   0.781  16.110 -0.5922  0.5248  0.3346
  406TIP3    H222710   3.229   0.689  16.002  1.2236  0.4477 -0.5020
  407TIP3   OH222711   0.899   6.605   1.090 -0.1407  0.0138  0.2596
  407TIP3    H122712   0.851   6.619   1.008  2.8930 -0.9830 -1.7454
  407TIP3    H222713   0.904   6.692   1.129 -0.4940  0.7420 -1.2607
  408TIP3   OH222714   5.634   0.551   0.544  0.1682 -0.0862 -0.0990
  408TIP3    H122715   5.546   0.516   0.529  0.9107 -1.4943 -1.3492
  408TIP3    H222716   5.622   0.645   0.551 -1.2892 -0.1640 -1.4466
  409TIP3   OH222717   0.895   0.089  13.865  0.0411  0.2825 -0.4102
  409TIP3    H122718   0.834   0.064  13.796 -0.3052 -0.2836  0.0908
  409TIP3    H222719   0.976   0.044  13.843 -0.4417 -0.9095  0.2320
  410TIP3   OH222720   3.769   0.811  11.433 -0.6068 -0.0019 -0.4147
  410TIP3    H122721   3.690   0.831  11.482 -0.1125  0.7505  0.0841
  410TIP3    H222722   3.791   0.721  11.457 -0.3321  0.3839  0.7936
  411TIP3   OH222723   3.494   1.510  15.145 -0.6275 -0.0615 -0.2033
  411TIP3    H122724   3.576   1.558  15.134  0.8916 -2.4419  0.3527
  411TIP3    H222725   3.433   1.574  15.182  0.7557  1.9219 -1.2605
  412TIP3   OH222726   3.128   2.057  16.622 -0.2051  0.0650 -0.1125
  412TIP3    H122727   3.120   2.090  16.532 -1.5160  1.0046  0.3386
  412TIP3    H222728   3.207   2.100  16.656  0.7655 -0.9180 -1.0603
  413TIP3   OH222729   0.199   0.391   0.783 -0.5470 -0.1618  0.2070
  413TIP3    H122730   0.115   0.358   0.750  0.0550 -1.2627 -0.2385
  413TIP3    H222731   0.263   0.326   0.754  0.1078 -0.7901  2.8851
  414TIP3   OH222732   4.578   0.508   1.635  0.2704 -0.1456 -0.8549
  414TIP3    H122733   4.562   0.578   1.698 -2.0572 -0.8813 -0.5903
  414TIP3    H222734   4.672   0.493   1.639  0.4798  1.4751  0.6650
  415TIP3   OH222735   1.382   4.182  13.064 -0.1078  0.2128 -0.3123
  415TIP3    H122736   1.420   4.197  12.977 -2.2507 -1.0428 -1.4944
  415TIP3    H222737   1.457   4.156  13.118  0.9841 -0.7069 -2.2043
  416TIP3   OH222738   5.426   2.395   3.387  0.7438 -0.5425  0.7411
  416TIP3    H122739   5.382   2.323   3.341  0.8554 -1.3936  1.9369
  416TIP3    H222740   5.514   2.397   3.349  0.0542  0.4524 -0.8827
  417TIP3   OH222741   1.262   1.529  12.678 -0.4228 -0.2909 -0.1355
  417TIP3    H122742   1.169   1.525  12.654 -1.0034  2.1189  1.4577
  417TIP3    H222743   1.286   1.621  12.664  1.8619 -0.9862 -0.9381
  418TIP3   OH222744   2.126   5.522  16.861  0.3109  0.1268  0.5993
  418TIP3    H122745   2.134   5.617  16.857  0.6006  0.1327  1.3118
  418TIP3    H222746   2.149   5.493  16.772 -1.2481  0.8144 -0.0475
  419TIP3   OH222747   5.834   3.016  12.554  0.3600 -0.0855 -0.4812
  419TIP3    H122748   5.887   3.039  12.477  0.8378  0.1343 -0.0936
  419TIP3    H222749   5.899   2.998  12.623 -0.0151 -2.0064 -0.6073
  420TIP3   OH222750   2.999   1.318  16.258 -0.0924 -0.0351  0.2999
  420TIP3    H122751   2.999   1.313  16.162 -1.2239  0.8045  0.2446
  420TIP3    H222752   2.958   1.402  16.277  1.5684  0.5290  1.5072
  421TIP3   OH222753   5.227   6.229  15.274  0.5043  0.2238  0.0516
  421TIP3    H122754   5.304   6.286  15.273  1.1419 -0.6513 -0.3145
  421TIP3    H222755   5.262   6.140  15.274 -0.4671 -0.1944  1.8537
  422TIP3   OH222756   1.574   4.893   5.696  0.2754  0.1657  0.0844
  422TIP3    H122757   1.503   4.938   5.741 -0.6301 -0.2068 -0.9614
  422TIP3    H222758   1.548   4.893   5.604 -0.5892 -4.0008  0.2540
  423TIP3   OH222759   3.988   3.866  11.787 -0.4481  0.0434 -0.3609
  423TIP3    H122760   3.985   3.874  11.692  0.3625 -1.8420 -0.5725
  423TIP3    H222761   4.081   3.853  11.806 -0.6532  0.0426  0.6530
  424TIP3   OH222762   2.964   6.792   0.534 -0.1579 -0.1211 -0.1171
  424TIP3    H122763   3.003   6.708   0.556  0.7333  0.6197  1.2111
  424TIP3    H222764   2.938   6.829   0.619  0.5823  1.4763 -0.5719
  425TIP3   OH222765   0.023   2.286  10.787 -0.0838 -0.0695  0.1018
  425TIP3    H122766   0.039   2.331  10.870 -0.9218 -0.4336  0.4640
  425TIP3    H222767   0.107   2.246  10.765  0.3837  0.7731  0.3174
  426TIP3   OH222768   5.596   0.190   4.937  0.1836 -0.2161  0.7084
  426TIP3    H122769   5.506   0.221   4.945  0.8620  1.7542  0.9618
  426TIP3    H222770   5.595   0.102   4.975 -1.9714 -0.8697 -0.7700
  427TIP3   OH222771   2.292   1.419  12.426 -0.1509 -0.0753  0.6985
  427TIP3    H122772   2.318   1.478  12.496  0.2845  0.1673  0.3356
  427TIP3    H222773   2.324   1.333  12.453  1.4200  0.2930  0.0577
  428TIP3   OH222774   0.035   4.553  14.845  0.1317 -0.4738  0.6735
  428TIP3    H122775  -0.026   4.518  14.781  1.0195 -0.8584  0.0310
  428TIP3    H222776  -0.012   4.549  14.928 -0.9800 -0.0794  0.0657
  429TIP3   OH222777   0.282   0.252  12.817 -0.4605 -0.5962 -0.2936
  429TIP3    H122778   0.224   0.285  12.749 -0.2059  2.3990  0.8772
  429TIP3    H222779   0.354   0.211  12.770 -0.8138  0.4928 -1.7985
  430TIP3   OH222780   0.595   3.431  11.739  0.6440  0.5630 -0.5538
  430TIP3    H122781   0.513   3.480  11.736 -1.3117 -2.4983  0.1160
  430TIP3    H222782   0.607   3.411  11.831  1.6974  0.2785 -0.7527
  431TIP3   OH222783   1.837   3.367   1.139  0.0975 -0.1335 -0.0392
  431TIP3    H122784   1.882   3.312   1.202 -0.5827  0.4101  0.9283
  431TIP3    H222785   1.820   3.449   1.185 -2.2776 -0.4839 -0.2207
  432TIP3   OH222786   2.012   2.701   2.680 -0.3834 -0.3639 -0.0009
  432TIP3    H122787   1.966   2.673   2.760  0.2116 -2.2271 -0.2699
  432TIP3    H222788   2.000   2.628   2.619 -0.7146  0.9870 -1.5927
  433TIP3   OH222789   3.144   2.714   1.781  0.5076  0.1781  0.0719
  433TIP3    H122790   3.170   2.631   1.741  1.7057  0.6003 -0.0269
  433TIP3    H222791   3.068   2.691   1.835  1.0238 -1.0378  0.2964
  434TIP3   OH222792   2.920   5.756   1.057  0.0978 -0.1309 -0.4180
  434TIP3    H122793   2.861   5.759   0.981  0.7511  0.3096 -0.9111
  434TIP3    H222794   3.008   5.762   1.019  0.4807 -1.2833  0.2889
  435TIP3   OH222795   5.593   6.718   2.714  0.8879  0.0776  0.1562
  435TIP3    H122796   5.506   6.691   2.742  0.2816 -0.1890 -1.9080
  435TIP3    H222797   5.611   6.798   2.763  0.0140 -0.5415  1.5111
  436TIP3   OH222798   3.677   1.997   2.862 -0.0023  0.4495  0.0116
  436TIP3    H122799   3.649   2.082   2.826  0.1261  0.2696 -0.5143
  436TIP3    H222800   3.733   1.960   2.794 -0.4740 -0.2875  0.0291
  437TIP3   OH222801   3.733   2.687   0.247  0.3313 -0.0440  0.0639
  437TIP3    H122802   3.790   2.725   0.180 -0.5176  0.9428 -0.1194
  437TIP3    H222803   3.662   2.646   0.197  0.0433  0.1233  0.3324
  438TIP3   OH222804   6.662   3.624   0.928 -0.0884 -0.1661  0.0517
  438TIP3    H122805   6.636   3.532   0.914  0.7600 -0.3913 -0.0483
  438TIP3    H222806   6.614   3.672   0.860  0.2380 -0.6592 -0.5365
  439TIP3   OH222807   5.510   3.218   3.842  0.4496  0.7568  0.4004
  439TIP3    H122808   5.453   3.203   3.766 -0.4974  1.1346  1.0191
  439TIP3    H222809   5.567   3.289   3.816 -1.4285  2.4813  0.8481
  440TIP3   OH222810   0.922   3.545  14.839 -0.1419 -0.5456 -0.2019
  440TIP3    H122811   0.937   3.636  14.866 -0.1681 -0.4670 -0.4553
  440TIP3    H222812   0.995   3.496  14.877  0.7654 -0.1657 -1.4432
  441TIP3   OH222813   4.534   5.243  12.697  0.0931 -0.2603  0.1509
  441TIP3    H122814   4.517   5.181  12.768 -2.6738  0.2585  0.0039
  441TIP3    H222815   4.448   5.281  12.677  1.3338  1.8602 -1.3912
  442TIP3   OH222816   6.705   1.956  14.718 -0.4507 -0.6586 -0.3447
  442TIP3    H122817   6.686   1.875  14.671  0.2906 -0.9444 -0.1521
  442TIP3    H222818   6.751   2.011  14.655 -1.0519 -0.3355 -0.5120
  443TIP3   OH222819   3.924   5.915  12.095  0.1991  0.5126  0.4006
  443TIP3    H122820   3.948   5.841  12.039  1.1268  1.0224  0.1154
  443TIP3    H222821   3.829   5.921  12.088  0.4595  1.7098 -2.5375
  444TIP3   OH222822   3.626   2.878   4.747 -0.1504 -0.3858 -0.0261
  444TIP3    H122823   3.573   2.924   4.812 -0.5474  1.4543 -1.5908
  444TIP3    H222824   3.687   2.945   4.714 -0.4024 -1.0923 -1.9959
  445TIP3   OH222825   2.658   4.681  14.450  0.1046 -0.6993 -0.0652
  445TIP3    H122826   2.573   4.645  14.425  1.1179 -2.1004 -1.6408
  445TIP3    H222827   2.715   4.604  14.456  1.1300  0.1575  1.5586
  446TIP3   OH222828   1.154   4.019  16.709 -0.3552 -0.7683  0.6078
  446TIP3    H122829   1.139   3.937  16.756 -1.7492  0.6149  2.6705
  446TIP3    H222830   1.068   4.062  16.707  0.5279  1.0350  0.3350
  447TIP3   OH222831   0.390   4.686  16.622  0.5341  0.0204  0.5915
  447TIP3    H122832   0.321   4.662  16.559  0.0959  1.4029  0.5214
  447TIP3    H222833   0.470   4.689  16.570  0.3852 -0.0844  0.3555
  448TIP3   OH222834   1.079   6.663  12.456 -0.4937  0.3635  0.1515
  448TIP3    H122835   1.113   6.596  12.517 -1.0552 -1.7243 -1.7533
  448TIP3    H222836   1.155   6.687  12.404 -0.7690 -0.4602 -0.6443
  449TIP3   OH222837   5.814   4.921   1.895 -0.3057 -0.2477 -0.4581
  449TIP3    H122838   5.882   4.941   1.959  1.4044 -0.5467 -2.1186
  449TIP3    H222839   5.774   4.840   1.925  1.3026 -1.0294 -0.4022
  450TIP3   OH222840   0.553   4.258  15.290 -0.3184 -0.3871  0.0269
  450TIP3    H122841   0.567   4.309  15.370 -0.7237 -0.6810  0.2859
  450TIP3    H222842   0.482   4.198  15.312 -0.1090 -0.7935 -0.4034
  451TIP3   OH222843   6.303   3.458  15.388  0.0688 -0.3397 -0.3920
  451TIP3    H122844   6.270   3.458  15.478 -0.8228 -1.3809 -0.6937
  451TIP3    H222845   6.347   3.542  15.378 -2.1258  0.9149  0.1919
  452TIP3   OH222846   2.735   6.452   5.069  0.1113  0.4503 -0.1177
  452TIP3    H122847   2.758   6.460   5.161  1.4609  0.6836 -0.4730
  452TIP3    H222848   2.639   6.460   5.068 -0.0793 -1.2498  1.4299
  453TIP3   OH222849   3.605   6.269  12.017  0.4494 -0.3458  0.0453
  453TIP3    H122850   3.626   6.199  11.954  1.1938  0.2830 -0.4149
  453TIP3    H222851   3.687   6.283  12.064  0.5476  0.8187 -0.4642
  454TIP3   OH222852   0.334   5.869  15.666  0.1571 -0.2319  0.2802
  454TIP3    H122853   0.302   5.796  15.612  0.1907 -0.4497  0.5588
  454TIP3    H222854   0.427   5.874  15.646 -0.2244  1.0599 -1.3209
  455TIP3   OH222855   1.475   6.227  13.324 -0.3650 -0.0211  0.2456
  455TIP3    H122856   1.475   6.322  13.323  1.9861  0.0275  1.4662
  455TIP3    H222857   1.386   6.202  13.298 -1.0444  2.4879  0.1003
  456TIP3   OH222858   6.517   3.981  12.831 -0.2534 -0.6720 -0.2376
  456TIP3    H122859   6.521   4.070  12.867  3.7029 -0.8051 -0.0988
  456TIP3    H222860   6.488   3.927  12.903  0.7346  0.0641  0.7388
  457TIP3   OH222861   0.072   2.100  15.105  0.2290 -0.2994 -0.4177
  457TIP3    H122862   0.004   2.033  15.094 -0.2399  0.1719 -0.4311
  457TIP3    H222863   0.059   2.159  15.031  0.2473  0.1437 -0.0702
  458TIP3   OH222864   6.770   5.369   0.447 -0.3833  0.2790 -0.2000
  458TIP3    H122865   6.743   5.286   0.488  1.1929 -1.1638 -2.0295
  458TIP3    H222866   6.818   5.343   0.369 -0.1993  2.9540 -1.0178
  459TIP3   OH222867   5.718   2.572   1.276 -0.0405 -0.7790  0.4882
  459TIP3    H122868   5.806   2.566   1.312  1.3234 -2.7449 -2.9203
  459TIP3    H222869   5.728   2.625   1.197 -1.6927 -1.8096 -0.4530
  460TIP3   OH222870   5.415   3.876   5.207  0.4321  0.4730 -0.0326
  460TIP3    H122871   5.452   3.789   5.223  1.0414  0.7179 -0.1040
  460TIP3    H222872   5.491   3.934   5.204  0.1309  0.8068 -1.3102
  461TIP3   OH222873   5.348   2.724   5.303  0.7942 -0.6136  0.2266
  461TIP3    H122874   5.309   2.704   5.388  0.8963 -0.5380  0.2905
  461TIP3    H222875   5.348   2.819   5.298 -2.9333 -0.5731 -1.5561
  462TIP3   OH222876   6.543   0.350  12.232  0.3884  0.3360  0.8309
  462TIP3    H122877   6.467   0.335  12.175 -1.4377  0.6163  3.0998
  462TIP3    H222878   6.558   0.444  12.229  0.2871  0.3506  0.7870
  463TIP3   OH222879   6.275   1.872  16.912  0.1452 -0.0206 -0.6177
  463TIP3    H122880   6.237   1.815  16.979  1.3543  0.3827  0.4250
  463TIP3    H222881   6.199   1.909  16.867 -0.6683 -1.2006 -0.2491
  464TIP3   OH222882   0.000   4.088  15.771 -0.5081 -0.5809  0.1245
  464TIP3    H122883  -0.032   4.156  15.829  0.6076  2.0877 -2.2396
  464TIP3    H222884  -0.079   4.049  15.733 -1.1391  0.5024  0.3059
  465TIP3   OH222885   0.748   2.339   4.076  0.1794  0.5391 -0.6730
  465TIP3    H122886   0.753   2.433   4.092 -2.5954  0.7220 -0.5920
  465TIP3    H222887   0.718   2.301   4.159  0.5843 -0.3256 -0.9098
  466TIP3   OH222888   2.894   1.469  14.925  0.0661  0.3697  0.1962
  466TIP3    H122889   2.878   1.423  15.008  1.0514 -1.0338 -0.3688
  466TIP3    H222890   2.980   1.508  14.936 -0.1593  0.8886  0.1320
  467TIP3   OH222891   0.155   3.282  11.373  0.1017  0.4420  0.5990
  467TIP3    H122892   0.069   3.273  11.333  0.4121  1.4104 -0.3083
  467TIP3    H222893   0.214   3.236  11.313  0.1547 -0.5708  1.4299
  468TIP3   OH222894   3.783   1.977  15.891  0.5204 -0.5980 -0.0420
  468TIP3    H122895   3.714   1.991  15.826 -0.2344 -2.1757  0.3976
  468TIP3    H222896   3.865   1.981  15.841  0.3861  4.0272 -0.1691
  469TIP3   OH222897   6.273   1.840   3.323 -0.6648 -0.3367  0.0539
  469TIP3    H122898   6.354   1.826   3.274 -0.0501 -2.0924  1.5036
  469TIP3    H222899   6.203   1.822   3.260  0.1133 -3.0263 -0.1192
  470TIP3   OH222900   2.725   2.887  14.746  0.4691 -0.3889  0.1995
  470TIP3    H122901   2.802   2.916  14.794  0.6575  0.2309 -0.4724
  470TIP3    H222902   2.651   2.910  14.803  0.7949 -1.2704  0.9818
  471TIP3   OH222903   0.663   3.857  16.069 -0.0146  0.2344 -0.4445
  471TIP3    H122904   0.591   3.799  16.093  1.3124 -1.2735 -0.0193
  471TIP3    H222905   0.726   3.849  16.141  0.7505  1.2335 -0.9803
  472TIP3   OH222906   5.474   5.003  12.415  0.1301  0.5641 -0.0150
  472TIP3    H122907   5.463   5.095  12.389  3.1788  0.8377 -0.4742
  472TIP3    H222908   5.551   4.974  12.367  0.6177 -1.5455  1.9982
  473TIP3   OH222909   3.510   6.018  14.238 -0.4837 -0.5759 -0.2418
  473TIP3    H122910   3.503   6.111  14.259  1.2949 -0.2717 -0.8812
  473TIP3    H222911   3.432   5.999  14.185 -1.6174  0.1848  1.1441
  474TIP3   OH222912   3.915   2.795  11.550  0.2291  0.0063  0.6890
  474TIP3    H122913   3.838   2.738  11.553 -0.2412  0.6296  0.6578
  474TIP3    H222914   3.895   2.856  11.479  0.3859  0.7003  1.2459
  475TIP3   OH222915   5.149   4.448  10.515  0.0270  0.3456  0.1266
  475TIP3    H122916   5.155   4.496  10.433 -2.5054 -1.0067 -0.8911
  475TIP3    H222917   5.056   4.434  10.529  0.5476 -2.0403  1.6851
  476TIP3   OH222918   4.256   6.287   3.190 -0.4565  0.1912 -0.0134
  476TIP3    H122919   4.192   6.295   3.260 -0.2218 -0.5020  0.2910
  476TIP3    H222920   4.339   6.270   3.235 -0.1438  0.6418 -0.4209
  477TIP3   OH222921   1.387   2.794  17.189 -0.7546 -0.5735  0.3693
  477TIP3    H122922   1.430   2.876  17.167 -1.4356  0.2126  1.8583
  477TIP3    H222923   1.360   2.756  17.105  2.9486 -1.1730 -0.6149
  478TIP3   OH222924   2.596   5.859  16.179  0.5335 -0.2418  0.0442
  478TIP3    H122925   2.635   5.919  16.116  1.0808  1.0678  1.5947
  478TIP3    H222926   2.518   5.905  16.210 -0.8306 -1.7408 -1.1430
  479TIP3   OH222927   3.942   4.137   1.303 -0.5516 -0.1883 -0.1938
  479TIP3    H122928   3.938   4.232   1.295  0.3622 -0.1969 -0.8716
  479TIP3    H222929   3.861   4.106   1.262 -0.9405  0.3037  0.2012
  480TIP3   OH222930   3.256   1.771  11.758 -0.2092  0.2343  0.0667
  480TIP3    H122931   3.349   1.749  11.748 -0.9047 -2.0769 -1.9381
  480TIP3    H222932   3.254   1.835  11.829  2.9937  0.9983 -0.4425
  481TIP3   OH222933   0.580   4.028   1.171 -0.8826 -0.0441 -0.3110
  481TIP3    H122934   0.637   4.052   1.098 -1.1254  0.9333 -0.1845
  481TIP3    H222935   0.637   3.985   1.234 -0.4769  0.0166 -0.6359
  482TIP3   OH222936   3.307   6.002   2.349 -0.3877  0.0869 -0.0508
  482TIP3    H122937   3.223   6.004   2.394 -0.8108  0.3780 -0.8655
  482TIP3    H222938   3.354   6.079   2.381 -1.4562  1.3984 -1.5968
  483TIP3   OH222939   6.161   2.589   3.331  0.3051 -0.1271 -0.1839
  483TIP3    H122940   6.197   2.528   3.266 -0.5629 -1.8772  0.9296
  483TIP3    H222941   6.195   2.558   3.414  0.7016  1.5829  0.3012
  484TIP3   OH222942   5.049   2.284   6.019  0.3457  0.7171  0.7375
  484TIP3    H122943   4.966   2.243   6.042 -0.1341  1.4981  0.3946
  484TIP3    H222944   5.083   2.229   5.948  0.3438  0.1405  1.1709
  485TIP3   OH222945   5.729   6.812  10.951  0.1749 -0.2177 -0.0142
  485TIP3    H122946   5.776   6.888  10.917 -0.3686 -0.3380 -1.0934
  485TIP3    H222947   5.790   6.770  11.011  1.3205 -0.1963 -1.1471
  486TIP3   OH222948   4.320   5.694   0.052  0.9396 -1.3060 -0.2346
  486TIP3    H122949   4.374   5.705   0.130  1.7247 -0.6425 -0.8602
  486TIP3    H222950   4.381   5.661  -0.015  0.5905 -0.4833 -0.9599
  487TIP3   OH222951   6.594   0.778  11.580 -0.2499  0.4562 -0.0995
  487TIP3    H122952   6.571   0.836  11.653  1.1140 -0.1000  0.7761
  487TIP3    H222953   6.689   0.779  11.577 -0.2873  1.7231 -2.8959
  488TIP3   OH222954   4.683   0.288  14.112  0.0517 -0.1628  1.0774
  488TIP3    H122955   4.689   0.239  14.031 -1.3150  0.5869  0.5146
  488TIP3    H222956   4.592   0.317  14.117 -0.1060 -0.9434  3.3091
  489TIP3   OH222957   1.231   6.628   4.855  0.2137 -0.3228 -0.0762
  489TIP3    H122958   1.306   6.678   4.887  1.2859 -2.2548  0.5063
  489TIP3    H222959   1.269   6.554   4.808 -1.3409  0.6421 -2.9988
  490TIP3   OH222960   5.554   4.953   0.121 -0.1130  0.2200  0.7266
  490TIP3    H122961   5.559   4.952   0.216  0.1209 -0.4644  0.7109
  490TIP3    H222962   5.544   4.861   0.096  0.5611  0.3162  0.0584
  491TIP3   OH222963   1.830   5.046  14.871  0.2798 -0.2084 -0.1922
  491TIP3    H122964   1.814   5.007  14.957 -2.0856  0.9005 -0.1019
  491TIP3    H222965   1.880   5.125  14.891 -0.6114  0.2626  0.2107
  492TIP3   OH222966   3.660   4.996   2.348 -0.4409  0.2484  0.1676
  492TIP3    H122967   3.657   4.948   2.431  0.9773  0.5490  0.4060
  492TIP3    H222968   3.568   5.018   2.330 -1.1707 -2.7376 -0.0749
  493TIP3   OH222969   2.833   0.608   4.634 -0.3531  0.8034  0.0519
  493TIP3    H122970   2.857   0.518   4.610  2.1428  1.9482 -1.9972
  493TIP3    H222971   2.786   0.599   4.717 -0.9885 -2.4697 -0.6195
  494TIP3   OH222972   3.994   2.865  13.390  0.6694 -0.4345  0.6770
  494TIP3    H122973   4.000   2.960  13.381  0.0640 -0.3131  1.4922
  494TIP3    H222974   4.085   2.837  13.401  0.6596  0.3611  3.2002
  495TIP3   OH222975   1.193   5.924   3.953  0.5016 -0.0499  0.1073
  495TIP3    H122976   1.143   6.006   3.952  0.3309 -0.1433  0.9503
  495TIP3    H222977   1.194   5.897   4.045 -0.1659 -1.4270 -0.2724
  496TIP3   OH222978   6.788   0.472  14.577 -0.6450 -0.5784 -0.2248
  496TIP3    H122979   6.868   0.441  14.535 -0.3212 -0.2694  0.1609
  496TIP3    H222980   6.769   0.555  14.534 -0.7889 -0.6748 -0.3501
  497TIP3   OH222981   0.927   3.210   2.899  0.0955  0.3653  0.3430
  497TIP3    H122982   0.833   3.204   2.918 -0.4435  1.3939 -1.8994
  497TIP3    H222983   0.967   3.226   2.984 -1.8764  1.1341  1.1653
  498TIP3   OH222984   5.150   3.467   3.426  0.6675  0.0720 -0.1414
  498TIP3    H122985   5.168   3.524   3.501  0.3604 -1.0519  0.7948
  498TIP3    H222986   5.216   3.491   3.361  1.4857  0.4387  0.8220
  499TIP3   OH222987   6.670   2.413  17.181  0.6675 -0.4175 -0.0217
  499TIP3    H122988   6.668   2.328  17.225  0.1342 -0.8730 -0.9178
  499TIP3    H222989   6.763   2.434  17.172  0.8074 -1.1722 -0.3116
  500TIP3   OH222990   5.220   1.100   4.706  0.0338  0.1458  0.3459
  500TIP3    H122991   5.233   1.009   4.734  0.2267 -0.0453 -0.3507
  500TIP3    H222992   5.291   1.148   4.748 -0.6751  0.1586  1.5576
  501TIP3   OH222993   2.377   2.097   4.834 -0.1323  0.0115 -0.9026
  501TIP3    H122994   2.406   2.187   4.848  0.9715 -0.4681  0.0490
  501TIP3    H222995   2.327   2.075   4.913 -0.5949 -0.1460 -1.2322
  502TIP3   OH222996   3.262   0.223  16.314  0.4259 -0.3212  0.0548
  502TIP3    H122997   3.253   0.305  16.266 -0.2629  0.9882  2.3039
  502TIP3    H222998   3.348   0.190  16.291  0.1096  0.2654 -2.0362
  503TIP3   OH222999   4.648   5.935  12.620 -0.1680 -0.7474 -0.3394
  503TIP3    H123000   4.615   5.917  12.532  0.3756 -3.3641 -0.0688
  503TIP3    H223001   4.582   5.992  12.660 -0.4457  0.3953 -2.3982
  504TIP3   OH223002   1.742   3.232  14.223  0.1419 -0.2332  0.2198
  504TIP3    H123003   1.676   3.265  14.283 -1.1998 -0.2894 -1.1920
  504TIP3    H223004   1.792   3.310  14.197  0.9910 -0.2674  1.6832
  505TIP3   OH223005   6.417   2.014  16.483  0.1549 -0.1614  0.6630
  505TIP3    H123006   6.334   1.982  16.519 -0.6075  1.0373  0.0112
  505TIP3    H223007   6.484   1.973  16.537 -0.8625 -1.2847  1.0912
  506TIP3   OH223008   6.190   1.322   6.108 -0.1883  1.0575 -0.1777
  506TIP3    H123009   6.217   1.311   6.199 -1.4550  1.4267  0.2642
  506TIP3    H223010   6.222   1.245   6.063 -1.0634  0.0152  0.9549
  507TIP3   OH223011   6.463   4.716  13.051  0.8530 -0.9790 -0.4370
  507TIP3    H123012   6.490   4.802  13.018 -1.2578  0.1756  0.7272
  507TIP3    H223013   6.410   4.679  12.981 -0.5447 -0.1189  0.1488
  508TIP3   OH223014   4.783   0.436  17.222  0.4643 -0.2330  0.1249
  508TIP3    H123015   4.765   0.506  17.160 -2.5451 -0.2552  0.8527
  508TIP3    H223016   4.811   0.481  17.302  0.1010  0.0504  0.0919
  509TIP3   OH223017   6.243   4.574   0.341  0.1793  0.0250 -0.0989
  509TIP3    H123018   6.297   4.509   0.296 -0.9678 -0.7283 -0.3935
  509TIP3    H223019   6.265   4.564   0.433  1.1566  0.2973 -0.2951
  510TIP3   OH223020   0.961   5.472   2.953  0.4515  0.6595 -0.2408
  510TIP3    H123021   1.028   5.405   2.968  0.4909  1.4762  3.7923
  510TIP3    H223022   0.884   5.422   2.924  1.1802 -0.8858  0.3879
  511TIP3   OH223023   4.072   5.359  15.201  0.3705 -0.4454 -0.0390
  511TIP3    H123024   3.992   5.341  15.251  1.0945 -1.0856  0.9038
  511TIP3    H223025   4.041   5.405  15.123 -0.5758  2.6574  2.0466
  512TIP3   OH223026   4.643   5.929   1.821 -0.6776 -0.0469  0.1524
  512TIP3    H123027   4.660   5.901   1.911 -2.2004  1.0125  0.7776
  512TIP3    H223028   4.586   6.005   1.830  0.9507  1.4264 -1.6301
  513TIP3   OH223029   1.186   3.312  16.476 -0.2325 -0.2233  0.2053
  513TIP3    H123030   1.098   3.334  16.507 -0.2325 -0.1492  0.1553
  513TIP3    H223031   1.172   3.251  16.405 -0.2198 -0.6261  0.5480
  514TIP3   OH223032   6.559   5.820   4.574 -0.0650  0.6312  0.1426
  514TIP3    H123033   6.617   5.851   4.505  0.4477  0.3939  0.4590
  514TIP3    H223034   6.580   5.876   4.649  0.8516 -0.4486  0.7105
  515TIP3   OH223035   6.722   0.100  10.449 -0.3160  0.0449  0.4492
  515TIP3    H123036   6.683   0.173  10.496  0.3432  0.2755  0.6398
  515TIP3    H223037   6.757   0.043  10.517  2.4399  1.3759  0.2131
  516TIP3   OH223038   2.349   1.969  11.430  0.4069 -0.0915 -0.4916
  516TIP3    H123039   2.308   1.949  11.346  0.3077 -1.0289 -0.2237
  516TIP3    H223040   2.441   1.984  11.408  0.2005  0.6381 -0.8940
  517TIP3   OH223041   4.084   3.740   2.802 -0.0174 -0.2263 -0.6048
  517TIP3    H123042   4.026   3.750   2.726  0.2223  0.6662 -0.6801
  517TIP3    H223043   4.155   3.685   2.770 -0.3732 -0.5949 -0.7675
  518TIP3   OH223044   0.310   1.600   5.060 -0.4776 -0.2561 -0.2984
  518TIP3    H123045   0.404   1.581   5.059 -0.7386 -1.6406  0.4565
  518TIP3    H223046   0.293   1.633   5.148 -0.8394 -0.7193 -0.1938
  519TIP3   OH223047   4.795   1.870  11.596 -0.0013 -0.3870  0.8667
  519TIP3    H123048   4.751   1.855  11.680 -0.2197  0.7409  0.9616
  519TIP3    H223049   4.728   1.851  11.530  0.5258 -2.4875  0.8911
  520TIP3   OH223050   3.645   4.498  11.407  0.5279  0.5326  0.1436
  520TIP3    H123051   3.597   4.449  11.341  1.3616  0.6489 -0.5612
  520TIP3    H223052   3.597   4.483  11.488 -0.6432  0.6009 -0.5365
  521TIP3   OH223053   2.525   4.111  14.555 -0.6800 -0.0614  1.0754
  521TIP3    H123054   2.606   4.074  14.520 -0.4561  2.2064 -0.8289
  521TIP3    H223055   2.492   4.042  14.614  1.8579 -1.5901  0.7974
  522TIP3   OH223056   2.927   0.538  13.780  0.3523  0.0162  0.5318
  522TIP3    H123057   2.991   0.468  13.795 -0.1755 -0.4466  0.6824
  522TIP3    H223058   2.868   0.502  13.713  0.7859  0.7998 -0.2885
  523TIP3   OH223059   4.022   6.006   3.836 -0.4111  0.4853  0.2162
  523TIP3    H123060   3.995   5.986   3.925  0.0409 -0.8865  0.0627
  523TIP3    H223061   4.108   5.964   3.826  1.1069  3.4559  0.1953
  524TIP3   OH223062   3.764   4.172   6.446 -0.8251 -0.3680  0.5148
  524TIP3    H123063   3.826   4.212   6.507  0.2984  0.7701 -1.3048
  524TIP3    H223064   3.703   4.243   6.423  0.1976 -0.0830 -1.4741
  525TIP3   OH223065   0.662   3.634  10.784 -0.6177 -0.0696 -0.1467
  525TIP3    H123066   0.740   3.578  10.784 -1.5930 -1.4594  0.5578
  525TIP3    H223067   0.646   3.653  10.691 -0.1721 -0.8155 -0.3815
  526TIP3   OH223068   4.264   5.990  16.910 -0.0538 -0.5153 -0.0856
  526TIP3    H123069   4.219   6.051  16.852  0.6438  0.8013  0.7282
  526TIP3    H223070   4.232   6.011  16.998 -0.7757 -2.1946  0.0732
  527TIP3   OH223071   2.965   3.200   3.232 -0.0408  0.3082  0.1283
  527TIP3    H123072   2.971   3.105   3.243 -1.9367  0.2193  0.5353
  527TIP3    H223073   2.965   3.234   3.321 -0.5136  0.6076  0.0154
  528TIP3   OH223074   1.040   4.995   4.432 -0.0723 -0.2695  0.4202
  528TIP3    H123075   1.101   5.069   4.428 -1.2761  0.6644 -2.0678
  528TIP3    H223076   1.095   4.918   4.427  1.0046  0.5455 -0.6820
  529TIP3   OH223077   5.384   2.303   1.796  0.1078 -0.1059 -0.3080
  529TIP3    H123078   5.324   2.349   1.854 -0.4476 -0.4047 -0.6497
  529TIP3    H223079   5.471   2.320   1.834 -0.2383 -0.2023  0.5346
  530TIP3   OH223080   3.403   1.010   2.776 -0.1516 -0.5270  0.6684
  530TIP3    H123081   3.390   1.083   2.836  1.3761  0.0868  0.2763
  530TIP3    H223082   3.319   0.999   2.732 -0.7950  0.0800  1.7482
  531TIP3   OH223083   0.552   0.954  13.393 -0.4187  0.4161  0.2541
  531TIP3    H123084   0.522   0.874  13.437 -0.7946  0.2325 -0.3301
  531TIP3    H223085   0.613   0.924  13.326  0.8288  0.7671  1.2103
  532TIP3   OH223086   4.713   6.331  13.200 -0.0258  0.1801 -0.2889
  532TIP3    H123087   4.748   6.245  13.224 -0.4375 -0.3310 -1.4597
  532TIP3    H223088   4.779   6.393  13.229 -0.0615 -0.4790  1.2317
  533TIP3   OH223089   1.779   4.676   2.470  0.3116  0.0857  0.4298
  533TIP3    H123090   1.830   4.598   2.451 -1.4811 -1.2120  0.7503
  533TIP3    H223091   1.800   4.697   2.561  0.8668  0.0372  0.3140
  534TIP3   OH223092   4.838   2.297  14.340 -0.0818  0.3229 -0.4660
  534TIP3    H123093   4.834   2.350  14.261  1.7493  0.2633 -0.6068
  534TIP3    H223094   4.750   2.305  14.378 -1.0027  0.3013 -2.5173
  535TIP3   OH223095   1.459   1.920   1.706  0.0669  0.0606  0.7467
  535TIP3    H123096   1.496   1.843   1.662 -1.6156 -1.6716  2.2542
  535TIP3    H223097   1.366   1.917   1.685 -0.0150  1.7373  0.8050
  536TIP3   OH223098   4.539   4.378   4.852  0.2553  0.3673  0.3612
  536TIP3    H123099   4.451   4.360   4.885  0.0442  0.3509 -0.1951
  536TIP3    H223100   4.524   4.421   4.767  0.8052 -1.3947 -0.6427
  537TIP3   OH223101   2.089   3.248   1.452 -0.3279 -0.5263  0.4064
  537TIP3    H123102   2.053   3.167   1.415  0.3335  0.0071 -1.4279
  537TIP3    H223103   2.154   3.277   1.389 -0.2017  1.1913  1.2980
  538TIP3   OH223104   3.271   1.562   4.195 -0.2234 -0.3165 -0.0341
  538TIP3    H123105   3.247   1.585   4.106 -1.9646  0.3568  0.5908
  538TIP3    H223106   3.337   1.627   4.219  0.9030 -1.0350 -1.1123
  539TIP3   OH223107   5.731   6.067  11.220 -0.8207 -0.7984 -0.5141
  539TIP3    H123108   5.672   5.991  11.225 -1.6023 -0.1692  0.0935
  539TIP3    H223109   5.815   6.031  11.191 -0.5520 -2.2622  1.9672
  540TIP3   OH223110   0.922   3.756  12.835  0.3889  0.0579  0.1501
  540TIP3    H123111   0.920   3.702  12.755 -0.5706 -1.1958  1.0112
  540TIP3    H223112   0.853   3.720  12.891 -1.2058  3.0228  0.2277
  541TIP3   OH223113   1.855   0.488   4.342 -0.0820 -0.2700  0.3194
  541TIP3    H123114   1.933   0.440   4.369 -0.7620 -1.3110  0.4413
  541TIP3    H223115   1.814   0.432   4.276 -0.4169  0.5401 -0.1705
  542TIP3   OH223116   0.269   5.110   3.945 -0.5800 -0.3776  0.1677
  542TIP3    H123117   0.301   5.037   3.998  1.0261 -0.4763 -0.9159
  542TIP3    H223118   0.327   5.183   3.967 -0.3460 -0.2261 -0.9513
  543TIP3   OH223119   0.811   0.571  17.207  0.0278 -0.1646  0.3167
  543TIP3    H123120   0.728   0.539  17.242  1.0445 -4.2102 -0.7139
  543TIP3    H223121   0.868   0.577  17.284 -0.2938 -0.5489  0.5898
  544TIP3   OH223122   0.727   1.101   1.272 -0.1894  0.4704 -0.0222
  544TIP3    H123123   0.648   1.089   1.219 -0.5088  1.1860  0.2911
  544TIP3    H223124   0.767   1.181   1.238  0.6622 -0.1579 -0.5054
  545TIP3   OH223125   1.883   0.966  14.785 -0.1344  0.1633 -0.0520
  545TIP3    H123126   1.882   1.051  14.830 -0.9521 -0.0155  0.2927
  545TIP3    H223127   1.867   0.903  14.854 -2.5357 -0.0311 -0.7337
  546TIP3   OH223128   5.644   6.465   1.369 -0.2202  0.4129  0.3300
  546TIP3    H123129   5.579   6.421   1.314  0.2123 -0.2463  0.3402
  546TIP3    H223130   5.642   6.417   1.452  0.1908  0.4693  0.3735
  547TIP3   OH223131   6.814   3.967  15.438  0.9282  0.1112 -0.4436
  547TIP3    H123132   6.849   3.898  15.494 -0.1289 -0.1394 -0.0706
  547TIP3    H223133   6.848   4.048  15.475 -0.3678  0.0026  1.0463
  548TIP3   OH223134   3.895   1.377  10.987  0.0469  0.2813  0.0850
  548TIP3    H123135   3.977   1.407  10.949  0.4322 -1.2830 -0.3136
  548TIP3    H223136   3.855   1.323  10.920 -0.3793 -0.5802  1.0166
  549TIP3   OH223137   5.517   0.840   4.382 -0.7134  0.2740  0.7921
  549TIP3    H123138   5.498   0.782   4.308  1.2493  0.8447 -0.1847
  549TIP3    H223139   5.454   0.911   4.373 -0.2678  0.5238 -0.5675
  550TIP3   OH223140   5.213   3.463  15.969 -0.2742 -0.3064 -0.4362
  550TIP3    H123141   5.293   3.490  16.014  0.0690 -0.4680 -0.9484
  550TIP3    H223142   5.146   3.523  16.002  0.2815  0.5363 -0.8253
  551TIP3   OH223143   5.616   3.628   3.109  0.4067 -0.3955  0.2141
  551TIP3    H123144   5.627   3.542   3.149 -1.5108 -0.7978 -0.0720
  551TIP3    H223145   5.568   3.611   3.028 -3.4377  1.3143  2.0397
  552TIP3   OH223146   6.353   5.446  14.929  0.0330 -0.0312 -0.1068
  552TIP3    H123147   6.363   5.410  14.840  0.1521 -0.1993 -0.0257
  552TIP3    H223148   6.324   5.536  14.915 -0.4155 -0.2028 -0.3060
  553TIP3   OH223149   2.339   1.658   1.847 -0.0788  0.1411 -0.0014
  553TIP3    H123150   2.357   1.567   1.869 -2.5208 -0.7120 -1.3486
  553TIP3    H223151   2.318   1.699   1.930 -2.4507 -1.4012  0.2064
  554TIP3   OH223152   4.357   5.080  12.264  0.5178 -0.1380  0.1098
  554TIP3    H123153   4.423   5.149  12.258  1.4042 -1.0724 -1.0052
  554TIP3    H223154   4.329   5.065  12.174 -1.1308  0.1311  0.5464
  555TIP3   OH223155   6.559   3.128   0.183  0.4005  0.2214  0.0553
  555TIP3    H123156   6.593   3.159   0.267 -0.1772 -0.1587  0.4356
  555TIP3    H223157   6.636   3.119   0.128  0.8441  0.0004  0.7018
  556TIP3   OH223158   3.718   2.885   2.040 -0.1326  0.2554  0.3086
  556TIP3    H123159   3.665   2.813   2.075  1.3682 -0.7322  0.6417
  556TIP3    H223160   3.798   2.841   2.008  0.1967  1.6160 -0.7672
  557TIP3   OH223161   0.089   5.247  16.577  0.3657 -0.4167  0.2718
  557TIP3    H123162   0.121   5.216  16.661 -1.0033  1.8208  1.6773
  557TIP3    H223163   0.168   5.265  16.526  1.2659  0.7655  2.0642
  558TIP3   OH223164   5.826   0.703  17.084  0.0835  0.6357  0.0570
  558TIP3    H123165   5.882   0.769  17.045 -0.2081  1.1364  0.4812
  558TIP3    H223166   5.787   0.657  17.010 -1.9720  2.8564 -0.2808
  559TIP3   OH223167   2.654   4.812   5.604  0.0060 -0.0138 -0.0812
  559TIP3    H123168   2.597   4.825   5.528  0.5313  0.1202 -0.4567
  559TIP3    H223169   2.699   4.729   5.586  1.5224  0.9455 -0.8177
  560TIP3   OH223170   0.267   5.552   0.416  0.4167 -0.2172  0.1607
  560TIP3    H123171   0.351   5.595   0.429  1.9581 -2.9007 -0.5602
  560TIP3    H223172   0.256   5.497   0.493 -0.4145 -0.3339 -0.0371
  561TIP3   OH223173   4.643   0.360  12.428  0.6282  0.1026  0.0292
  561TIP3    H123174   4.716   0.397  12.478  0.0430  0.0143  0.9421
  561TIP3    H223175   4.625   0.276  12.469  0.9144 -0.4966 -1.0599
  562TIP3   OH223176   1.151   4.941  15.734  0.1514 -0.2086  0.1352
  562TIP3    H123177   1.184   4.936  15.644  0.3139 -0.9785  0.2337
  562TIP3    H223178   1.057   4.949  15.724  0.3393  1.9756 -0.1470
  563TIP3   OH223179   6.425   1.095  12.714 -0.4203 -0.3753  0.4412
  563TIP3    H123180   6.364   1.084  12.640 -0.4042 -1.9408  0.6443
  563TIP3    H223181   6.458   1.007  12.730  0.4811  0.1659  1.5608
  564TIP3   OH223182   3.538   0.845  14.578  0.1736 -0.1171 -0.4907
  564TIP3    H123183   3.525   0.750  14.571 -0.9588 -0.0047  0.0098
  564TIP3    H223184   3.633   0.857  14.576  0.3331 -1.3018 -0.0085
  565TIP3   OH223185   0.782   6.439  12.279 -0.2833 -0.6890  0.0289
  565TIP3    H123186   0.840   6.398  12.343 -0.4505 -0.2997  0.4427
  565TIP3    H223187   0.840   6.475  12.213  0.1726  2.0741  1.8294
  566TIP3   OH223188   0.944   2.450   0.727 -0.0566  0.2397  0.2734
  566TIP3    H123189   0.884   2.465   0.800 -2.6356 -0.4912 -1.6167
  566TIP3    H223190   0.887   2.431   0.653  2.5208  0.4812 -1.8378
  567TIP3   OH223191   4.657   1.430   0.142  0.1605 -0.1517 -0.7365
  567TIP3    H123192   4.620   1.475   0.066 -1.9164  0.2295  0.4602
  567TIP3    H223193   4.694   1.499   0.196  0.5130 -0.2840 -0.8118
  568TIP3   OH223194   2.826   2.025  10.417 -0.1602 -0.0678  0.0404
  568TIP3    H123195   2.760   1.957  10.432 -2.0514  1.2101 -2.1908
  568TIP3    H223196   2.901   1.979  10.381 -0.2369 -1.3805  1.4984
  569TIP3   OH223197   2.220   5.080   6.086  0.3802 -0.0070 -0.3977
  569TIP3    H123198   2.249   4.989   6.088 -0.4274 -0.2490  1.2400
  569TIP3    H223199   2.130   5.078   6.119  0.9461  1.5632  1.3778
  570TIP3   OH223200   1.988   6.758   0.081  0.0450 -0.6915 -0.3656
  570TIP3    H123201   1.900   6.727   0.101 -0.3938  0.4254 -0.5568
  570TIP3    H223202   2.007   6.724  -0.006 -0.9768  0.7272 -1.1478
  571TIP3   OH223203   2.043   0.328   0.376  0.4852  0.3611  0.1954
  571TIP3    H123204   1.993   0.300   0.452  0.3816 -0.3259 -0.1247
  571TIP3    H223205   2.086   0.409   0.404  0.3465  0.1811  0.9384
  572TIP3   OH223206   2.185   4.558   5.187  0.4378  0.5484 -0.5594
  572TIP3    H123207   2.206   4.510   5.107  0.3822 -1.2605  0.4974
  572TIP3    H223208   2.152   4.492   5.247 -0.8230  2.1113  0.5098
  573TIP3   OH223209   2.408   4.049  14.173 -0.2621 -0.3488  0.8029
  573TIP3    H123210   2.450   3.987  14.232  0.0067 -0.2000  0.7678
  573TIP3    H223211   2.343   3.997  14.126  1.5249 -1.1112 -0.8993
  574TIP3   OH223212   4.269   4.091   4.379 -0.1667 -0.8494 -0.2948
  574TIP3    H123213   4.212   4.032   4.330 -0.7763 -2.4928  2.2421
  574TIP3    H223214   4.209   4.153   4.420  0.0553 -1.1817  0.5471
  575TIP3   OH223215   5.752   0.235  15.223  0.3208  0.3706 -0.0179
  575TIP3    H123216   5.685   0.226  15.156 -1.1348  1.0299  1.3023
  575TIP3    H223217   5.830   0.196  15.185 -0.8609 -0.5798 -1.5253
  576TIP3   OH223218   0.069   1.960   1.080 -0.2143 -0.1237  0.2472
  576TIP3    H123219  -0.014   1.925   1.112 -1.2053  0.9240 -1.1508
  576TIP3    H223220   0.047   2.007   1.000  1.5336  1.2876  0.5644
  577TIP3   OH223221   4.226   2.204  16.515 -0.2644  0.7401 -0.2727
  577TIP3    H123222   4.282   2.150  16.570 -0.2223 -0.3450 -1.3715
  577TIP3    H223223   4.277   2.284  16.502  0.2701  0.4867  0.2024
  578TIP3   OH223224   0.738   2.822   3.270 -0.0504 -0.2526 -0.7316
  578TIP3    H123225   0.806   2.754   3.278  0.0868 -0.2366 -1.6767
  578TIP3    H223226   0.693   2.821   3.354 -0.3102 -1.8086 -0.8688
  579TIP3   OH223227   2.709   4.580   4.345  0.1780  0.3560 -0.4910
  579TIP3    H123228   2.694   4.669   4.377  0.9484  0.5461 -0.6435
  579TIP3    H223229   2.643   4.568   4.278 -1.1289  0.1353  0.8213
  580TIP3   OH223230   5.733   6.014  12.250 -0.5195  0.1733 -0.2633
  580TIP3    H123231   5.828   6.029  12.242 -0.6376  1.3089  0.3246
  580TIP3    H223232   5.724   5.919  12.255  0.5810  0.0508 -0.4927
  581TIP3   OH223233   0.225   1.217  14.619 -0.4943 -0.2904  0.0476
  581TIP3    H123234   0.308   1.198  14.663 -0.7593 -0.1376  0.6305
  581TIP3    H223235   0.232   1.308  14.592 -1.1964  0.3184  1.7946
  582TIP3   OH223236   1.278   6.227   2.924 -0.1303  0.0065  0.1553
  582TIP3    H123237   1.299   6.313   2.960 -1.0954  0.8865 -1.3220
  582TIP3    H223238   1.201   6.243   2.868 -1.1675 -2.0680  0.9586
  583TIP3   OH223239   3.469   4.788  14.833 -0.0997  0.0488  0.0999
  583TIP3    H123240   3.557   4.762  14.804 -0.5542 -1.1676 -0.2230
  583TIP3    H223241   3.430   4.828  14.755  0.0256  0.2612  0.1412
  584TIP3   OH223242   4.114   3.860   5.641 -0.3332  0.7055  0.8335
  584TIP3    H123243   4.045   3.914   5.679 -0.3628  1.4741 -0.2879
  584TIP3    H223244   4.139   3.905   5.560  1.2367  0.2527  1.0320
  585TIP3   OH223245   3.053   0.980   2.864  0.1154  0.1440 -0.0117
  585TIP3    H123246   3.061   0.904   2.807  2.2268 -0.0514  0.5195
  585TIP3    H223247   3.108   0.959   2.940 -0.6016  1.4953  0.8972
  586TIP3   OH223248   5.747   2.984   0.576  0.5533 -0.4837  0.5329
  586TIP3    H123249   5.754   3.058   0.637 -0.0620 -0.9780  1.2198
  586TIP3    H223250   5.828   2.986   0.526 -0.4178  2.0246 -0.9975
  587TIP3   OH223251   4.963   6.700  13.487  0.3371 -0.2288 -0.4131
  587TIP3    H123252   4.937   6.635  13.421 -0.8063 -0.0134 -0.1887
  587TIP3    H223253   4.993   6.649  13.561 -0.5398 -0.5200 -0.2448
  588TIP3   OH223254   3.452   0.525  14.155 -0.1878  0.9355 -0.8026
  588TIP3    H123255   3.420   0.477  14.231  2.2197  0.9960  0.3050
  588TIP3    H223256   3.447   0.617  14.182  1.2626  0.9227 -0.4468
  589TIP3   OH223257   0.745   1.256  16.423  0.0041  0.2180 -0.2239
  589TIP3    H123258   0.738   1.226  16.513 -0.4030 -0.8199 -0.5918
  589TIP3    H223259   0.671   1.216  16.378  0.4176  0.4229 -1.1041
  590TIP3   OH223260   1.578   4.517   2.320  0.0597 -0.2448 -0.1324
  590TIP3    H123261   1.650   4.574   2.348 -0.3832 -0.5420  1.6765
  590TIP3    H223262   1.542   4.560   2.242  1.8554  0.1738 -0.7408
  591TIP3   OH223263   1.358   3.916   5.674 -0.2561  0.0217 -0.0376
  591TIP3    H123264   1.357   3.906   5.579  2.8212  0.0822 -0.1239
  591TIP3    H223265   1.266   3.926   5.698 -1.1973 -1.4536 -2.8329
  592TIP3   OH223266   4.967   4.009   2.673 -0.3713  0.2464 -0.1074
  592TIP3    H123267   4.882   4.040   2.703 -0.1912  0.2940  0.3542
  592TIP3    H223268   5.016   4.088   2.651 -0.6893  0.1932 -1.0560
  593TIP3   OH223269   6.091   4.606  13.448 -0.1208 -0.1512  0.0153
  593TIP3    H123270   6.001   4.574  13.442 -0.1129 -0.0420 -0.7480
  593TIP3    H223271   6.106   4.651  13.365 -0.2072  2.0613  1.1584
  594TIP3   OH223272   3.500   4.019   0.397 -0.0479 -0.1343 -0.1013
  594TIP3    H123273   3.540   3.947   0.446 -0.1354 -0.6813 -0.8293
  594TIP3    H223274   3.406   4.004   0.405 -0.1871  1.8606  2.6852
  595TIP3   OH223275   4.421   2.534   0.419  0.4705  0.1609 -0.4786
  595TIP3    H123276   4.446   2.456   0.370  2.1464  0.6311 -0.3998
  595TIP3    H223277   4.386   2.594   0.352  0.6842 -0.0491 -0.7824
  596TIP3   OH223278   4.275   0.566  11.677 -0.3026 -0.3812 -0.5721
  596TIP3    H123279   4.202   0.537  11.731  0.2959  0.2636  0.6047
  596TIP3    H223280   4.258   0.659  11.662  0.7352 -0.0212  0.4607
  597TIP3   OH223281   0.734   6.533   0.767 -0.1268  0.4221  0.1497
  597TIP3    H123282   0.657   6.487   0.733  1.3373 -1.1157 -1.1684
  597TIP3    H223283   0.698   6.609   0.813 -2.5872 -1.6582  1.8238
  598TIP3   OH223284   5.326   4.873  12.826 -0.4602 -0.0044  0.2775
  598TIP3    H123285   5.340   4.849  12.734 -0.2870 -1.0665  0.5812
  598TIP3    H223286   5.236   4.848  12.844 -0.7656  0.9742  0.1686
  599TIP3   OH223287   0.897   1.076   0.594 -0.6465  0.6015 -0.4444
  599TIP3    H123288   0.916   0.984   0.608  0.3500  1.5045  5.3548
  599TIP3    H223289   0.801   1.081   0.593 -0.7440 -0.1402  2.6362
  600TIP3   OH223290   4.517   4.107   4.487 -0.6569 -0.1647  0.5852
  600TIP3    H123291   4.535   4.199   4.468 -0.3235 -0.6644 -1.6971
  600TIP3    H223292   4.436   4.089   4.439 -0.5378 -1.1543  0.7564
  601TIP3   OH223293   3.359   3.637  12.230  0.6050  0.2541 -0.0662
  601TIP3    H123294   3.443   3.658  12.269  0.5252  1.7503 -0.6707
  601TIP3    H223295   3.348   3.701  12.159 -1.3936  0.6100  0.5191
  602TIP3   OH223296   4.010   1.824   0.587  0.6567 -0.3376 -0.1278
  602TIP3    H123297   4.031   1.833   0.680  0.3451 -0.2670 -0.0634
  602TIP3    H223298   4.014   1.730   0.570 -0.5401 -0.4716  0.2580
  603TIP3   OH223299   3.449   6.171   1.510  0.1878  0.2530 -0.2113
  603TIP3    H123300   3.394   6.210   1.442 -2.0585 -1.3851  0.5897
  603TIP3    H223301   3.476   6.087   1.474  2.0716  0.9789 -0.5260
  604TIP3   OH223302   1.113   3.833  11.328  0.0327 -0.4358  0.4040
  604TIP3    H123303   1.204   3.856  11.347  0.5710 -2.8799  0.9724
  604TIP3    H223304   1.102   3.855  11.235  1.3293 -0.5426  0.2098
  605TIP3   OH223305   1.673   1.166  16.661  0.1792 -0.0192 -0.5637
  605TIP3    H123306   1.620   1.086  16.661  1.1263 -0.6644 -0.5369
  605TIP3    H223307   1.755   1.140  16.703  0.8049  0.7620 -1.2817
  606TIP3   OH223308   5.119   3.723  11.896  0.1380  0.7459  0.4137
  606TIP3    H123309   5.169   3.669  11.835  0.1575  0.6068  0.5524
  606TIP3    H223310   5.138   3.686  11.982 -0.3642  0.5632  0.4491
  607TIP3   OH223311   4.275   6.510   2.156  0.3702 -0.3499  0.1962
  607TIP3    H123312   4.184   6.499   2.183  0.7739  1.4268  2.4896
  607TIP3    H223313   4.273   6.583   2.094  0.5556  1.5844  2.4181
  608TIP3   OH223314   5.560   1.507   0.817  0.3013  0.3646  0.3816
  608TIP3    H123315   5.600   1.483   0.901 -2.6656  2.9807  2.6814
  608TIP3    H223316   5.497   1.437   0.800  0.9238 -0.1846  0.3325
  609TIP3   OH223317   5.742   1.375   4.337 -0.3640  0.4768 -0.1425
  609TIP3    H123318   5.803   1.404   4.405  0.4097 -0.6769 -0.3373
  609TIP3    H223319   5.748   1.442   4.269 -0.4518  1.1577  0.5151
  610TIP3   OH223320   0.309   0.797  12.790 -0.0445  0.0124 -0.1834
  610TIP3    H123321   0.334   0.823  12.701  0.4291 -0.4126 -0.1784
  610TIP3    H223322   0.387   0.753  12.825  0.0801  0.9342  0.7524
  611TIP3   OH223323   3.054   3.199  14.218 -0.2536  0.2704  0.2203
  611TIP3    H123324   3.066   3.184  14.124 -0.4705 -0.9606  0.3756
  611TIP3    H223325   3.138   3.234  14.248  0.4076 -1.0102 -0.1135
  612TIP3   OH223326   2.293   4.070   4.525  0.4051 -0.0238 -0.4800
  612TIP3    H123327   2.201   4.084   4.501  0.5386  1.5404 -0.1568
  612TIP3    H223328   2.330   4.158   4.528  1.8592 -0.6327 -0.3587
  613TIP3   OH223329   3.137   2.377  15.177  0.0098  0.0324  0.1256
  613TIP3    H123330   3.131   2.469  15.202  0.3737 -0.1455  0.9056
  613TIP3    H223331   3.124   2.329  15.260  0.8101 -0.5915 -0.1056
  614TIP3   OH223332   5.778   0.929   0.741  1.1243  0.5749 -0.5323
  614TIP3    H123333   5.779   1.021   0.716  1.1683  1.3605  2.2418
  614TIP3    H223334   5.869   0.910   0.767  0.5543  0.5544  1.5708
  615TIP3   OH223335   6.779   1.189  13.649 -0.1062 -0.8249  0.1060
  615TIP3    H123336   6.842   1.252  13.614 -0.7330  0.5721  1.4242
  615TIP3    H223337   6.832   1.115  13.677  0.9114  0.1728  0.8425
  616TIP3   OH223338   5.873   6.624   2.714  0.4284 -0.4707  0.2847
  616TIP3    H123339   5.896   6.556   2.651  1.2566  0.7135 -0.6985
  616TIP3    H223340   5.807   6.677   2.670 -1.0338 -1.2708  1.4686
  617TIP3   OH223341   2.535   3.162  12.536 -0.4310  0.1737  0.1466
  617TIP3    H123342   2.499   3.235  12.485 -0.6186 -0.7994 -1.1352
  617TIP3    H223343   2.594   3.203  12.598 -1.8853  1.5888  0.6333
  618TIP3   OH223344   1.756   0.945  13.983 -0.3820  1.2802 -1.1353
  618TIP3    H123345   1.687   0.943  13.917  0.1906  0.9521 -1.7211
  618TIP3    H223346   1.836   0.963  13.934 -0.1508  2.4392 -0.3677
  619TIP3   OH223347   0.377   3.528   1.630  0.3593  0.2466 -0.2014
  619TIP3    H123348   0.307   3.471   1.661  0.4137  1.0172  1.4127
  619TIP3    H223349   0.361   3.538   1.537 -0.6429 -1.0238 -0.1786
  620TIP3   OH223350   3.818   2.142  11.446 -0.0510  0.2081 -0.2543
  620TIP3    H123351   3.815   2.049  11.468 -0.5957  0.5374  1.1111
  620TIP3    H223352   3.744   2.180  11.494  0.2162  1.3573 -0.7370
  621TIP3   OH223353   3.754   6.282   5.022  0.3039  0.1613  0.4142
  621TIP3    H123354   3.774   6.281   5.116  1.9428  0.5521  0.0893
  621TIP3    H223355   3.707   6.364   5.008  1.2414  0.7567  0.6781
  622TIP3   OH223356   1.541   2.033  14.083 -0.3904  0.1006  0.5376
  622TIP3    H123357   1.466   2.043  14.143 -2.4533  0.1473 -1.9697
  622TIP3    H223358   1.512   2.074  14.002  2.3569  0.0134 -0.5274
  623TIP3   OH223359   4.235   3.350   1.974  0.0090 -0.1906  0.2087
  623TIP3    H123360   4.168   3.303   1.925  1.8077 -1.9203 -0.6204
  623TIP3    H223361   4.194   3.369   2.058 -2.1038  0.2884 -0.8857
  624TIP3   OH223362   4.375   6.102   4.285 -0.2194  0.0174 -0.2075
  624TIP3    H123363   4.283   6.091   4.310  0.3897 -0.4512  1.9526
  624TIP3    H223364   4.416   6.018   4.307  1.0124  0.7065  0.1997
  625TIP3   OH223365   4.995   2.681   2.005  0.2878  0.3033  0.3286
  625TIP3    H123366   5.022   2.749   1.944 -3.4218  1.9420  0.3967
  625TIP3    H223367   5.034   2.601   1.970  1.8982  1.8940 -1.6625
  626TIP3   OH223368   1.384   5.855   3.748  0.1266  0.5777 -0.0679
  626TIP3    H123369   1.313   5.905   3.789  0.2267 -0.6662  1.6833
  626TIP3    H223370   1.368   5.863   3.654 -1.9020  0.9435  0.2919
  627TIP3   OH223371   4.372   3.801   5.819 -0.5829  0.3803 -0.1997
  627TIP3    H123372   4.279   3.817   5.837 -1.2577 -1.5037 -1.8059
  627TIP3    H223373   4.380   3.706   5.817  1.3210  0.5244 -0.4389
  628TIP3   OH223374   5.657   2.746   4.876  0.6246  0.5962  0.3576
  628TIP3    H123375   5.648   2.731   4.970  1.3341  0.6857  0.4413
  628TIP3    H223376   5.714   2.822   4.869  1.0644  0.2223 -0.1631
  629TIP3   OH223377   2.060   5.536   1.372  0.1541 -0.1581  0.0834
  629TIP3    H123378   1.967   5.550   1.388  0.2440 -1.0143  1.4300
  629TIP3    H223379   2.079   5.587   1.293 -1.7399 -1.0935 -0.9984
  630TIP3   OH223380   0.128   6.241   2.983 -0.2555  0.1641  0.4120
  630TIP3    H123381   0.131   6.190   3.064  1.5145 -1.0530 -0.3858
  630TIP3    H223382   0.175   6.322   3.003  2.0503 -1.0279  0.0506
  631TIP3   OH223383   4.931   1.556  15.086  0.0596  0.2295 -0.3520
  631TIP3    H123384   4.943   1.625  15.020  0.2172  0.0675 -0.4937
  631TIP3    H223385   4.858   1.586  15.139 -0.1553  0.2978 -0.6853
  632TIP3   OH223386   4.028   6.799  16.220 -0.8772 -0.5425  0.2884
  632TIP3    H123387   4.067   6.869  16.169  1.7594 -2.0130  0.2099
  632TIP3    H223388   3.984   6.843  16.293  2.0996  1.1185  1.1477
  633TIP3   OH223389   3.877   6.792   6.212  0.6018 -0.5942 -0.5979
  633TIP3    H123390   3.795   6.762   6.172 -2.1400  0.2406  4.0172
  633TIP3    H223391   3.913   6.713   6.253  0.8617 -0.4704 -0.5896
  634TIP3   OH223392   3.844   0.780   4.148 -0.4545 -0.2445  0.4442
  634TIP3    H123393   3.821   0.858   4.097  3.3144  0.4435 -0.3340
  634TIP3    H223394   3.860   0.812   4.236 -0.4274 -0.3847  0.4903
  635TIP3   OH223395   2.950   5.553  14.984  0.0093  0.0107  0.3609
  635TIP3    H123396   3.039   5.556  14.949  0.3050 -0.1749  1.0969
  635TIP3    H223397   2.960   5.519  15.072 -0.6275  1.5391  1.0322
  636TIP3   OH223398   0.519   5.296  16.775  0.1365 -0.1426  0.4138
  636TIP3    H123399   0.526   5.336  16.689 -0.6982  0.2898  0.5394
  636TIP3    H223400   0.592   5.235  16.780  1.4848  1.4341  0.2536
  637TIP3   OH223401   3.894   3.307   3.567  0.0945  1.1850 -0.1348
  637TIP3    H123402   3.949   3.253   3.625  0.4749  1.3359 -0.3545
  637TIP3    H223403   3.947   3.384   3.548 -0.1841  1.3206 -0.3684
  638TIP3   OH223404   1.443   3.655  16.873 -0.3049 -0.1334 -0.4499
  638TIP3    H123405   1.496   3.732  16.849  1.4606 -1.7231 -1.7950
  638TIP3    H223406   1.450   3.597  16.798 -1.9259 -1.4752  0.4195
  639TIP3   OH223407   6.298   6.744   2.144 -0.3207  0.2127 -0.4580
  639TIP3    H123408   6.226   6.796   2.179  0.4268  1.3616 -0.5857
  639TIP3    H223409   6.376   6.796   2.164  0.7323 -2.1637  1.9409
  640TIP3   OH223410   3.849   0.136  12.338 -0.1519 -0.2876  0.3229
  640TIP3    H123411   3.816   0.057  12.295 -1.9330 -0.2629  1.5645
  640TIP3    H223412   3.877   0.193  12.267 -1.2367 -1.0299 -0.7071
  641TIP3   OH223413   0.771   0.691  14.571 -0.2261  0.1128  0.6952
  641TIP3    H123414   0.862   0.713  14.550 -0.5048 -1.4464 -2.4274
  641TIP3    H223415   0.773   0.666  14.663  2.2272  1.5686  1.0794
  642TIP3   OH223416   0.256   1.196  13.553 -0.5170  0.0232 -0.1214
  642TIP3    H123417   0.252   1.101  13.544  0.0735  0.1252 -1.6601
  642TIP3    H223418   0.343   1.214  13.587  0.0253  0.1145 -1.5286
  643TIP3   OH223419   5.981   3.306   2.898  0.8866  0.1708 -0.0435
  643TIP3    H123420   5.996   3.395   2.866  1.2038 -0.1294 -0.7552
  643TIP3    H223421   6.012   3.250   2.826 -2.1839 -0.4783 -0.9291
  644TIP3   OH223422   0.533   4.107   4.559  0.5051 -0.0295  0.0759
  644TIP3    H123423   0.566   4.180   4.611  2.3775 -1.0144  0.3063
  644TIP3    H223424   0.456   4.076   4.606 -1.5787  3.0634 -1.0939
  645TIP3   OH223425   0.261   6.223  12.780 -0.2999 -0.4093 -0.1294
  645TIP3    H123426   0.171   6.192  12.769  0.3814 -2.8928  0.8902
  645TIP3    H223427   0.290   6.181  12.861  1.4681  1.1240  0.0459
  646TIP3   OH223428   3.005   3.420  13.993 -0.3323 -0.4414 -0.5036
  646TIP3    H123429   3.081   3.455  14.040  0.5205 -1.7216 -0.8964
  646TIP3    H223430   3.029   3.330  13.972 -2.2549 -1.1167  0.0101
  647TIP3   OH223431   6.524   1.810   1.011  0.1854  0.4597  0.0728
  647TIP3    H123432   6.608   1.848   1.035  0.6291 -1.1905  1.1655
  647TIP3    H223433   6.521   1.726   1.055 -0.9856 -0.6095 -1.9530
  648TIP3   OH223434   5.843   1.538  15.137  0.2333  0.9582 -0.0111
  648TIP3    H123435   5.910   1.606  15.136  2.4898 -1.1787 -0.2227
  648TIP3    H223436   5.846   1.500  15.049  0.7581 -1.0104  0.8110
  649TIP3   OH223437   2.050   3.207  10.154  0.1752  0.3516 -0.1056
  649TIP3    H123438   2.050   3.118  10.120 -0.0950  0.5166 -0.5443
  649TIP3    H223439   2.096   3.201  10.238 -1.3678 -0.5310  0.7031
  650TIP3   OH223440   6.295   5.149  15.110  0.0495 -0.0705  0.1947
  650TIP3    H123441   6.304   5.084  15.041 -2.0478  0.7597 -0.8861
  650TIP3    H223442   6.331   5.106  15.188 -1.8386 -2.7785 -0.3539
  651TIP3   OH223443   3.345   3.427   5.167  0.1523 -0.1370  0.1690
  651TIP3    H123444   3.296   3.348   5.144 -1.9940  1.1967 -0.0048
  651TIP3    H223445   3.417   3.430   5.103  0.2686 -1.9124  0.1718
  652TIP3   OH223446   5.125   1.859  11.176  0.2586 -0.6589  0.1930
  652TIP3    H123447   5.064   1.839  11.246  1.6467 -3.2658  0.7219
  652TIP3    H223448   5.164   1.943  11.201 -1.4074 -0.0881  0.9813
  653TIP3   OH223449   4.370   3.956  15.716 -0.2767 -0.0803 -0.2814
  653TIP3    H123450   4.453   3.914  15.740  0.4654  0.3429 -1.9887
  653TIP3    H223451   4.376   4.044  15.752  0.9892  0.6777 -2.3076
  654TIP3   OH223452   5.360   6.138   1.676  0.0205  0.5752  0.4042
  654TIP3    H123453   5.315   6.053   1.683 -0.7321  0.9618  0.3707
  654TIP3    H223454   5.369   6.153   1.582  1.0175  0.0915  0.4175
  655TIP3   OH223455   4.663   0.677   1.030 -0.0207  0.1553 -0.4368
  655TIP3    H123456   4.621   0.711   0.951  0.4490 -1.0433 -1.2117
  655TIP3    H223457   4.748   0.720   1.033  0.2748 -0.3945 -1.0089
  656TIP3   OH223458   4.416   5.235   0.595 -0.5370  0.1295 -0.3254
  656TIP3    H123459   4.338   5.184   0.619 -1.7042  2.3286  0.7192
  656TIP3    H223460   4.486   5.198   0.649 -1.0691 -1.1772 -0.5013
  657TIP3   OH223461   0.115   0.467   3.227  0.0572  0.0243 -0.0456
  657TIP3    H123462   0.122   0.556   3.191 -0.0748  0.7775  1.7287
  657TIP3    H223463   0.021   0.450   3.233  0.0714  0.0975  0.3966
  658TIP3   OH223464   0.808   4.052  11.206  0.0952  0.0160 -0.3111
  658TIP3    H123465   0.797   4.090  11.119 -0.0548  0.1893 -0.2165
  658TIP3    H223466   0.832   3.961  11.189 -1.0499 -0.2487 -0.5153
  659TIP3   OH223467   2.849   3.568   4.879 -0.2605 -0.2312 -0.5909
  659TIP3    H123468   2.944   3.579   4.881 -0.0464 -1.9079 -1.3388
  659TIP3    H223469   2.828   3.520   4.959 -0.7014  1.6773  0.4700
  660TIP3   OH223470   5.929   2.364  14.951 -0.1805 -0.3334  0.0392
  660TIP3    H123471   5.902   2.287  14.901 -0.2422  1.4565 -2.8163
  660TIP3    H223472   6.024   2.368  14.940 -0.2491  0.3367 -0.4150
  661TIP3   OH223473   6.780   0.029   0.128  0.4313 -0.3588 -0.1317
  661TIP3    H123474   6.778   0.120   0.160 -1.7385 -0.3982 -0.0441
  661TIP3    H223475   6.868   0.018   0.093 -0.0166  2.5668 -2.3834
  662TIP3   OH223476   5.283   6.612  11.878  0.3953 -0.3162  0.5281
  662TIP3    H123477   5.278   6.519  11.901 -0.9962  0.5351  3.9818
  662TIP3    H223478   5.201   6.649  11.911  1.1807  2.2672 -0.3062
  663TIP3   OH223479   5.615   4.788  12.564  0.7822  0.2006  0.1015
  663TIP3    H123480   5.557   4.850  12.518  0.8101  0.8695  0.9500
  663TIP3    H223481   5.567   4.705  12.562 -0.1169  0.6969  0.6039
  664TIP3   OH223482   1.381   6.311  14.466  1.0436 -0.2354  0.8123
  664TIP3    H123483   1.354   6.368  14.538  0.7432 -1.1470  1.4364
  664TIP3    H223484   1.410   6.371  14.397 -0.5126  0.6990  0.9517
  665TIP3   OH223485   0.340   0.940  13.913  0.2996  0.4468 -0.2949
  665TIP3    H123486   0.405   0.888  13.959 -1.4658  0.7094  2.5754
  665TIP3    H223487   0.293   0.877  13.859  1.5726 -0.0589 -0.8283
  666TIP3   OH223488   1.701   3.299  13.055 -0.1341  0.1714  0.4156
  666TIP3    H123489   1.663   3.319  13.140 -2.1105 -0.5260 -0.2791
  666TIP3    H223490   1.665   3.366  12.996  0.8837  0.3909  0.0196
  667TIP3   OH223491   4.077   4.280   4.457 -0.0179 -0.6992  0.2013
  667TIP3    H123492   4.027   4.216   4.507  0.5055 -1.0264  0.3079
  667TIP3    H223493   4.024   4.297   4.380 -0.5300 -0.6663  0.5601
  668TIP3   OH223494   1.166   2.933  10.629  0.4328 -0.5826 -0.7720
  668TIP3    H123495   1.087   2.907  10.676  0.6982 -0.7109 -0.3988
  668TIP3    H223496   1.208   2.851  10.606  1.7891 -0.4942  1.2787
  669TIP3   OH223497   4.020   2.867  13.812 -0.8722 -0.0120 -0.0239
  669TIP3    H123498   4.035   2.958  13.789 -0.1809  0.2166  1.2957
  669TIP3    H223499   4.104   2.836  13.846 -0.3721 -1.8548 -2.7101
  670TIP3   OH223500   5.881   3.655  13.521  0.3177  0.1387 -0.3055
  670TIP3    H123501   5.847   3.577  13.564 -1.1442  3.0240  4.1586
  670TIP3    H223502   5.969   3.665  13.556  0.3213  0.7478 -0.4764
  671TIP3   OH223503   4.884   3.286   0.326  0.4287  0.2771 -0.0756
  671TIP3    H123504   4.876   3.205   0.276  0.7672 -0.3668  0.8756
  671TIP3    H223505   4.952   3.336   0.282  0.8838 -0.3850 -0.1268
  672TIP3   OH223506   5.433   4.215  15.715  0.6055 -0.1561 -0.2092
  672TIP3    H123507   5.343   4.207  15.683  0.4244 -0.5843  0.3957
  672TIP3    H223508   5.432   4.293  15.771  0.7330  0.1287 -0.5995
  673TIP3   OH223509   3.348   2.749  12.566  0.1418  0.6048 -0.1580
  673TIP3    H123510   3.321   2.839  12.583 -1.9014 -0.1689  0.8676
  673TIP3    H223511   3.394   2.722  12.646  0.7987  0.7404 -0.4851
  674TIP3   OH223512   5.951   2.001   3.075  0.1391  0.2580 -0.4556
  674TIP3    H123513   5.891   2.043   3.014 -1.4846  1.3001  1.7654
  674TIP3    H223514   5.916   2.023   3.162  3.2001  0.0923  0.8849
  675TIP3   OH223515   2.760   6.286  15.602  0.2719 -0.5640 -0.2999
  675TIP3    H123516   2.836   6.230  15.586 -0.0914 -1.0563 -0.3100
  675TIP3    H223517   2.692   6.251  15.544  0.6725  1.1915 -1.8953
  676TIP3   OH223518   5.423   1.738   0.852 -0.3005 -0.2251 -0.5009
  676TIP3    H123519   5.484   1.669   0.826 -0.8080 -0.7524 -0.3220
  676TIP3    H223520   5.477   1.815   0.867  0.5207 -1.1275  1.3096
  677TIP3   OH223521   2.724   5.092   2.144 -0.2784 -0.4755  0.6503
  677TIP3    H123522   2.770   5.015   2.110 -1.2181  0.1204 -2.1621
  677TIP3    H223523   2.632   5.077   2.120 -0.6191  1.0474  0.9717
  678TIP3   OH223524   0.382   2.643  10.727 -0.2041 -0.3706 -0.2377
  678TIP3    H123525   0.427   2.695  10.794 -0.9910 -0.3909  0.3092
  678TIP3    H223526   0.353   2.708  10.663  0.7584 -0.3756 -0.6901
  679TIP3   OH223527   1.517   2.389  14.037 -0.1445 -0.0982 -0.2602
  679TIP3    H123528   1.573   2.322  13.998  0.6869  1.1409 -1.2131
  679TIP3    H223529   1.547   2.396  14.128 -1.0389 -1.8647  0.1890
  680TIP3   OH223530   5.183   0.260  16.256  0.2866 -0.0660 -0.1501
  680TIP3    H123531   5.188   0.208  16.336 -0.1435  2.4229  1.5741
  680TIP3    H223532   5.248   0.329  16.269 -0.7152  1.1301 -1.3762
  681TIP3   OH223533   0.291   1.878  15.025 -0.0232  0.2694 -0.5743
  681TIP3    H123534   0.266   1.883  14.932  0.8901 -0.2682 -0.8484
  681TIP3    H223535   0.282   1.786  15.048 -2.1920  0.7067  0.4231
  682TIP3   OH223536   5.692   5.572  13.096  0.4828  0.0154 -0.1353
  682TIP3    H123537   5.766   5.584  13.156  0.0540 -0.6451  0.5260
  682TIP3    H223538   5.628   5.522  13.146 -0.3858  0.5120 -0.7351
  683TIP3   OH223539   1.481   4.239  16.592 -0.2296 -0.2715  0.0336
  683TIP3    H123540   1.562   4.207  16.631 -0.1405  0.1645  0.2043
  683TIP3    H223541   1.478   4.332  16.614  0.6242  0.3514 -2.3751
  684TIP3   OH223542   1.226   4.494   1.594 -0.2449 -0.0231 -0.1400
  684TIP3    H123543   1.212   4.567   1.654 -1.2378 -0.5383  0.2611
  684TIP3    H223544   1.309   4.455   1.624 -0.7336 -0.2846  0.9145
  685TIP3   OH223545   5.718   1.600   0.598 -0.1707  0.6003 -0.2962
  685TIP3    H123546   5.656   1.560   0.659 -0.0018  0.5252 -0.1737
  685TIP3    H223547   5.678   1.683   0.575 -1.3116 -0.3559 -1.8308
  686TIP3   OH223548   1.609   4.857  17.168 -0.5415  0.0186  0.6420
  686TIP3    H123549   1.550   4.887  17.237  0.2930  1.2553  0.8283
  686TIP3    H223550   1.578   4.901  17.089 -0.7752 -0.4801  0.4549
  687TIP3   OH223551   2.752   4.122   0.866 -0.0352  0.7134  0.1495
  687TIP3    H123552   2.791   4.104   0.780 -1.7260  0.6368 -0.6044
  687TIP3    H223553   2.785   4.209   0.888  1.5195  0.1627  0.0632
  688TIP3   OH223554   1.126   1.653   0.652 -0.0846  0.5361  0.3010
  688TIP3    H123555   1.217   1.636   0.629 -0.4861 -2.8532  0.9729
  688TIP3    H223556   1.081   1.662   0.568  0.8686  2.3967 -0.0302
  689TIP3   OH223557   1.441   0.483   0.124  0.6548  0.5352  0.4871
  689TIP3    H123558   1.508   0.416   0.115  0.4369  0.1787  1.4536
  689TIP3    H223559   1.376   0.445   0.183 -0.4283  0.8556 -0.4748
  690TIP3   OH223560   1.896   5.433   5.074  0.5576 -0.0852 -0.0783
  690TIP3    H123561   1.896   5.361   5.137 -0.2825 -0.0387 -0.0121
  690TIP3    H223562   1.857   5.506   5.121  1.9710  0.5945  0.0455
  691TIP3   OH223563   6.812   3.669  12.323 -0.6397  0.2487  0.2941
  691TIP3    H123564   6.717   3.671  12.339 -0.6309  0.1207  0.3726
  691TIP3    H223565   6.837   3.579  12.347 -0.7906 -0.2580 -1.4330
  692TIP3   OH223566   3.823   4.845  10.986 -0.3477 -0.2711 -0.2044
  692TIP3    H123567   3.744   4.892  10.959 -1.2975  0.5689  3.7393
  692TIP3    H223568   3.803   4.753  10.969 -0.7559  0.2074 -2.4889
  693TIP3   OH223569   5.081   5.774  13.183  0.0011 -0.0204  0.7760
  693TIP3    H123570   5.175   5.761  13.171 -0.1248 -0.2253 -0.0039
  693TIP3    H223571   5.042   5.743  13.102 -0.6909  0.6575  0.8449
  694TIP3   OH223572   2.443   0.701  13.446 -0.4245  0.3344 -0.3827
  694TIP3    H123573   2.497   0.741  13.514 -0.7230  2.3454 -1.3187
  694TIP3    H223574   2.493   0.624  13.418  1.6255  1.7646 -0.7425
  695TIP3   OH223575   4.999   0.475  14.347  0.4068  0.3163  0.0942
  695TIP3    H123576   5.031   0.543  14.289  0.2294 -0.4028 -0.8745
  695TIP3    H223577   5.008   0.511  14.435 -0.0067  1.7165 -0.4197
  696TIP3   OH223578   4.241   3.581   3.507  0.3717  0.0247  0.5837
  696TIP3    H123579   4.297   3.656   3.530  0.9523 -0.7160  1.6255
  696TIP3    H223580   4.292   3.504   3.532 -1.8956 -0.6419  3.4186
  697TIP3   OH223581   6.510   0.252  16.454  0.2719 -0.3669 -0.3209
  697TIP3    H123582   6.605   0.268  16.458  0.0587  1.1642 -0.8392
  697TIP3    H223583   6.498   0.204  16.372  0.7677 -2.0046  0.5360
  698TIP3   OH223584   5.781   3.491  15.650 -0.6882  0.7616  0.2105
  698TIP3    H123585   5.729   3.544  15.589  2.2994  3.5163 -0.0668
  698TIP3    H223586   5.798   3.550  15.724  2.0545 -0.0369  0.2653
  699TIP3   OH223587   2.471   4.820  16.361  0.2798 -0.7641 -0.1483
  699TIP3    H123588   2.533   4.847  16.429 -1.5186 -1.1055  1.6647
  699TIP3    H223589   2.520   4.758  16.307  1.5068 -1.0387  1.2566
  700TIP3   OH223590   0.456   1.458  16.611 -0.3790  0.1645 -0.6908
  700TIP3    H123591   0.410   1.495  16.686 -0.3009 -0.4174 -0.3490
  700TIP3    H223592   0.549   1.466  16.634 -0.3369  0.4503 -0.9527
  701TIP3   OH223593   5.098   3.123  12.917 -0.1519 -0.9534  0.2640
  701TIP3    H123594   5.115   3.043  12.967  0.6779  0.0574  1.6503
  701TIP3    H223595   5.183   3.146  12.881 -0.7594 -1.6955 -1.6926
  702TIP3   OH223596   1.160   3.945  10.928  0.1551  0.5072 -0.0908
  702TIP3    H123597   1.107   3.981  10.856 -1.5215  0.1438  0.9300
  702TIP3    H223598   1.131   3.993  11.005 -0.9314 -1.8093  1.0117
  703TIP3   OH223599   2.448   4.741  13.942  0.0909 -0.1821 -0.0682
  703TIP3    H123600   2.392   4.744  14.020  0.3131  1.0529  0.0502
  703TIP3    H223601   2.430   4.823  13.896  1.6013  0.1082 -0.1667
  704TIP3   OH223602   3.717   2.057  12.683 -0.2038 -0.6492 -0.2186
  704TIP3    H123603   3.729   2.012  12.599 -0.7741 -1.0808 -0.0679
  704TIP3    H223604   3.624   2.047  12.702 -0.3973  0.9052 -0.3564
  705TIP3   OH223605   0.683   1.511   4.739  0.1891  0.3279 -0.5391
  705TIP3    H123606   0.699   1.472   4.825 -1.9213  0.3147 -0.1227
  705TIP3    H223607   0.767   1.546   4.712  0.6145  1.3462  2.0359
  706TIP3   OH223608   5.588   6.620   5.898 -0.3915 -0.3228  0.6083
  706TIP3    H123609   5.646   6.669   5.840 -0.3960 -1.2445 -0.1902
  706TIP3    H223610   5.644   6.554   5.938 -0.9451 -1.4758 -0.4663
  707TIP3   OH223611   0.518   4.049  15.072  0.1170  0.0701 -0.6223
  707TIP3    H123612   0.532   4.091  15.157  0.8914 -0.2996 -0.5626
  707TIP3    H223613   0.604   4.051  15.030 -0.0260 -0.6953 -0.9629
  708TIP3   OH223614   3.207   1.160  13.401  0.0472 -0.4416  0.1101
  708TIP3    H123615   3.258   1.225  13.450 -0.2032 -0.0822 -0.1061
  708TIP3    H223616   3.127   1.150  13.452  0.3300 -1.0124  0.4531
  709TIP3   OH223617   0.411   0.600   0.489  0.5188  0.7571 -0.0417
  709TIP3    H123618   0.404   0.567   0.399  0.8703  0.1944  0.1328
  709TIP3    H223619   0.432   0.522   0.541  2.8240  1.5005  0.1758
  710TIP3   OH223620   6.410   0.307   0.868 -0.1405 -0.5446  0.0633
  710TIP3    H123621   6.405   0.317   0.773  0.1661 -0.0041  0.1021
  710TIP3    H223622   6.503   0.296   0.886 -0.2573 -1.2272  0.2448
  711TIP3   OH223623   2.744   0.365  16.050  0.2997  0.2854  0.2048
  711TIP3    H123624   2.747   0.393  16.142  0.6726 -0.3459  0.3884
  711TIP3    H223625   2.655   0.387  16.021  0.8038  2.3047  0.1334
  712TIP3   OH223626   6.570   2.854   0.389 -0.0338  0.1180  0.9018
  712TIP3    H123627   6.599   2.918   0.454  0.2225  0.2442  0.6618
  712TIP3    H223628   6.642   2.792   0.382 -0.0071  0.1782  0.6427
  713TIP3   OH223629   6.403   4.857   1.301 -0.1066 -0.4440 -0.0342
  713TIP3    H123630   6.477   4.814   1.344 -0.3381 -3.3698 -2.4200
  713TIP3    H223631   6.425   4.951   1.304  2.4261 -1.0437  1.5642
  714TIP3   OH223632   5.133   6.224   5.502  0.1222  0.3121 -0.2986
  714TIP3    H123633   5.188   6.253   5.430 -0.5013  0.4378 -0.7282
  714TIP3    H223634   5.129   6.300   5.561  0.0630  0.4434 -0.4714
  715TIP3   OH223635   4.125   1.597   1.489  0.3313  0.0740 -0.0113
  715TIP3    H123636   4.144   1.633   1.575 -0.8214  0.4805  0.0755
  715TIP3    H223637   4.040   1.554   1.499  1.5073 -2.3714 -0.1981
  716TIP3   OH223638   3.053   6.634  12.702 -0.4742  0.5206  0.5316
  716TIP3    H123639   3.015   6.581  12.772  1.3263  0.3613  1.4293
  716TIP3    H223640   2.978   6.673  12.658 -1.7923 -1.8665  0.5711
  717TIP3   OH223641   6.795   6.250   4.702  0.1039  0.2620  0.0517
  717TIP3    H123642   6.793   6.259   4.797 -0.5761  0.7521 -0.0094
  717TIP3    H223643   6.748   6.327   4.669 -2.2424 -1.3910 -0.5935
  718TIP3   OH223644   1.440   0.491  11.672 -0.3333  0.1202 -0.5308
  718TIP3    H123645   1.359   0.521  11.631 -0.5754 -1.3481 -1.1646
  718TIP3    H223646   1.472   0.423  11.614 -0.2988 -1.4841  1.3224
  719TIP3   OH223647   1.822   5.149  12.932 -0.0281  0.1353  0.3809
  719TIP3    H123648   1.726   5.146  12.929  0.0051 -1.9608  0.6517
  719TIP3    H223649   1.842   5.236  12.967 -1.8607  0.2506  1.2172
  720TIP3   OH223650   6.394   1.555  15.833  0.2136 -0.0067 -0.0920
  720TIP3    H123651   6.351   1.582  15.752  0.2062  1.1370  0.2867
  720TIP3    H223652   6.355   1.470  15.854  0.8329 -0.7019 -1.7329
  721TIP3   OH223653   3.722   1.114  11.692 -0.2067 -0.3320  0.8102
  721TIP3    H123654   3.671   1.069  11.625 -0.7935 -0.5892  1.4359
  721TIP3    H223655   3.658   1.161  11.745  0.2680 -0.0166  1.1132
  722TIP3   OH223656   6.581   2.768  13.498  0.5092  0.4404  0.1476
  722TIP3    H123657   6.663   2.763  13.548  0.8801  0.3091 -0.4632
  722TIP3    H223658   6.512   2.757  13.563  1.0030 -0.1964  0.5737
  723TIP3   OH223659   0.159   5.034   0.773 -0.2749 -0.3152 -0.2594
  723TIP3    H123660   0.066   5.054   0.760 -0.2747 -0.4991 -0.5489
  723TIP3    H223661   0.187   4.994   0.691 -0.1850 -1.1890  0.1924
  724TIP3   OH223662   2.120   5.830   1.936  0.0590 -0.5115  0.0544
  724TIP3    H123663   2.038   5.853   1.979  0.4193  1.6447 -0.3361
  724TIP3    H223664   2.133   5.738   1.955 -2.7784 -1.0400 -0.4237
  725TIP3   OH223665   0.981   1.618  14.320  0.5470 -0.1253  0.2623
  725TIP3    H123666   0.979   1.704  14.362 -0.2546 -0.1943  0.3804
  725TIP3    H223667   0.889   1.597  14.304  0.7296 -0.9889  0.2997
  726TIP3   OH223668   1.160   3.479  10.397  0.3488 -0.2839  0.0805
  726TIP3    H123669   1.221   3.495  10.325  0.5048  0.8721  0.4641
  726TIP3    H223670   1.091   3.424  10.358  0.1412  0.7960 -1.1065
  727TIP3   OH223671   6.074   6.313   1.074  0.2901  0.3213  0.1265
  727TIP3    H123672   6.101   6.221   1.075  0.0407  0.2371 -0.5221
  727TIP3    H223673   6.151   6.361   1.105  0.3430 -0.1270  0.6829
  728TIP3   OH223674   3.408   1.105  14.248  0.0238  0.3926  0.8287
  728TIP3    H123675   3.450   1.173  14.196 -0.5953 -0.6019 -1.0145
  728TIP3    H223676   3.339   1.151  14.297  0.4979  1.3020  0.6457
  729TIP3   OH223677   4.028   6.128   6.588 -0.4236 -0.3077 -0.1449
  729TIP3    H123678   4.007   6.197   6.525  1.2992 -0.2422 -0.6677
  729TIP3    H223679   3.956   6.066   6.580 -2.3149  1.6723  0.7303
  730TIP3   OH223680   0.856   2.551   4.588  0.2298 -0.1199  0.2385
  730TIP3    H123681   0.907   2.620   4.631  1.2238 -1.0403  0.5656
  730TIP3    H223682   0.921   2.483   4.566 -0.5028 -0.3182 -1.3745
  731TIP3   OH223683   2.565   3.589  11.717 -0.1657 -0.0367  0.4988
  731TIP3    H123684   2.515   3.549  11.789 -1.9796  1.1296 -0.0809
  731TIP3    H223685   2.617   3.658  11.759  0.4360 -0.7928  1.0059
  732TIP3   OH223686   2.533   3.779   3.834  0.3625  0.1790 -0.1627
  732TIP3    H123687   2.605   3.723   3.803 -0.1294 -1.3442  1.3286
  732TIP3    H223688   2.456   3.748   3.785 -0.0045 -0.8173  1.0080
  733TIP3   OH223689   0.255   6.531  12.787  0.0122  0.0752  0.1507
  733TIP3    H123690   0.289   6.502  12.702  0.2608 -1.8025  0.8680
  733TIP3    H223691   0.332   6.539  12.842 -0.5171 -2.5440  1.3047
  734TIP3   OH223692   1.421   0.911   1.109 -0.1194  0.1660 -0.3500
  734TIP3    H123693   1.487   0.851   1.142  1.2570  2.0581  0.4017
  734TIP3    H223694   1.365   0.929   1.184  1.0697  1.9108  0.1315
  735TIP3   OH223695   5.395   4.901   4.402 -0.4645 -0.3223  0.8675
  735TIP3    H123696   5.430   4.870   4.485 -3.1800 -1.3964  1.6477
  735TIP3    H223697   5.406   4.996   4.405  1.2176 -0.5133  1.5863
  736TIP3   OH223698   5.334   0.637  11.275  0.0765 -0.1407 -0.7998
  736TIP3    H123699   5.406   0.612  11.217 -2.5170 -2.8446 -3.0081
  736TIP3    H223700   5.289   0.555  11.295 -3.3014  1.6107 -0.7427
  737TIP3   OH223701   1.964   1.533  12.486  0.4323 -0.3044 -0.3066
  737TIP3    H123702   2.053   1.516  12.516  0.0181  0.6426  1.5681
  737TIP3    H223703   1.962   1.504  12.395  2.9293  0.5889 -0.6648
  738TIP3   OH223704   1.222   5.371  12.822 -0.6439 -0.1159  0.3793
  738TIP3    H123705   1.266   5.289  12.845  0.8496  0.9136  1.2777
  738TIP3    H223706   1.160   5.386  12.893 -2.7429 -1.7374 -1.0543
  739TIP3   OH223707   0.767   3.101   3.595  0.0645 -0.0173  0.4639
  739TIP3    H123708   0.846   3.047   3.593 -0.1735 -0.3213 -1.3766
  739TIP3    H223709   0.697   3.040   3.618 -0.2139 -0.5670 -1.6689
  740TIP3   OH223710   4.331   0.476   2.297  0.0229  0.9611  0.0284
  740TIP3    H123711   4.340   0.443   2.208  0.4652  0.3395  0.2915
  740TIP3    H223712   4.378   0.559   2.297  1.4658  0.1636  0.0940
  741TIP3   OH223713   3.591   6.625   0.352 -0.2349 -0.1407  0.2497
  741TIP3    H123714   3.674   6.646   0.309  0.3948 -0.3918  1.3088
  741TIP3    H223715   3.566   6.540   0.315 -0.0210 -0.0606 -0.0811
  742TIP3   OH223716   3.133   4.177  15.689  0.1829 -0.1039  0.2093
  742TIP3    H123717   3.155   4.210  15.776  1.3407  1.2871 -0.5775
  742TIP3    H223718   3.213   4.135  15.659  0.2583  0.7050 -0.7521
  743TIP3   OH223719   4.202   2.920   4.886 -0.7305  0.1677  0.2301
  743TIP3    H123720   4.121   2.928   4.835 -0.7250 -0.5142  0.1098
  743TIP3    H223721   4.271   2.951   4.828 -0.8815  0.5568  0.2592
  744TIP3   OH223722   6.190   6.720  12.143  0.3911  0.4101 -0.0918
  744TIP3    H123723   6.158   6.710  12.053 -1.1810  0.1107  0.4845
  744TIP3    H223724   6.217   6.811  12.149  0.3572  0.4739 -0.8310
  745TIP3   OH223725   4.662   4.764  15.602  0.0283 -0.4124  0.1635
  745TIP3    H123726   4.580   4.738  15.559  0.4205  0.1429 -0.9541
  745TIP3    H223727   4.681   4.851  15.566  0.2219  0.1942  1.7084
  746TIP3   OH223728   1.493   6.791  16.153  0.3770 -0.2006  0.4650
  746TIP3    H123729   1.458   6.880  16.160 -0.5870 -0.6676  1.8537
  746TIP3    H223730   1.489   6.757  16.242 -1.0767 -2.3122 -0.3813
  747TIP3   OH223731   6.151   0.380   1.802  0.2086  0.0881 -0.1978
  747TIP3    H123732   6.154   0.312   1.736 -0.5046 -1.9362  1.7876
  747TIP3    H223733   6.077   0.435   1.777  1.3373  0.6706 -2.3094
  748TIP3   OH223734   3.824   5.265  16.510 -0.1688  0.6587 -0.0737
  748TIP3    H123735   3.886   5.240  16.441 -1.1409  0.6224 -0.9383
  748TIP3    H223736   3.859   5.224  16.589  1.0709  0.8749 -0.4909
  749TIP3   OH223737   0.641   3.470  11.078 -0.0008 -0.8226 -0.2713
  749TIP3    H123738   0.735   3.480  11.094  0.2109 -3.0835  0.1195
  749TIP3    H223739   0.634   3.471  10.982  0.6683 -2.2684 -0.3630
  750TIP3   OH223740   5.000   3.115   4.037 -0.4161  0.3215  0.0508
  750TIP3    H123741   4.949   3.148   3.964 -1.3987  1.5854  1.2942
  750TIP3    H223742   4.966   3.160   4.114  0.4935 -1.0896  1.3288
  751TIP3   OH223743   3.767   5.758   2.806  0.2010 -0.3925  0.3741
  751TIP3    H123744   3.696   5.790   2.751  0.5767 -1.0149 -0.4888
  751TIP3    H223745   3.833   5.827   2.802 -0.1137 -0.0705  0.7116
  752TIP3   OH223746   1.472   5.639  16.262 -0.0495 -0.4812 -0.0168
  752TIP3    H123747   1.439   5.550  16.248 -0.2510 -0.7061  1.7644
  752TIP3    H223748   1.476   5.677  16.175 -0.1288 -2.1853 -0.7950
  753TIP3   OH223749   2.306   5.918  13.972  0.6328 -0.0688  0.1606
  753TIP3    H123750   2.332   5.888  14.059 -1.5038  2.7525  1.8431
  753TIP3    H223751   2.345   6.005  13.965  0.9182 -0.3357 -1.8057
  754TIP3   OH223752   2.774   0.841  16.074  0.1364 -0.0596 -0.0478
  754TIP3    H123753   2.742   0.818  15.987 -2.6825  2.1225  0.3285
  754TIP3    H223754   2.722   0.786  16.134 -0.1155  0.6597  0.3959
  755TIP3   OH223755   3.954   4.915   0.652  0.3168  0.3537 -0.0628
  755TIP3    H123756   3.861   4.898   0.665  0.3318 -0.4096 -0.9293
  755TIP3    H223757   3.994   4.897   0.737 -0.2526  0.1601  0.1623
  756TIP3   OH223758   6.056   0.044   2.528 -0.2204  0.0095 -0.1398
  756TIP3    H123759   6.096  -0.003   2.602 -1.4495  0.0800  0.5922
  756TIP3    H223760   6.054   0.135   2.556 -0.5235  0.0621 -0.3371
  757TIP3   OH223761   0.405   0.409   1.682  0.4889  0.3369 -0.0794
  757TIP3    H123762   0.483   0.360   1.655 -0.2299 -0.9026  0.0321
  757TIP3    H223763   0.436   0.498   1.696  1.5505  0.2421 -1.6887
  758TIP3   OH223764   6.741   2.256   5.989 -0.0831  0.3322 -0.4773
  758TIP3    H123765   6.729   2.170   6.028 -0.5022 -0.1782 -1.7128
  758TIP3    H223766   6.746   2.316   6.063 -0.0620 -0.7226  0.3754
  759TIP3   OH223767   6.362   6.566   3.075  0.1444  0.2512 -0.0210
  759TIP3    H123768   6.427   6.548   3.143 -0.6938 -3.0472 -0.0326
  759TIP3    H223769   6.292   6.613   3.121  0.4757 -0.2168  0.9826
  760TIP3   OH223770   4.648   6.546   3.371  0.2825 -0.2374  0.5601
  760TIP3    H123771   4.738   6.566   3.398  0.7112  0.1390 -1.0777
  760TIP3    H223772   4.652   6.456   3.339 -0.0543 -0.4181  1.0232
  761TIP3   OH223773   0.828   3.189  12.191  0.1013  0.1298 -0.3484
  761TIP3    H123774   0.851   3.099  12.166  0.9171  0.7338 -1.8534
  761TIP3    H223775   0.913   3.231  12.208 -0.1772  1.0107 -1.0975
  762TIP3   OH223776   3.226   0.557  13.624 -0.3387 -0.0907 -0.0917
  762TIP3    H123777   3.232   0.645  13.585 -2.0237  1.0005  1.9754
  762TIP3    H223778   3.133   0.535  13.617 -0.0490 -1.3818  0.1214
  763TIP3   OH223779   2.445   4.992  14.369 -0.1408 -0.2444  0.7773
  763TIP3    H123780   2.357   4.967  14.339 -0.3818  1.5551 -0.0542
  763TIP3    H223781   2.456   4.946  14.452 -1.0204 -2.1963 -0.1572
  764TIP3   OH223782   0.278   1.353  15.695 -0.0407  0.1808  0.7190
  764TIP3    H123783   0.282   1.433  15.643 -0.1919  0.5271  1.2332
  764TIP3    H223784   0.368   1.322  15.699  0.1115  0.6520  1.0140
  765TIP3   OH223785   6.009   6.569   0.937 -0.3188 -0.3789  0.1120
  765TIP3    H123786   6.018   6.493   0.994  0.3055 -0.1080  0.3842
  765TIP3    H223787   6.011   6.644   0.997  2.0172 -0.0044 -0.3838
  766TIP3   OH223788   1.185   4.032   1.225 -0.2536 -0.3667 -0.3440
  766TIP3    H123789   1.096   3.998   1.231 -0.6413  0.5065 -1.1700
  766TIP3    H223790   1.175   4.127   1.226  0.8568 -0.2265  2.3879
  767TIP3   OH223791   5.279   2.516   5.490 -0.1655 -0.3188  0.0422
  767TIP3    H123792   5.222   2.567   5.547 -0.1450  1.7208 -1.6962
  767TIP3    H223793   5.323   2.455   5.548 -1.0553  0.8639  2.0073
  768TIP3   OH223794   3.616   2.808  12.338  0.1596 -0.4474  0.1014
  768TIP3    H123795   3.600   2.715  12.349 -2.5191 -0.0296  0.1384
  768TIP3    H223796   3.530   2.849  12.348  0.9625  1.8563 -1.7916
  769TIP3   OH223797   6.652   0.471  16.840 -0.0227  0.0266 -0.3000
  769TIP3    H123798   6.622   0.545  16.787 -1.5227 -0.0382  0.4436
  769TIP3    H223799   6.606   0.481  16.923  2.2252  0.0591  0.9785
  770TIP3   OH223800   6.482   1.054   5.297  0.1745  0.3400  0.0087
  770TIP3    H123801   6.573   1.084   5.303  0.2699  0.0310  0.1128
  770TIP3    H223802   6.470   1.000   5.376  0.9761 -2.5774 -1.8064
  771TIP3   OH223803   3.536   1.277   4.235 -0.1395  0.3493  0.3055
  771TIP3    H123804   3.460   1.285   4.293 -0.9284 -0.9377 -0.5104
  771TIP3    H223805   3.610   1.310   4.286 -1.3621  2.2983  0.8596
  772TIP3   OH223806   3.024   1.480   5.580 -0.1213 -0.0541 -0.2975
  772TIP3    H123807   3.038   1.573   5.563  1.7138 -0.2741 -0.1582
  772TIP3    H223808   3.007   1.474   5.674 -1.4341  0.2616 -0.5151
  773TIP3   OH223809   2.004   5.366   2.070  0.2806 -0.2401 -0.2013
  773TIP3    H123810   1.973   5.409   2.149  2.6005  0.8777  0.1322
  773TIP3    H223811   2.056   5.292   2.101 -0.3706 -0.9321 -0.7273
  774TIP3   OH223812   1.013   3.045  13.700 -0.1298  0.4488  0.1927
  774TIP3    H123813   1.078   3.038  13.770 -1.9078 -0.5442  1.7978
  774TIP3    H223814   0.955   2.970  13.713 -1.2624  0.9648 -1.5777
  775TIP3   OH223815   5.002   5.125  15.668 -0.4431  0.1203  0.2686
  775TIP3    H123816   5.090   5.087  15.659 -0.2484  0.7866 -0.7334
  775TIP3    H223817   5.015   5.219  15.658 -1.4206  0.1293 -1.0947
  776TIP3   OH223818   5.369   5.705  11.130  0.0681  0.8918 -0.1648
  776TIP3    H123819   5.364   5.610  11.115 -0.2951  0.7521  0.8176
  776TIP3    H223820   5.354   5.743  11.043  0.7953  0.0458 -0.6823
  777TIP3   OH223821   0.761   2.681  15.793 -0.5826  0.2965 -0.3312
  777TIP3    H123822   0.812   2.602  15.774 -2.4137 -1.1053  0.5337
  777TIP3    H223823   0.743   2.719  15.707  1.0623  0.2936 -0.7074
  778TIP3   OH223824   1.289   5.460  17.152 -0.1029 -0.3792 -0.0347
  778TIP3    H123825   1.354   5.523  17.121  0.2835 -0.5008  0.5099
  778TIP3    H223826   1.242   5.506  17.222 -0.2621 -0.4696 -0.0796
  779TIP3   OH223827   3.582   0.590  15.132 -0.4913  0.2733 -0.2459
  779TIP3    H123828   3.660   0.534  15.128 -1.4837 -1.1152 -0.4505
  779TIP3    H223829   3.511   0.531  15.157 -1.5562  1.4649 -0.3991
  780TIP3   OH223830   2.837   3.276   3.930  0.0555 -0.0630 -0.2956
  780TIP3    H123831   2.900   3.207   3.910 -0.1970 -0.0350 -1.2205
  780TIP3    H223832   2.888   3.357   3.926  0.2690 -0.1598  0.4081
  781TIP3   OH223833   0.185   2.809   1.666 -0.0464 -1.3812  0.8021
  781TIP3    H123834   0.240   2.750   1.717  0.8656 -1.8913 -0.7177
  781TIP3    H223835   0.160   2.757   1.589 -0.1390 -0.1514 -0.0119
  782TIP3   OH223836   3.777   1.449  15.488  0.5489 -0.0616 -0.1152
  782TIP3    H123837   3.742   1.367  15.452 -2.2264  1.4986 -1.1683
  782TIP3    H223838   3.836   1.481  15.420  2.3435 -1.5874  0.6835
  783TIP3   OH223839   3.999   3.694  13.024  0.1865 -0.4234 -0.1863
  783TIP3    H123840   4.091   3.667  13.015  0.3317  0.0047 -0.0287
  783TIP3    H223841   3.958   3.666  12.943  0.1554 -1.7951  0.3007
  784TIP3   OH223842   6.172   0.226   4.092  0.2577  0.4685  0.4442
  784TIP3    H123843   6.102   0.174   4.052 -0.7757  1.4727  0.9259
  784TIP3    H223844   6.170   0.200   4.185  2.2625 -1.4261  0.0098
  785TIP3   OH223845   6.693   1.855   1.249 -0.1929  0.4261  0.5042
  785TIP3    H123846   6.716   1.935   1.296  1.5336  0.0527  0.3149
  785TIP3    H223847   6.669   1.793   1.318  2.1954 -0.0760  0.9257
  786TIP3   OH223848   2.075   2.843  14.791 -0.1006 -0.8151 -0.9209
  786TIP3    H123849   2.094   2.911  14.855 -0.0893 -0.2973 -1.4689
  786TIP3    H223850   2.152   2.843  14.733  0.3276 -1.9455 -0.3633
  787TIP3   OH223851   0.103   0.907  12.372 -0.2763  0.0969  0.0067
  787TIP3    H123852   0.027   0.931  12.319 -0.4965 -0.0919  0.2385
  787TIP3    H223853   0.083   0.940  12.460 -0.2301 -0.2359  0.1426
  788TIP3   OH223854   2.549   3.603  11.334 -0.5152  0.4608  0.0351
  788TIP3    H123855   2.552   3.584  11.240  0.1183  0.7920 -0.0142
  788TIP3    H223856   2.626   3.559  11.370 -0.7731  0.3088  0.4054
  789TIP3   OH223857   1.956   1.151  14.106 -0.1591  0.0491  0.1942
  789TIP3    H123858   1.915   1.073  14.141 -1.1331 -0.1993 -1.4057
  789TIP3    H223859   2.036   1.120  14.063 -0.9433 -0.2135 -1.1225
  790TIP3   OH223860   0.128   5.881   3.262 -0.1136 -0.3170  0.1414
  790TIP3    H123861   0.124   5.836   3.178  1.0728  2.8497 -1.7292
  790TIP3    H223862   0.218   5.869   3.291  0.4963  1.5394 -0.8544
  791TIP3   OH223863   0.638   6.121   3.583  0.0862  0.2593  0.0149
  791TIP3    H123864   0.558   6.079   3.614  0.5728  0.9262  2.2893
  791TIP3    H223865   0.659   6.186   3.650  2.3830  0.2795 -0.6668
  792TIP3   OH223866   4.048   0.045  16.980 -0.0980 -0.0309  0.3040
  792TIP3    H123867   3.957   0.046  17.009 -0.4134  2.0116 -0.6416
  792TIP3    H223868   4.099   0.049  17.061 -0.9349  3.2862  0.7393
  793TIP3   OH223869   0.505   6.444   5.300 -0.6135  0.4588 -0.3172
  793TIP3    H123870   0.551   6.391   5.234 -1.6436 -0.7989 -0.0483
  793TIP3    H223871   0.434   6.486   5.251 -0.2192  1.0537 -0.3870
  794TIP3   OH223872   5.048   3.538   2.302 -0.1295 -0.3378 -0.1998
  794TIP3    H123873   5.078   3.449   2.322 -3.9850 -1.7443 -0.2336
  794TIP3    H223874   5.029   3.577   2.387  0.6307  0.1374 -0.2403
  795TIP3   OH223875   5.581   6.226  10.702 -0.2467  0.2457 -0.3610
  795TIP3    H123876   5.542   6.154  10.752 -2.7370  0.8929 -1.2726
  795TIP3    H223877   5.563   6.304  10.755 -0.5934  0.6041 -0.9988
  796TIP3   OH223878   2.557   1.117  11.858  0.2564 -0.0357 -0.1627
  796TIP3    H123879   2.590   1.156  11.939  1.4433 -1.9399  0.3243
  796TIP3    H223880   2.631   1.121  11.797 -0.1080 -0.1031 -0.6140
  797TIP3   OH223881   0.417   1.063  11.512 -0.0859  0.5273  0.5262
  797TIP3    H123882   0.366   1.128  11.464 -0.6420 -0.1829  0.1482
  797TIP3    H223883   0.506   1.100  11.515 -0.6914  1.9153  1.4818
  798TIP3   OH223884   6.780   4.364   6.533 -0.1048  0.6939  0.2321
  798TIP3    H123885   6.703   4.322   6.494  0.6035  0.0258 -0.4579
  798TIP3    H223886   6.744   4.423   6.599 -1.0607 -1.6049  1.8083
  799TIP3   OH223887   3.137   1.935   3.679  0.2661 -0.4482  0.6460
  799TIP3    H123888   3.125   1.848   3.643 -1.0381 -0.0901  0.2149
  799TIP3    H223889   3.231   1.951   3.670  0.2567 -1.1125 -0.8763
  800TIP3   OH223890   2.067   2.641  15.882 -0.6242 -0.1587 -0.2558
  800TIP3    H123891   1.973   2.621  15.874 -0.7634  0.0063  0.8410
  800TIP3    H223892   2.070   2.719  15.938  0.1726 -0.1747 -0.2753
  801TIP3   OH223893   6.379   1.042  13.174  0.1336 -0.2377  0.5495
  801TIP3    H123894   6.300   1.091  13.153  0.8650  1.2740  1.2702
  801TIP3    H223895   6.444   1.074  13.112  0.6670 -0.1578  1.1509
  802TIP3   OH223896   4.356   1.015   5.765 -0.2026 -0.4354 -0.1645
  802TIP3    H123897   4.359   1.037   5.859 -0.1461  1.1576 -0.5275
  802TIP3    H223898   4.296   1.079   5.727  1.5068  0.3814 -1.5825
  803TIP3   OH223899   0.928   1.937   3.734  0.6826  0.1931  0.1483
  803TIP3    H123900   0.926   2.016   3.789  0.7239  0.1165  0.2582
  803TIP3    H223901   0.878   1.962   3.655 -0.7927 -0.2341  0.9373
  804TIP3   OH223902   4.034   2.088  15.395 -0.3067  0.7448 -0.1580
  804TIP3    H123903   4.007   2.033  15.321  2.5460  1.9370 -2.1927
  804TIP3    H223904   4.071   2.027  15.458  1.1514  0.0947 -1.6084
  805TIP3   OH223905   3.922   0.814   5.552  0.4398 -0.4952  0.4272
  805TIP3    H123906   4.000   0.826   5.607 -1.1949  2.5638  2.1810
  805TIP3    H223907   3.864   0.759   5.604 -0.1968  0.5697  0.8626
  806TIP3   OH223908   1.135   5.455   1.613  0.6532  0.3221  0.4053
  806TIP3    H123909   1.095   5.505   1.685  1.7773  1.5541  0.1993
  806TIP3    H223910   1.087   5.372   1.612 -1.5201  1.5287  0.5120
  807TIP3   OH223911   2.811   0.666   5.991 -0.4101 -0.2841  0.3028
  807TIP3    H123912   2.906   0.654   5.994 -0.4578 -0.8359 -0.1861
  807TIP3    H223913   2.798   0.748   5.943 -0.1720 -0.0201  0.6857
  808TIP3   OH223914   1.632   2.380   2.707  0.3484  0.1291 -0.7027
  808TIP3    H123915   1.613   2.406   2.617  1.8750 -0.6074 -1.2572
  808TIP3    H223916   1.604   2.455   2.760 -2.6250 -0.3073 -1.5571
  809TIP3   OH223917   1.795   3.080   3.218  0.0288 -0.5069 -0.5453
  809TIP3    H123918   1.847   3.138   3.274 -0.9475 -1.3334  1.2438
  809TIP3    H223919   1.840   2.996   3.221 -1.2051 -1.1490  0.7809
  810TIP3   OH223920   6.134   3.255  14.627 -0.2296  0.0824 -0.2371
  810TIP3    H123921   6.116   3.315  14.555 -0.8533  0.0642 -0.0973
  810TIP3    H223922   6.213   3.289  14.668  1.1222 -0.8503 -1.9678
  811TIP3   OH223923   6.510   2.022  13.264  0.1587 -0.0083  0.5964
  811TIP3    H123924   6.464   2.074  13.330 -1.0623  0.9220 -0.9696
  811TIP3    H223925   6.561   2.086  13.213 -1.9694 -0.1949 -1.8457
  812TIP3   OH223926   0.201   5.922  11.308 -0.1712  0.0995  0.2942
  812TIP3    H123927   0.247   5.854  11.258 -2.7228 -0.2035 -1.7566
  812TIP3    H223928   0.228   6.004  11.268  0.2255  0.0624  0.4885
  813TIP3   OH223929   0.373   3.018  12.714 -0.1973  0.3992  0.3539
  813TIP3    H123930   0.370   3.074  12.637  0.9014 -0.4930 -0.3489
  813TIP3    H223931   0.399   3.076  12.786  1.0445  0.7638 -0.3860
  814TIP3   OH223932   3.455   0.715   1.620 -0.0898 -0.1238  0.3315
  814TIP3    H123933   3.513   0.768   1.675 -0.9193 -1.2539  2.3634
  814TIP3    H223934   3.482   0.624   1.638  1.2811 -0.4563 -3.0455
  815TIP3   OH223935   2.956   5.001  16.942  0.2769 -0.1434  0.0594
  815TIP3    H123936   2.923   5.087  16.968 -2.5122 -1.1878  0.0990
  815TIP3    H223937   2.965   4.952  17.024 -0.8056 -0.7880 -0.1977
  816TIP3   OH223938   0.074   0.688  16.074 -0.2069 -0.5264 -0.1954
  816TIP3    H123939   0.025   0.617  16.117  0.3986 -0.2459  0.9850
  816TIP3    H223940   0.166   0.663  16.085 -0.0239 -0.0549 -0.6467
  817TIP3   OH223941   1.221   5.569  13.161 -0.4210 -0.1064  0.7521
  817TIP3    H123942   1.224   5.513  13.239  0.6940  0.8463  1.4238
  817TIP3    H223943   1.304   5.617  13.164 -0.3149 -0.1544 -1.1101
  818TIP3   OH223944   3.989   1.585  13.318  0.3838  0.4106  0.8745
  818TIP3    H123945   4.057   1.561  13.381  0.3141 -0.3221  0.6766
  818TIP3    H223946   3.951   1.665  13.354  1.6442  1.0728  0.7464
  819TIP3   OH223947   2.566   4.100   3.085  0.8018  0.2202 -0.1865
  819TIP3    H123948   2.611   4.166   3.033 -0.9421  0.8281 -0.9496
  819TIP3    H223949   2.553   4.141   3.171  2.1996 -0.1837  0.2437
  820TIP3   OH223950   6.210   6.229   1.594  0.1240 -0.0306  0.4131
  820TIP3    H123951   6.196   6.135   1.608 -1.2712  0.4132  2.1527
  820TIP3    H223952   6.128   6.261   1.557  1.0201  0.3186 -1.3755
  821TIP3   OH223953   2.813   2.868   2.812 -0.4762 -0.4176 -0.1333
  821TIP3    H123954   2.830   2.871   2.718  1.6779  0.5862  0.2473
  821TIP3    H223955   2.834   2.957   2.842  0.8282 -1.2748  1.5770
  822TIP3   OH223956   5.187   0.785   5.433 -0.1496 -0.6170 -0.4036
  822TIP3    H123957   5.235   0.704   5.415  0.6589 -0.4808  1.0724
  822TIP3    H223958   5.250   0.854   5.411 -0.7630 -0.3860 -1.4546
  823TIP3   OH223959   3.155   5.982   3.080  0.3391  0.1829  0.2372
  823TIP3    H123960   3.209   5.903   3.085 -0.7006 -0.4233  3.5076
  823TIP3    H223961   3.146   6.010   3.171 -2.7122  1.7061 -0.4666
  824TIP3   OH223962   1.968   6.539   1.189  0.1157 -0.1922  0.3373
  824TIP3    H123963   2.054   6.560   1.153  0.1627 -1.2178 -0.1831
  824TIP3    H223964   1.938   6.620   1.230 -0.3940  1.3719 -2.9635
  825TIP3   OH223965   5.326   4.295   5.906  0.2477  0.2212 -0.0559
  825TIP3    H123966   5.286   4.360   5.964  1.4240  0.4663  0.4943
  825TIP3    H223967   5.257   4.229   5.893 -0.4625  0.8340  0.5565
  826TIP3   OH223968   2.629   5.997   4.239  0.0453 -0.4899 -0.1979
  826TIP3    H123969   2.714   6.008   4.281 -0.1384 -2.3401  0.7253
  826TIP3    H223970   2.647   6.004   4.145  0.9197  0.8548  0.0638
  827TIP3   OH223971   2.162   3.782  10.940 -0.3917 -0.4829 -0.7786
  827TIP3    H123972   2.216   3.729  10.881  1.9558  2.8219 -1.7593
  827TIP3    H223973   2.126   3.851  10.884 -1.6098  0.2578  0.8737
  828TIP3   OH223974   2.418   5.908   2.310  0.7408  0.1233  0.2997
  828TIP3    H123975   2.405   5.870   2.223  0.1388  0.9046  0.0345
  828TIP3    H223976   2.428   6.002   2.294  1.4972  0.1675  1.0006
  829TIP3   OH223977   2.967   4.502   4.136 -0.2179 -0.0969 -0.8113
  829TIP3    H123978   2.961   4.596   4.117  2.6808  0.7395  1.8808
  829TIP3    H223979   3.041   4.472   4.083 -0.8493 -0.7653 -1.3133
  830TIP3   OH223980   1.078   3.843  13.043  0.3406 -0.2021  0.1046
  830TIP3    H123981   1.055   3.800  12.961  2.9908 -0.1179 -0.7333
  830TIP3    H223982   1.102   3.771  13.102  2.1401 -0.0796 -0.4399
  831TIP3   OH223983   3.773   4.301   4.354 -0.1616 -0.1554  0.7426
  831TIP3    H123984   3.693   4.353   4.342 -0.3111 -0.7281 -0.8394
  831TIP3    H223985   3.836   4.340   4.295 -0.0425 -1.3025  0.1070
  832TIP3   OH223986   3.206   5.170  12.035  0.7033  0.2351 -0.2172
  832TIP3    H123987   3.130   5.144  11.983 -0.1282  0.0500  1.0883
  832TIP3    H223988   3.231   5.256  12.001  0.4491 -0.0867 -1.2308
  833TIP3   OH223989   4.759   1.124   4.749  0.3230 -0.1650 -0.1006
  833TIP3    H123990   4.736   1.160   4.835 -0.1003  0.2706 -0.3961
  833TIP3    H223991   4.842   1.166   4.726 -0.1239  0.5577 -0.4045
  834TIP3   OH223992   1.909   5.141  14.116 -0.2146  0.2267  0.6160
  834TIP3    H123993   1.882   5.050  14.131  2.3723 -0.3523  2.0740
  834TIP3    H223994   1.978   5.135  14.050 -3.7974  1.7496 -3.4968
  835TIP3   OH223995   3.158   1.310   4.023 -0.0905 -0.0782 -0.9597
  835TIP3    H123996   3.251   1.289   4.024 -0.3004 -1.0691 -0.6707
  835TIP3    H223997   3.151   1.392   3.976  0.8047 -0.6561 -2.1116
  836TIP3   OH223998   2.358   5.386   0.600  0.6584 -0.1901 -0.2365
  836TIP3    H123999   2.274   5.369   0.641 -0.1843  0.6520 -1.5717
  836TIP3    H224000   2.413   5.420   0.670 -0.9834  1.9527  0.0636
  837TIP3   OH224001   0.114   5.029  13.533  0.0524 -0.1155  0.3403
  837TIP3    H124002   0.166   5.109  13.536  0.1116 -0.1507  0.2291
  837TIP3    H224003   0.174   4.961  13.501 -0.3583  0.0797 -0.8545
  838TIP3   OH224004   0.071   6.603  15.855 -0.0958 -0.3742 -1.2505
  838TIP3    H124005   0.092   6.685  15.809  0.9101  0.6022  0.8598
  838TIP3    H224006  -0.024   6.604  15.864 -0.2156 -0.1277 -2.4887
  839TIP3   OH224007   0.884   3.231  16.533  0.1290 -0.3847  0.0452
  839TIP3    H124008   0.827   3.303  16.504  0.2867  0.0448  0.8012
  839TIP3    H224009   0.823   3.159  16.549 -0.1217 -0.1642  0.1043
  840TIP3   OH224010   5.383   3.145   2.011 -0.5299 -0.1760 -0.1266
  840TIP3    H124011   5.333   3.225   1.993 -1.1170 -0.3546  0.6516
  840TIP3    H224012   5.474   3.174   2.015 -0.4898  0.0485 -2.1801
  841TIP3   OH224013   5.013   3.662   0.709  0.2576  0.3218  0.3512
  841TIP3    H124014   5.045   3.651   0.799 -0.3956 -1.1721  0.4136
  841TIP3    H224015   5.082   3.625   0.655 -0.3969 -0.9375  0.3694
  842TIP3   OH224016   6.018   1.108  11.693  0.1579  0.3124  0.2544
  842TIP3    H124017   5.992   1.196  11.664  0.2401  0.5670  0.9393
  842TIP3    H224018   6.000   1.052  11.617 -2.2602  0.5046  0.6278
  843TIP3   OH224019   4.075   1.265   2.454  0.4209  0.5865  0.4291
  843TIP3    H124020   4.036   1.336   2.504 -0.5869  1.4471 -1.5340
  843TIP3    H224021   4.169   1.268   2.476  0.3521  2.4074  0.4790
  844TIP3   OH224022   2.714   1.819   2.448  0.3867  0.3085 -0.1595
  844TIP3    H124023   2.764   1.737   2.450 -0.6520 -0.2940  1.5429
  844TIP3    H224024   2.736   1.857   2.363  0.8937 -1.7275 -0.9855
  845TIP3   OH224025   4.294   4.639  13.305  0.5090  0.4065 -0.3790
  845TIP3    H124026   4.240   4.658  13.229 -1.7107 -2.6298  0.2996
  845TIP3    H224027   4.343   4.560  13.280  1.8179  0.9535  0.3924
  846TIP3   OH224028   4.350   3.197   5.192  0.3831 -0.1608 -0.2166
  846TIP3    H124029   4.370   3.213   5.100 -0.0619 -1.1834 -0.4971
  846TIP3    H224030   4.258   3.168   5.192 -0.2330  1.6540  0.7373
  847TIP3   OH224031   0.568   5.698   2.479 -0.4591  0.1212 -0.7286
  847TIP3    H124032   0.511   5.646   2.422  0.7552 -1.6583 -0.3608
  847TIP3    H224033   0.628   5.634   2.518  0.3655  1.6581  0.5935
  848TIP3   OH224034   3.225   3.022   1.935 -0.1583  0.1569  0.6674
  848TIP3    H124035   3.220   3.081   2.010 -0.5761  2.5462 -1.1655
  848TIP3    H224036   3.153   3.050   1.878  1.5477 -0.0560 -1.6707
  849TIP3   OH224037   1.554   4.611  17.230 -0.5537 -0.3967  0.0717
  849TIP3    H124038   1.520   4.565  17.153 -1.2653  0.9441 -0.4215
  849TIP3    H224039   1.561   4.702  17.203 -0.7810  0.0854  1.5810
  850TIP3   OH224040   5.441   1.049   5.770 -0.1261 -0.3121 -0.7875
  850TIP3    H124041   5.374   1.088   5.826  0.4163 -2.3988  1.4250
  850TIP3    H224042   5.514   1.031   5.830  0.1092 -3.5358 -1.9550
  851TIP3   OH224043   0.322   0.437  11.878 -0.2911 -0.0302 -0.0733
  851TIP3    H124044   0.390   0.469  11.819 -0.7925  1.7221  0.2646
  851TIP3    H224045   0.335   0.489  11.958 -0.5196 -1.3666  0.8370
  852TIP3   OH224046   1.335   0.615   3.145  0.3012 -0.5864 -0.4798
  852TIP3    H124047   1.310   0.572   3.063 -1.0360 -0.2683 -0.2520
  852TIP3    H224048   1.379   0.546   3.195 -0.6463 -1.3320 -0.6598
  853TIP3   OH224049   2.393   3.772  16.868  0.4854  0.2227  0.0102
  853TIP3    H124050   2.385   3.704  16.935 -1.2377 -0.7316 -1.1258
  853TIP3    H224051   2.439   3.728  16.796 -1.2424  0.0279 -0.9971
  854TIP3   OH224052   4.935   5.620   1.064  0.0138  0.3159  0.3418
  854TIP3    H124053   4.985   5.550   1.022  0.2747  1.0119 -0.5004
  854TIP3    H224054   4.851   5.621   1.018  0.4222  1.2970 -0.3732
  855TIP3   OH224055   5.918   1.376  11.824  0.1771 -0.1748  0.4596
  855TIP3    H124056   5.861   1.303  11.848 -1.3453  1.4797  1.9635
  855TIP3    H224057   5.981   1.382  11.896  0.9958 -0.6751 -0.1978
  856TIP3   OH224058   1.248   0.080  13.614  0.7375 -0.3192 -0.6399
  856TIP3    H124059   1.269   0.134  13.690  1.0554 -0.8928 -0.3130
  856TIP3    H224060   1.322   0.091  13.555 -0.9881  2.7517 -2.3765
  857TIP3   OH224061   6.208   2.055   0.655  0.9568  0.1292  0.3860
  857TIP3    H124062   6.190   1.978   0.708  0.1355  0.3258  0.3988
  857TIP3    H224063   6.301   2.048   0.633  0.3961 -2.0361 -1.5058
  858TIP3   OH224064   1.224   4.694   2.320 -0.1617  0.3499 -0.1875
  858TIP3    H124065   1.265   4.780   2.330 -0.8869  0.7324 -0.4425
  858TIP3    H224066   1.287   4.644   2.268  0.6500  0.4425  0.6926
  859TIP3   OH224067   5.942   1.165   0.640  0.7914 -0.3655 -0.5018
  859TIP3    H124068   5.963   1.076   0.614 -1.0587 -1.5085  1.7322
  859TIP3    H224069   5.974   1.172   0.730  1.1290  1.3188 -0.7342
  860TIP3   OH224070   1.113   1.246  16.029 -0.2758  0.0560  0.0644
  860TIP3    H124071   1.077   1.171  16.077  0.6501 -0.8301 -0.6048
  860TIP3    H224072   1.201   1.257  16.066 -0.6059  1.1580  0.5336
  861TIP3   OH224073   3.114   1.662   4.437 -0.4042 -0.2861  0.2589
  861TIP3    H124074   3.045   1.638   4.499  0.3178  0.6379  1.4486
  861TIP3    H224075   3.106   1.598   4.366 -1.7317 -0.9011  0.9443
  862TIP3   OH224076   5.882   1.809   2.753  0.4849 -0.6212 -0.6291
  862TIP3    H124077   5.909   1.738   2.695  0.0383  0.7054 -2.5104
  862TIP3    H224078   5.963   1.852   2.778  0.7825 -1.9518  0.7543
  863TIP3   OH224079   6.270   0.467  12.785 -0.8435 -0.2852  0.5588
  863TIP3    H124080   6.248   0.376  12.767 -0.0050 -0.5078  0.6593
  863TIP3    H224081   6.226   0.516  12.715  0.2530 -0.9305 -0.6230
  864TIP3   OH224082   5.512   2.188   3.977  0.2813  0.4464 -0.2005
  864TIP3    H124083   5.462   2.193   4.059  0.5744  0.7524 -0.0349
  864TIP3    H224084   5.591   2.140   4.000 -0.2113 -0.5714 -0.6085
  865TIP3   OH224085   3.577   5.066  11.815  0.1100 -0.7531 -0.5287
  865TIP3    H124086   3.661   5.095  11.851 -0.4888 -0.9360  1.0577
  865TIP3    H224087   3.592   4.976  11.786  0.4071 -0.8694 -0.0170
  866TIP3   OH224088   4.245   0.571   0.536  0.2638 -0.0635 -0.2645
  866TIP3    H124089   4.273   0.662   0.547 -0.5228  0.1434  0.0742
  866TIP3    H224090   4.325   0.524   0.514  0.9449  0.4643  0.9797
  867TIP3   OH224091   4.789   0.710  13.000 -0.4793 -0.1539 -0.3971
  867TIP3    H124092   4.866   0.759  12.972 -1.1071  0.2446 -1.4528
  867TIP3    H224093   4.783   0.727  13.094  2.2532 -2.3565  0.2245
  868TIP3   OH224094   3.751   1.738   4.704 -0.2036 -0.0551 -0.1474
  868TIP3    H124095   3.700   1.749   4.624 -0.6397  2.7525  0.4384
  868TIP3    H224096   3.688   1.707   4.769 -0.6763  1.1666 -0.0092
  869TIP3   OH224097   1.928   6.217   2.943 -0.2404  0.0145  0.3265
  869TIP3    H124098   1.947   6.136   2.990 -1.6638  0.2047  1.2797
  869TIP3    H224099   1.871   6.190   2.871  1.1205 -0.1364 -0.7036
  870TIP3   OH224100   4.976   3.919   6.788  0.2056 -0.4034  0.8676
  870TIP3    H124101   4.983   4.004   6.744  1.5778 -1.2098 -0.5304
  870TIP3    H224102   4.990   3.939   6.881 -1.5601  1.1665  0.8169
  871TIP3   OH224103   4.080   5.393   2.359 -0.6454  0.3261  0.3015
  871TIP3    H124104   4.096   5.455   2.288  0.8026 -1.2034 -0.7403
  871TIP3    H224105   3.991   5.412   2.388 -0.0406  3.2534  0.3879
  872TIP3   OH224106   2.148   3.355   5.742  0.1529 -0.1009  0.4127
  872TIP3    H124107   2.235   3.394   5.752  0.4723 -0.7551  0.1907
  872TIP3    H224108   2.093   3.427   5.710  0.8631  0.0426 -0.5002
  873TIP3   OH224109   2.054   4.326  14.221 -0.0002 -0.3618 -0.7890
  873TIP3    H124110   2.005   4.255  14.263  1.6748  0.5165  2.8457
  873TIP3    H224111   1.990   4.396  14.211 -0.7096 -0.9927 -0.7497
  874TIP3   OH224112   5.082   1.207   4.043  0.3511  0.4829  0.1076
  874TIP3    H124113   5.164   1.157   4.032 -0.4530 -1.5033  2.6360
  874TIP3    H224114   5.029   1.182   3.967 -0.5967 -3.8066  1.9907
  875TIP3   OH224115   5.544   5.340  15.648  0.4591  0.5625 -0.3008
  875TIP3    H124116   5.567   5.421  15.603 -1.3192  1.0823 -0.3320
  875TIP3    H224117   5.504   5.369  15.730  0.0636 -0.2771 -0.1843
  876TIP3   OH224118   3.301   5.605  15.263 -0.0222 -0.4105  0.5182
  876TIP3    H124119   3.342   5.561  15.188  0.1704  1.2351 -0.3686
  876TIP3    H224120   3.212   5.568  15.266 -0.2906  0.0516 -1.0140
  877TIP3   OH224121   4.791   1.465  15.814 -0.4552  1.0162 -0.6148
  877TIP3    H124122   4.779   1.387  15.868 -1.7867  2.2735  0.9270
  877TIP3    H224123   4.846   1.435  15.741  0.0429 -1.0711  0.5781
  878TIP3   OH224124   3.318   4.716  12.475  0.0313  0.3233  0.3567
  878TIP3    H124125   3.303   4.807  12.500 -0.0233  0.8869 -1.6286
  878TIP3    H224126   3.230   4.679  12.466  0.0361  0.3739  0.1086
  879TIP3   OH224127   3.501   3.959   0.790 -0.5064  0.5508  0.0219
  879TIP3    H124128   3.572   3.995   0.737 -0.5820 -1.2900 -1.3821
  879TIP3    H224129   3.535   3.876   0.821 -1.2084  0.7270  1.2642
  880TIP3   OH224130   2.789   6.397   1.541 -0.6416  0.0515 -0.2582
  880TIP3    H124131   2.794   6.385   1.636  3.7889  0.2571 -0.3504
  880TIP3    H224132   2.795   6.308   1.505  4.4207  0.2630 -0.3512
  881TIP3   OH224133   1.814   1.317   6.437 -0.0827 -0.3456  0.1174
  881TIP3    H124134   1.810   1.378   6.511 -1.9878 -2.2199  1.6694
  881TIP3    H224135   1.757   1.355   6.371  0.2239  0.4830  0.3316
  882TIP3   OH224136   6.424   3.766   4.273 -0.8202  0.4563  0.0273
  882TIP3    H124137   6.483   3.766   4.197  0.6182  2.0590  1.1200
  882TIP3    H224138   6.349   3.713   4.245  0.2735 -0.0317 -2.0575
  883TIP3   OH224139   1.401   5.634  12.734  0.4742  0.3536  0.4439
  883TIP3    H124140   1.340   5.699  12.698 -0.0356 -1.0993 -1.3843
  883TIP3    H224141   1.346   5.573  12.782  0.9513  1.1887  2.1199
  884TIP3   OH224142   5.004   5.157  13.294  0.0814 -0.4168 -0.3618
  884TIP3    H124143   4.936   5.161  13.361  0.3155  1.5392 -0.2021
  884TIP3    H224144   5.081   5.122  13.340  0.2137  0.8280  0.4015
  885TIP3   OH224145   0.438   0.168  16.301 -0.2447  0.0570 -0.3258
  885TIP3    H124146   0.353   0.142  16.263 -0.1905  0.0030 -0.4092
  885TIP3    H224147   0.494   0.181  16.225  0.2278 -1.2880 -0.2293
  886TIP3   OH224148   5.272   2.369  15.964 -0.2122 -0.0293 -0.4403
  886TIP3    H124149   5.180   2.344  15.955  0.0982 -0.4784 -2.5850
  886TIP3    H224150   5.320   2.301  15.918  1.2083  0.1985  0.6721
  887TIP3   OH224151   6.058   2.132  16.778  0.3579 -0.2562 -0.2202
  887TIP3    H124152   6.142   2.164  16.745  0.3193 -2.0225 -2.1298
  887TIP3    H224153   6.014   2.097  16.701 -2.3468  1.0442  0.6713
  888TIP3   OH224154   0.428   1.649  12.162  0.7278  0.0848  0.2289
  888TIP3    H124155   0.350   1.593  12.159  2.0205 -1.8803  1.6364
  888TIP3    H224156   0.448   1.667  12.071 -1.5933  0.9593 -0.1522
  889TIP3   OH224157   6.468   0.669   6.642 -0.1732  0.0243  0.2256
  889TIP3    H124158   6.442   0.639   6.554  0.9928  0.7984 -0.4009
  889TIP3    H224159   6.414   0.746   6.658  1.2196  1.2299 -0.7860
  890TIP3   OH224160   6.177   3.761   3.283 -0.2456  0.3806  0.3397
  890TIP3    H124161   6.239   3.779   3.213 -0.7168 -1.6076 -0.6365
  890TIP3    H224162   6.119   3.837   3.285 -0.6022  0.1843 -1.8357
  891TIP3   OH224163   0.217   1.479   4.827 -0.0231 -0.5256  0.0974
  891TIP3    H124164   0.233   1.560   4.780 -0.5922  0.8137  2.1621
  891TIP3    H224165   0.247   1.496   4.916 -3.4763 -1.3335  1.4938
  892TIP3   OH224166   5.068   3.607   0.957  0.0343  0.3203 -0.1052
  892TIP3    H124167   5.000   3.588   1.021 -1.0303  1.2333 -0.9394
  892TIP3    H224168   5.127   3.668   1.002  1.5499 -2.1187  1.3683
  893TIP3   OH224169   5.348   2.818   4.765  0.1830 -0.4716 -0.0046
  893TIP3    H124170   5.397   2.775   4.835  0.7906 -0.0243 -0.1480
  893TIP3    H224171   5.330   2.906   4.799  0.1343 -0.3851 -0.2503
  894TIP3   OH224172   4.654   6.066  15.829 -0.0946  0.5623 -0.0709
  894TIP3    H124173   4.597   6.120  15.774 -0.7676 -0.8518 -0.7672
  894TIP3    H224174   4.650   5.979  15.790  1.2013  0.0645  0.8931
  895TIP3   OH224175   2.641   3.331   2.308  0.4573  0.1014 -0.1784
  895TIP3    H124176   2.584   3.406   2.328  0.6069  0.9349 -2.7461
  895TIP3    H224177   2.655   3.336   2.214  1.3911 -2.5411 -0.2148
  896TIP3   OH224178   2.211   4.193   6.050  0.2754  0.2750 -0.1292
  896TIP3    H124179   2.171   4.164   6.132  0.9142  0.0754  0.1190
  896TIP3    H224180   2.187   4.285   6.043  0.3196  0.3246  0.3465
  897TIP3   OH224181   2.889   5.164   4.989  0.2620  0.2668  0.7836
  897TIP3    H124182   2.954   5.226   5.023  1.5370 -0.7346  0.2188
  897TIP3    H224183   2.840   5.215   4.925  1.0695  0.8007  0.5716
  898TIP3   OH224184   5.082   3.678   6.437  0.6910  0.1389 -0.2887
  898TIP3    H124185   5.120   3.694   6.351 -0.8573  1.3679 -0.7780
  898TIP3    H224186   5.138   3.611   6.477  0.4978 -1.5981 -2.8576
  899TIP3   OH224187   6.363   2.317  15.922 -0.1132  0.2818 -0.3208
  899TIP3    H124188   6.343   2.410  15.913 -2.0530 -0.1775 -1.1821
  899TIP3    H224189   6.375   2.287  15.832  1.6873 -0.0694  0.0259
  900TIP3   OH224190   6.757   5.451   5.717  0.0284 -0.3852 -0.5172
  900TIP3    H124191   6.846   5.417   5.726  0.3200  0.7973  1.4377
  900TIP3    H224192   6.700   5.374   5.729  0.7221 -0.5595  1.8764
  901TIP3   OH224193   2.238   3.004   1.298 -0.8378  0.0517 -0.1111
  901TIP3    H124194   2.278   2.997   1.211 -1.4795  1.3169 -0.5144
  901TIP3    H224195   2.168   2.939   1.298  0.4663 -1.3727  0.1884
  902TIP3   OH224196   4.123   1.670   6.405 -0.7283 -0.2573  0.1221
  902TIP3    H124197   4.059   1.738   6.385 -1.3828 -0.7413  0.5442
  902TIP3    H224198   4.105   1.646   6.496  0.3470 -0.0910  0.3835
  903TIP3   OH224199   4.471   3.507  16.106 -0.1165  0.1425  0.2367
  903TIP3    H124200   4.482   3.490  16.013  1.7399  0.5793  0.3396
  903TIP3    H224201   4.396   3.565  16.112  0.5433  1.1601 -1.1156
  904TIP3   OH224202   4.874   4.876   2.953  0.7747  0.5651 -0.0539
  904TIP3    H124203   4.825   4.917   2.882 -0.0725  1.3068  0.9543
  904TIP3    H224204   4.905   4.950   3.006 -1.1470 -0.0739  2.0416
  905TIP3   OH224205   1.894   2.059   2.461 -0.5875 -0.0889 -0.4169
  905TIP3    H124206   1.878   2.140   2.510 -0.4783 -0.9433  1.0471
  905TIP3    H224207   1.980   2.072   2.420  0.0001  0.0336  0.8408
  906TIP3   OH224208   3.153   2.317   0.603 -0.4425  0.0248 -0.1824
  906TIP3    H124209   3.182   2.257   0.671  0.0827 -1.1372 -1.4106
  906TIP3    H224210   3.190   2.402   0.628  2.9734 -1.1507 -1.0366
  907TIP3   OH224211   0.538   4.935  16.978  0.0498  0.2453 -0.1170
  907TIP3    H124212   0.491   4.965  17.056  0.2825  1.6453 -0.5059
  907TIP3    H224213   0.611   4.883  17.013  0.3796  1.1878  0.6148
  908TIP3   OH224214   4.203   0.567   6.577 -0.3894 -0.1473 -0.0425
  908TIP3    H124215   4.270   0.543   6.512  0.6656 -0.4809  1.1541
  908TIP3    H224216   4.186   0.486   6.624  0.6374  0.6329  1.7089
  909TIP3   OH224217   2.231   0.443  13.340 -0.2052 -0.1713  0.0524
  909TIP3    H124218   2.302   0.417  13.398 -1.3800 -1.5924  0.8956
  909TIP3    H224219   2.243   0.390  13.261 -0.4126 -0.5395  0.2650
  910TIP3   OH224220   2.498   1.241  14.134  0.0012  0.3545 -0.2687
  910TIP3    H124221   2.588   1.272  14.131 -0.3055  2.0197  4.0179
  910TIP3    H224222   2.503   1.149  14.107  2.9638  0.4502 -0.1892
  911TIP3   OH224223   2.384   6.069  11.377 -0.1983  0.4499  0.0963
  911TIP3    H124224   2.303   6.062  11.427 -0.6978  0.6974 -0.6798
  911TIP3    H224225   2.449   6.022  11.430 -0.3538  2.0384  1.7339
  912TIP3   OH224226   3.870   5.455  11.813 -0.0667 -0.2815  0.4319
  912TIP3    H124227   3.850   5.459  11.906  1.1338 -2.1320  0.7874
  912TIP3    H224228   3.839   5.539  11.778  0.4240  0.8722  2.6793
  913TIP3   OH224229   5.068   4.234  15.176 -0.0987  0.1282 -0.1036
  913TIP3    H124230   5.079   4.273  15.262 -0.6469 -1.1035  0.5463
  913TIP3    H224231   5.107   4.297  15.115  0.3427  0.9782  1.0447
  914TIP3   OH224232   3.827   0.697  13.230  0.0481 -0.5375 -0.8224
  914TIP3    H124233   3.794   0.623  13.179  0.9503 -0.2472 -1.8500
  914TIP3    H224234   3.846   0.764  13.164 -0.3311  0.4462  0.0596
  915TIP3   OH224235   4.999   5.517   5.624 -0.1446 -0.0363  0.6538
  915TIP3    H124236   5.065   5.457   5.661 -0.1179  0.5931  1.6542
  915TIP3    H224237   5.022   5.602   5.661  0.4339  0.7823 -1.5726
  916TIP3   OH224238   0.678   2.855   1.881 -0.0468 -0.4876 -0.0970
  916TIP3    H124239   0.759   2.906   1.878 -0.6758  0.6701  1.4687
  916TIP3    H224240   0.675   2.821   1.970 -0.4275 -1.9834 -0.6692
  917TIP3   OH224241   4.381   1.246   3.281  0.1068 -0.0670  0.5240
  917TIP3    H124242   4.381   1.219   3.189  1.0375  2.2528 -0.2158
  917TIP3    H224243   4.296   1.290   3.293 -0.5795 -1.5565  1.1594
  918TIP3   OH224244   6.091   3.019   3.240 -0.3331  0.0986  0.1897
  918TIP3    H124245   6.022   3.085   3.237 -0.4630  0.0381  1.6368
  918TIP3    H224246   6.085   2.980   3.328  1.4253 -0.0251  0.2865
  919TIP3   OH224247   1.282   2.524  12.103  0.2231 -0.6473  0.5501
  919TIP3    H124248   1.253   2.513  12.012 -1.4804  0.2021  0.9849
  919TIP3    H224249   1.229   2.462  12.153 -0.2654  0.2997  1.2282
  920TIP3   OH224250   1.684   3.086  13.402  0.5751  0.0759  0.6510
  920TIP3    H124251   1.661   3.000  13.436 -1.9726  0.7794  0.8767
  920TIP3    H224252   1.612   3.143  13.431  1.2832  1.8916 -1.0155
  921TIP3   OH224253   6.182   1.902   3.589 -0.7012 -0.0897  0.4441
  921TIP3    H124254   6.265   1.877   3.629 -0.7646  1.9926  1.9813
  921TIP3    H224255   6.199   1.900   3.495  0.9241 -0.2409  0.7257
  922TIP3   OH224256   6.374   6.038   2.491 -0.0909 -0.1925 -0.2737
  922TIP3    H124257   6.359   6.097   2.417 -1.6676 -0.1729  0.0415
  922TIP3    H224258   6.343   6.088   2.567 -1.4414 -1.4211 -0.0035
  923TIP3   OH224259   4.408   2.783  12.049 -0.4245  0.6925 -0.8839
  923TIP3    H124260   4.377   2.874  12.052  1.1576  1.1947  0.8634
  923TIP3    H224261   4.328   2.731  12.050 -1.3173  2.0414 -0.0718
  924TIP3   OH224262   0.053   1.407   0.019 -0.3767 -0.2179  0.1580
  924TIP3    H124263   0.126   1.425  -0.040  0.1705  0.4152  1.0389
  924TIP3    H224264   0.027   1.493   0.053 -1.3243 -0.4711  0.0958
  925TIP3   OH224265   3.694   3.984  15.945 -0.0639  0.2852  0.4040
  925TIP3    H124266   3.751   4.028  16.008  1.3352  0.0442 -0.6513
  925TIP3    H224267   3.658   3.909  15.992  2.0034 -0.6564  0.5444
  926TIP3   OH224268   5.503   5.896   2.697 -0.1466 -0.0549  0.1190
  926TIP3    H124269   5.457   5.960   2.752 -0.6528 -0.6842  0.4250
  926TIP3    H224270   5.439   5.827   2.681  0.5259 -0.6795  0.1150
  927TIP3   OH224271   4.155   3.344  16.087 -0.3205 -0.5280  0.5239
  927TIP3    H124272   4.199   3.303  16.012 -1.4821 -1.1341  0.1668
  927TIP3    H224273   4.129   3.431  16.055  2.6956  0.8022  1.4773
  928TIP3   OH224274   6.223   5.870   0.319  0.0122 -0.0318  0.3208
  928TIP3    H124275   6.301   5.904   0.363 -0.4042  1.4393 -0.0236
  928TIP3    H224276   6.224   5.912   0.233 -0.6954 -0.6797 -0.0111
  929TIP3   OH224277   1.685   5.681  13.003  0.0415  0.1055  0.2257
  929TIP3    H124278   1.693   5.755  12.943 -0.8982 -0.5583 -0.7259
  929TIP3    H224279   1.610   5.703  13.058  0.9741  0.7686  1.2543
  930TIP3   OH224280   3.686   5.325   1.525 -0.2024 -0.0641 -0.1087
  930TIP3    H124281   3.642   5.302   1.607  2.1638  0.1496  1.2819
  930TIP3    H224282   3.704   5.419   1.534 -1.1346  0.2470 -1.4766
  931TIP3   OH224283   0.074   0.671  14.050 -0.1122 -0.5937 -0.3038
  931TIP3    H124284   0.076   0.766  14.059 -0.1675 -0.6567  0.4312
  931TIP3    H224285   0.108   0.654  13.962 -2.1719  0.2164 -1.2842
  932TIP3   OH224286   1.461   4.378   1.418 -0.0039 -0.0320  0.5251
  932TIP3    H124287   1.554   4.359   1.421  0.0329 -0.3809 -1.5416
  932TIP3    H224288   1.452   4.465   1.456  1.2181  0.1808  0.3394
  933TIP3   OH224289   2.317   4.353   4.532  0.5435  0.3822  0.1845
  933TIP3    H124290   2.264   4.405   4.592  0.2684 -1.3017  1.4335
  933TIP3    H224291   2.294   4.386   4.445 -0.8738  1.1736  0.8392
  934TIP3   OH224292   2.637   3.366  14.306 -0.0985 -0.5162 -0.4348
  934TIP3    H124293   2.715   3.342  14.356  1.0034  0.8123 -1.4873
  934TIP3    H224294   2.642   3.313  14.226 -1.3818 -1.9546  0.3868
  935TIP3   OH224295   5.301   1.567   5.421 -0.8704  1.1718  0.2152
  935TIP3    H124296   5.305   1.563   5.325  3.1601  1.0616  0.3150
  935TIP3    H224297   5.299   1.476   5.449  2.4178  1.0771  0.2928
  936TIP3   OH224298   5.647   5.204   5.845 -0.1798 -0.2148 -0.3486
  936TIP3    H124299   5.691   5.229   5.926 -0.4931 -2.8877  0.6994
  936TIP3    H224300   5.557   5.234   5.855 -0.5851 -1.8101  0.9307
  937TIP3   OH224301   4.013   5.804  12.901  0.4629 -0.1132  0.0364
  937TIP3    H124302   3.974   5.851  12.828  0.4402  1.3227  0.9486
  937TIP3    H224303   4.095   5.769  12.866 -0.4344 -1.0051 -1.1797
  938TIP3   OH224304   0.857   4.154   4.108  0.9439 -0.0017  0.0312
  938TIP3    H124305   0.857   4.197   4.022  2.7261 -0.3773 -0.1761
  938TIP3    H224306   0.777   4.187   4.151  0.8332  1.3757 -1.1702
  939TIP3   OH224307   6.200   0.221  12.698 -0.5325  0.4641  0.2433
  939TIP3    H124308   6.129   0.193  12.756 -0.3929  0.7601  0.5651
  939TIP3    H224309   6.260   0.147  12.695 -0.8946  0.1838 -0.0944
  940TIP3   OH224310   0.515   4.751  12.010  0.4593  0.0683  0.4595
  940TIP3    H124311   0.435   4.805  12.011 -0.1118 -0.7480 -0.5213
  940TIP3    H224312   0.507   4.695  12.087  1.0261  1.3080  1.4561
  941TIP3   OH224313   2.349   2.770   2.990 -0.0424  0.0902  0.7113
  941TIP3    H124314   2.348   2.735   2.901  2.7281  0.1352  0.6273
  941TIP3    H224315   2.362   2.693   3.046 -0.2321  0.2398  0.9616
  942TIP3   OH224316   0.402   5.259  14.880  0.1534 -0.2347 -0.0657
  942TIP3    H124317   0.496   5.277  14.888 -0.1546  1.2193  0.5259
  942TIP3    H224318   0.382   5.279  14.789  0.5484 -1.2281 -0.3742
  943TIP3   OH224319   2.270   2.389  15.070  0.6384  0.6211 -0.1285
  943TIP3    H124320   2.259   2.294  15.070  2.2107  0.4249  0.1005
  943TIP3    H224321   2.223   2.419  14.992 -1.8377 -0.0808  1.0405
  944TIP3   OH224322   5.191   6.036   6.245  0.0084 -0.5073  0.0499
  944TIP3    H124323   5.272   6.084   6.228 -0.2106  0.2385  1.0703
  944TIP3    H224324   5.162   6.008   6.158  0.6846  0.3117 -0.4598
  945TIP3   OH224325   4.400   5.316   5.880  0.0451 -0.3730  0.2554
  945TIP3    H124326   4.437   5.331   5.967  3.3760  0.0035 -1.1619
  945TIP3    H224327   4.411   5.399   5.834  0.2911 -1.2062 -1.2158
  946TIP3   OH224328   5.232   0.914   5.070 -0.2780 -0.0406 -0.1869
  946TIP3    H124329   5.151   0.960   5.047  1.3731  2.7591 -0.5187
  946TIP3    H224330   5.250   0.858   4.994 -1.4505 -0.0725 -0.4527
  947TIP3   OH224331   4.165   0.517  15.738 -0.5961  0.1491  0.2407
  947TIP3    H124332   4.200   0.586  15.796 -1.1206  0.7016 -0.0990
  947TIP3    H224333   4.104   0.562  15.681 -0.9018 -0.5985 -0.0276
  948TIP3   OH224334   1.167   3.540  10.660  0.6660  0.2007  0.4257
  948TIP3    H124335   1.173   3.539  10.565  0.9848  0.2569  0.4448
  948TIP3    H224336   1.170   3.448  10.685  2.7393  0.2582  0.5073
  949TIP3   OH224337   5.297   5.620  16.080 -0.2293 -0.0716 -0.2313
  949TIP3    H124338   5.270   5.548  16.023 -1.3119  0.2590 -0.1554
  949TIP3    H224339   5.366   5.665  16.031 -1.3524  0.3961 -1.4513
  950TIP3   OH224340   5.637   0.536   2.089 -0.2592  0.5967  0.3614
  950TIP3    H124341   5.619   0.620   2.047 -0.7839 -0.3948 -1.4741
  950TIP3    H224342   5.553   0.508   2.124  0.3298  1.7820  2.8362
  951TIP3   OH224343   0.096   4.934   5.457  0.1514 -0.0569 -0.4625
  951TIP3    H124344   0.152   5.007   5.486  1.3733 -0.8713 -0.7188
  951TIP3    H224345   0.011   4.974   5.441  0.4240  1.0553  0.8010
  952TIP3   OH224346   6.599   0.259  10.674  0.1357  0.2652  0.0566
  952TIP3    H124347   6.560   0.222  10.754 -0.9009  2.3763  0.5772
  952TIP3    H224348   6.677   0.304  10.704  0.4778 -0.0573 -0.3340
  953TIP3   OH224349   3.097   2.341  14.598  0.1612 -0.1040 -1.1387
  953TIP3    H124350   3.068   2.379  14.516 -0.6561  1.5971 -0.0804
  953TIP3    H224351   3.191   2.330  14.587  0.5202  2.7581 -1.2824
  954TIP3   OH224352   6.122   2.370  11.572 -0.0484 -0.5490  0.2999
  954TIP3    H124353   6.038   2.354  11.616  0.9346  1.0329  2.8920
  954TIP3    H224354   6.110   2.453  11.527  0.0041 -0.5240  0.3320
  955TIP3   OH224355   6.051   5.919  16.444  0.1587 -0.5747  0.1707
  955TIP3    H124356   6.093   5.941  16.360 -0.1063 -1.9320 -0.3379
  955TIP3    H224357   5.958   5.934  16.428  0.3476  1.5500  1.0081
  956TIP3   OH224358   1.234   0.904  16.577  0.1658  0.0291 -0.0570
  956TIP3    H124359   1.180   0.981  16.595 -0.8406 -0.2242 -1.8354
  956TIP3    H224360   1.323   0.938  16.569  0.0045  0.7233  1.0605
  957TIP3   OH224361   2.159   6.722  11.661  0.0792 -0.7457  0.1984
  957TIP3    H124362   2.185   6.658  11.595  0.8511 -0.5478  0.3008
  957TIP3    H224363   2.067   6.702  11.680 -0.6714  0.2152 -2.1336
  958TIP3   OH224364   1.457   3.392   5.001  0.2045 -0.6507  0.3261
  958TIP3    H124365   1.492   3.480   4.984  0.3248 -0.9205 -0.8262
  958TIP3    H224366   1.478   3.342   4.923  1.1407 -2.0238  1.4287
  959TIP3   OH224367   0.391   6.659   6.339  0.1429 -0.1235  0.8887
  959TIP3    H124368   0.478   6.622   6.325 -0.2120 -0.0418 -1.7435
  959TIP3    H224369   0.392   6.742   6.290 -1.1807  0.2332  1.4327
  960TIP3   OH224370   5.797   0.397  10.430  0.8753 -0.0738  0.1093
  960TIP3    H124371   5.884   0.436  10.423  1.6163 -1.9198 -1.5551
  960TIP3    H224372   5.814   0.308  10.459 -0.5816  0.0111  1.2330
  961TIP3   OH224373   5.835   0.464  16.553  0.0400 -0.0479  0.1902
  961TIP3    H124374   5.823   0.533  16.619 -1.0845 -0.2024  0.1566
  961TIP3    H224375   5.930   0.454  16.546  0.2417  1.7591 -0.0735
  962TIP3   OH224376   0.068   0.745   1.511  0.4253  0.1499  0.2657
  962TIP3    H124377  -0.009   0.751   1.569  1.0775 -1.2025  1.3001
  962TIP3    H224378   0.069   0.654   1.482  0.4877  0.6620 -1.3711
  963TIP3   OH224379   2.296   1.718   1.571 -0.0255 -0.8341  0.2643
  963TIP3    H124380   2.298   1.697   1.664  1.6373 -0.8163  0.2429
  963TIP3    H224381   2.287   1.634   1.527  0.4319 -0.9529  0.3986
  964TIP3   OH224382   1.393   3.755   4.082 -0.0152  0.7050  0.1427
  964TIP3    H124383   1.427   3.678   4.036 -2.7058  0.0903 -0.9189
  964TIP3    H224384   1.398   3.825   4.017 -1.9595  0.2975 -0.4822
  965TIP3   OH224385   1.439   2.017   0.188  0.1196  0.1626 -0.7425
  965TIP3    H124386   1.456   2.104   0.224 -0.9638 -0.2080  0.7187
  965TIP3    H224387   1.349   2.021   0.156  0.7877  0.2272 -2.7005
  966TIP3   OH224388   4.703   1.660  15.191  0.1380  0.1743  0.2013
  966TIP3    H124389   4.665   1.735  15.146 -2.2409 -1.6738 -0.9898
  966TIP3    H224390   4.653   1.585  15.159  1.1395 -1.6998  2.8480
  967TIP3   OH224391   3.979   1.968   6.459  0.3111  0.5114  0.9980
  967TIP3    H124392   3.923   2.045   6.467  0.1095  0.5505 -0.5844
  967TIP3    H224393   3.918   1.895   6.452  0.3501  0.6998 -2.2855
  968TIP3   OH224394   3.593   4.321  12.540 -0.5084 -0.3520  0.3694
  968TIP3    H124395   3.658   4.386  12.513 -0.9488  0.2482  0.7463
  968TIP3    H224396   3.570   4.276  12.459 -1.6948  1.3294 -0.2828
  969TIP3   OH224397   3.985   1.431  17.268  0.3755  0.2931 -0.5403
  969TIP3    H124398   4.051   1.375  17.310  0.3202 -0.0948 -0.9543
  969TIP3    H224399   4.028   1.515  17.257  0.1188  0.6352  1.0087
  970TIP3   OH224400   4.094   5.213   1.008 -0.0773 -0.3199 -0.4607
  970TIP3    H124401   4.185   5.224   0.978 -0.8520 -0.1048 -2.8509
  970TIP3    H224402   4.044   5.201   0.928 -2.0933 -1.0889  0.8820
  971TIP3   OH224403   0.529   0.546  11.712 -0.0985  0.7829 -0.1561
  971TIP3    H124404   0.624   0.543  11.696 -0.4486  0.5549 -2.3449
  971TIP3    H224405   0.508   0.640  11.711  0.1999  0.8717  1.0411
  972TIP3   OH224406   0.216   5.803  13.489 -0.0955  0.1045  0.6284
  972TIP3    H124407   0.299   5.850  13.490 -0.2876  0.4433  2.5372
  972TIP3    H224408   0.176   5.822  13.574 -0.9222 -2.1749  0.7983
  973TIP3   OH224409   5.029   5.444   0.883  1.1783  0.4347 -0.5309
  973TIP3    H124410   4.992   5.429   0.796 -0.8366 -0.4432  0.4343
  973TIP3    H224411   5.110   5.393   0.884  1.0216  0.1501 -1.7579
  974TIP3   OH224412   2.309   2.548   0.594 -0.3003 -0.4330  0.1810
  974TIP3    H124413   2.251   2.623   0.582 -0.0853 -0.7172 -2.9945
  974TIP3    H224414   2.265   2.493   0.660 -1.9004  1.0273  0.3464
  975TIP3   OH224415   2.255   6.801  14.655 -0.9129  0.1221  0.3944
  975TIP3    H124416   2.241   6.884  14.700 -1.1122  0.3716 -0.1171
  975TIP3    H224417   2.303   6.747  14.717  0.8650  1.2862  0.0719
  976TIP3   OH224418   0.950   5.120  12.963 -0.8546  0.5166 -0.2353
  976TIP3    H124419   0.954   5.025  12.964 -0.8958  0.5301  1.3253
  976TIP3    H224420   0.918   5.142  12.875 -1.4934 -0.9179 -0.3638
  977TIP3   OH224421   4.008   6.044  17.058 -0.5043  0.1561 -0.4250
  977TIP3    H124422   3.960   6.023  16.978  1.9857  1.2589 -2.2908
  977TIP3    H224423   3.992   6.137  17.072 -3.1732 -0.6015  1.9922
  978TIP3   OH224424   1.647   0.767   1.182  0.0885 -0.9370  0.0697
  978TIP3    H124425   1.686   0.689   1.224  0.2411 -0.3526  1.0415
  978TIP3    H224426   1.677   0.762   1.091 -1.4330 -3.0079 -0.3754
  979TIP3   OH224427   0.710   0.012   1.502  0.4336 -0.5954  0.4993
  979TIP3    H124428   0.629   0.005   1.552 -0.0408 -0.7685 -0.2810
  979TIP3    H224429   0.683   0.001   1.411  1.2400  0.0237  0.1770
  980TIP3   OH224430   3.563   1.054  11.219  0.0833 -0.3224  0.5053
  980TIP3    H124431   3.654   1.084  11.215  0.8019 -2.5825 -1.4162
  980TIP3    H224432   3.530   1.063  11.129 -1.2014 -0.6288  0.9308
  981TIP3   OH224433   0.416   5.842  12.098  0.0383  0.1954  0.6421
  981TIP3    H124434   0.380   5.764  12.056 -2.3862  0.8793  1.3769
  981TIP3    H224435   0.474   5.809  12.166  0.7208 -0.9419 -0.4810
  982TIP3   OH224436   5.551   0.303   1.220 -0.4003 -0.3805 -0.1713
  982TIP3    H124437   5.556   0.398   1.220 -1.0491 -0.3455  0.1407
  982TIP3    H224438   5.594   0.277   1.302 -0.7237 -0.3263  0.0175
  983TIP3   OH224439   1.116   0.422  17.055  0.1017  0.2669 -0.5039
  983TIP3    H124440   1.176   0.477  17.107  0.3614  0.3466 -0.8826
  983TIP3    H224441   1.038   0.476  17.044 -0.4226 -0.2135  0.8207
  984TIP3   OH224442   0.512   5.458  14.202  0.5470 -0.0389  0.0653
  984TIP3    H124443   0.543   5.408  14.278 -0.1904  1.1090  1.1325
  984TIP3    H224444   0.475   5.538  14.239  2.6880  1.8273 -1.6800
  985TIP3   OH224445   2.189   5.764   3.877 -0.1718  0.2120 -0.8827
  985TIP3    H124446   2.146   5.836   3.831 -0.4821  0.3134 -0.4391
  985TIP3    H224447   2.119   5.723   3.927  0.1158 -0.0565 -0.7007
  986TIP3   OH224448   2.918   4.391  16.682  0.1122 -0.2236  0.0252
  986TIP3    H124449   2.992   4.383  16.623  1.7599 -1.0361  2.1395
  986TIP3    H224450   2.844   4.356  16.633  1.1540  0.3645 -2.0193
  987TIP3   OH224451   0.690   5.478   1.394  0.6026  0.3383 -0.5160
  987TIP3    H124452   0.770   5.431   1.371 -0.1909 -0.1508 -2.4121
  987TIP3    H224453   0.628   5.456   1.324 -1.1451  0.8245  0.8237
  988TIP3   OH224454   5.062   2.589  12.152  0.3561 -0.1115  0.0479
  988TIP3    H124455   5.010   2.636  12.086  0.7775 -0.0216 -0.2184
  988TIP3    H224456   5.028   2.620  12.236  0.0919  0.0748 -0.1253
  989TIP3   OH224457   6.227   4.373  16.124  0.2562  0.4131  0.7245
  989TIP3    H124458   6.177   4.365  16.044 -1.2230  0.0872  1.6639
  989TIP3    H224459   6.263   4.462  16.122  0.9468  0.1143 -0.6855
  990TIP3   OH224460   5.085   5.215  12.425  0.1135  0.3339 -0.2866
  990TIP3    H124461   5.135   5.222  12.344 -0.9233  1.8771 -0.8006
  990TIP3    H224462   5.139   5.261  12.490  0.6255 -0.3279 -0.2334
  991TIP3   OH224463   4.493   3.446  15.833 -0.5313  0.0521  0.1771
  991TIP3    H124464   4.511   3.540  15.842  1.1237 -0.2696  0.3775
  991TIP3    H224465   4.560   3.414  15.774 -1.3763 -0.9331 -0.2666
  992TIP3   OH224466   1.457   4.547   4.271  0.1586 -0.3215  0.1200
  992TIP3    H124467   1.372   4.591   4.269 -0.1721 -0.9602 -0.1070
  992TIP3    H224468   1.466   4.507   4.184  0.2221 -1.1307  0.4969
  993TIP3   OH224469   4.046   2.853  16.517 -0.0164  0.1429  0.1300
  993TIP3    H124470   3.991   2.839  16.594  0.4118 -1.1998  0.1990
  993TIP3    H224471   4.111   2.917  16.546  2.0011 -2.6022  1.8366
  994TIP3   OH224472   2.181   4.030  15.601  0.6088 -0.3841  0.1564
  994TIP3    H124473   2.087   4.047  15.608  0.8594  0.6131  1.2793
  994TIP3    H224474   2.213   4.097  15.539  0.8536  0.3779  1.0976
  995TIP3   OH224475   6.615   4.223   4.735 -0.4847  0.1622  0.6672
  995TIP3    H124476   6.535   4.276   4.730 -0.6531 -0.0186  1.4744
  995TIP3    H224477   6.588   4.136   4.706 -0.5348  0.1500  0.7501
  996TIP3   OH224478   6.395   2.711  14.186 -0.0535  0.0496 -0.8337
  996TIP3    H124479   6.471   2.687  14.133  1.0905  1.9293 -0.1322
  996TIP3    H224480   6.417   2.681  14.274  0.5870  1.9680 -0.3195
  997TIP3   OH224481   5.788   5.424  14.143 -0.3595 -0.1465 -0.1537
  997TIP3    H124482   5.823   5.378  14.219 -1.3561 -0.0487  0.3717
  997TIP3    H224483   5.785   5.516  14.169 -1.4626 -0.2167 -0.0114
  998TIP3   OH224484   4.714   2.578  14.372 -0.0064  0.8431 -0.1831
  998TIP3    H124485   4.678   2.635  14.439 -0.7559  1.5243 -1.1530
  998TIP3    H224486   4.804   2.562  14.399 -0.7016 -0.0256  1.7201
  999TIP3   OH224487   6.623   0.962  14.038 -0.2727  0.1693  0.6071
  999TIP3    H124488   6.619   1.055  14.060  0.1671  0.3550 -0.0800
  999TIP3    H224489   6.653   0.920  14.118 -1.6684  0.4663  1.3105
 1000TIP3   OH224490   0.082   6.601  14.518  0.3202  0.3211 -0.2395
 1000TIP3    H124491   0.057   6.536  14.583  2.2006  1.3297  1.5358
 1000TIP3    H224492   0.021   6.674  14.531 -0.2249 -0.0739 -0.5844
 1001TIP3   OH224493   6.175   2.428   5.544  0.0779  0.0186 -0.3427
 1001TIP3    H124494   6.088   2.388   5.543 -0.3997  1.0410  0.0037
 1001TIP3    H224495   6.184   2.468   5.458 -1.0768  2.6163  0.7006
 1002TIP3   OH224496   4.503   2.725   4.767  0.7683 -0.0616 -0.0122
 1002TIP3    H124497   4.524   2.812   4.801  0.5425 -0.5756  1.4901
 1002TIP3    H224498   4.550   2.665   4.825 -1.1825 -1.0359  0.5784
 1003TIP3   OH224499   5.299   5.094   4.774 -0.2790 -0.0245 -0.0535
 1003TIP3    H124500   5.236   5.078   4.844  0.0282 -0.6274  0.0948
 1003TIP3    H224501   5.348   5.012   4.768  1.1104  0.7661  0.4612
 1004TIP3   OH224502   4.097   1.695  17.177 -0.3987 -0.2378 -0.1460
 1004TIP3    H124503   4.167   1.643  17.137 -0.1962 -0.1126  0.0437
 1004TIP3    H224504   4.030   1.701  17.109  0.4105  0.8864 -0.8605
 1005TIP3   OH224505   2.646   0.316  14.412  0.1618 -0.7364 -0.1777
 1005TIP3    H124506   2.579   0.265  14.459 -0.9499  1.2619  0.4731
 1005TIP3    H224507   2.645   0.280  14.323 -2.4037 -0.1732 -0.4134
 1006TIP3   OH224508   6.680   0.875  17.044 -0.3778 -0.2988  0.2094
 1006TIP3    H124509   6.745   0.870  16.974 -0.3398  0.7084  0.1707
 1006TIP3    H224510   6.726   0.914  17.118 -0.6222 -0.6589  0.5520
 1007TIP3   OH224511   2.515   1.698   5.230 -0.2657  0.4308 -0.0054
 1007TIP3    H124512   2.531   1.681   5.138 -0.0119 -2.5424  0.5440
 1007TIP3    H224513   2.600   1.690   5.272 -0.6705 -0.0479  0.7406
 1008TIP3   OH224514   1.201   1.156   3.856  0.4439 -0.5457 -0.6797
 1008TIP3    H124515   1.220   1.092   3.787 -0.4086 -0.0114 -1.4161
 1008TIP3    H224516   1.108   1.177   3.844  0.4428 -0.0052  0.2603
 1009TIP3   OH224517   0.269   1.373  12.715  0.3647  0.1442  0.3270
 1009TIP3    H124518   0.236   1.347  12.801  0.5678  1.4709  0.8143
 1009TIP3    H224519   0.199   1.349  12.655  2.1735 -5.4329  0.1326
 1010TIP3   OH224520   4.972   1.325  16.584  0.1673 -0.5529  0.2819
 1010TIP3    H124521   5.029   1.249  16.592 -0.4325 -1.0687 -0.2021
 1010TIP3    H224522   4.894   1.291  16.539  0.5096  0.6518 -1.2795
 1011TIP3   OH224523   2.750   1.098   2.973 -0.5052  0.2579 -0.0274
 1011TIP3    H124524   2.841   1.073   2.954 -0.6155 -0.2914  0.1723
 1011TIP3    H224525   2.751   1.127   3.064 -0.8741 -1.4176  0.5224
 1012TIP3   OH224526   2.437   0.303   6.049 -0.3451 -0.0348 -0.2363
 1012TIP3    H124527   2.480   0.274   6.129 -1.7690 -1.9048 -0.0914
 1012TIP3    H224528   2.464   0.394   6.038 -0.7712  0.5244  2.8122
 1013TIP3   OH224529   6.386   6.338   0.213  0.0358  0.0667  0.3218
 1013TIP3    H124530   6.379   6.432   0.230 -0.2905  0.1819 -0.4291
 1013TIP3    H224531   6.396   6.298   0.299 -3.1833  0.4987  0.9217
 1014TIP3   OH224532   6.065   0.870   5.707  0.4803 -0.1370  0.3682
 1014TIP3    H124533   5.979   0.892   5.743  0.4086  0.5220 -0.2030
 1014TIP3    H224534   6.054   0.782   5.670 -0.7681  1.1279 -2.3609
 1015TIP3   OH224535   0.905   0.681  13.333  0.0944  0.1678 -0.1558
 1015TIP3    H124536   0.834   0.666  13.270 -0.6559  0.9910  0.4854
 1015TIP3    H224537   0.889   0.770  13.366  2.2707  0.9429 -1.0992
 1016TIP3   OH224538   2.928   6.179   2.540  0.1590 -0.4258 -0.2729
 1016TIP3    H124539   2.932   6.247   2.473  0.8834 -0.8247 -0.6368
 1016TIP3    H224540   2.837   6.179   2.569 -0.2072 -0.4096 -1.4139
 1017TIP3   OH224541   1.675   4.326  13.444 -0.1477 -0.2461  0.0278
 1017TIP3    H124542   1.740   4.278  13.393 -1.7379 -2.1965 -0.1949
 1017TIP3    H224543   1.708   4.324  13.533  1.7276  1.6118 -0.5891
 1018TIP3   OH224544   4.556   3.994   6.224  0.0567 -0.7476  0.1621
 1018TIP3    H124545   4.608   4.031   6.296 -1.3629 -1.6674  1.7126
 1018TIP3    H224546   4.570   3.900   6.230 -1.7661 -1.0230  0.6323
 1019TIP3   OH224547   1.595   3.048  12.981 -0.1605  0.0562  0.3443
 1019TIP3    H124548   1.628   3.133  13.012 -0.7205  0.5570 -0.4211
 1019TIP3    H224549   1.505   3.045  13.014 -0.2483 -0.1004  0.0827
 1020TIP3   OH224550   2.064   2.505   0.191  0.1455  0.3568  0.2429
 1020TIP3    H124551   2.052   2.532   0.282  0.6290  3.8622 -0.6619
 1020TIP3    H224552   1.980   2.526   0.150  0.9801  1.7583 -0.7760
 1021TIP3   OH224553   1.433   4.005  14.807  0.1553  0.0843  0.4669
 1021TIP3    H124554   1.523   4.005  14.837 -0.1455  0.1575  1.3913
 1021TIP3    H224555   1.385   3.959  14.875 -0.1092 -2.2721 -1.2475
 1022TIP3   OH224556   6.454   2.767   1.266  0.1656  0.3607 -0.4996
 1022TIP3    H124557   6.527   2.765   1.326 -1.7873  1.7231  2.0079
 1022TIP3    H224558   6.481   2.827   1.196  0.8665  1.9878  1.1510
 1023TIP3   OH224559   0.658   4.725  16.346  0.7576 -0.3134  0.4030
 1023TIP3    H124560   0.639   4.789  16.278 -0.4796 -0.1967  0.8491
 1023TIP3    H224561   0.742   4.686  16.320 -0.0123 -0.7259 -1.5118
 1024TIP3   OH224562   4.266   6.671  14.587  0.1937 -0.0448 -0.6559
 1024TIP3    H124563   4.302   6.638  14.669 -0.5472  0.3931 -0.1443
 1024TIP3    H224564   4.177   6.635  14.583  0.7366 -1.2600 -1.9948
 1025TIP3   OH224565   3.788   1.023   3.440  0.2132  0.3596 -0.6533
 1025TIP3    H124566   3.776   1.099   3.383  0.7939  1.6796  0.9450
 1025TIP3    H224567   3.750   1.049   3.524 -0.7829 -1.6257 -0.4536
 1026TIP3   OH224568   1.661   1.635   5.294 -0.3681  0.6899 -0.3122
 1026TIP3    H124569   1.602   1.703   5.326 -1.5377 -0.3817 -0.1145
 1026TIP3    H224570   1.602   1.569   5.256  0.6549 -0.7153  0.4809
 1027TIP3   OH224571   2.754   5.295  16.709 -0.1178 -0.4233  0.8897
 1027TIP3    H124572   2.722   5.207  16.726  2.2154 -1.0587  2.2713
 1027TIP3    H224573   2.811   5.286  16.632  0.5861 -0.2673  1.3813
 1028TIP3   OH224574   5.411   4.558  13.399 -0.3874  0.0601 -0.1455
 1028TIP3    H124575   5.344   4.519  13.456 -1.4050  0.5344 -0.9936
 1028TIP3    H224576   5.494   4.522  13.431 -0.8417  1.1787  2.3312
 1029TIP3   OH224577   3.354   4.908  14.601  0.6087  0.4032 -0.2074
 1029TIP3    H124578   3.437   4.952  14.580  2.4458 -3.2717 -1.0172
 1029TIP3    H224579   3.313   4.892  14.517 -1.1670  2.5327  0.2162
 1030TIP3   OH224580   1.827   2.619   0.396 -0.4268  0.2675  0.7868
 1030TIP3    H124581   1.791   2.561   0.463 -0.5370  0.0482  0.5430
 1030TIP3    H224582   1.802   2.577   0.313 -0.9267  0.9189  0.6005
 1031TIP3   OH224583   2.915   2.484   5.723 -0.5170  0.0778 -0.4022
 1031TIP3    H124584   3.004   2.511   5.745 -0.8816 -0.8051  2.4244
 1031TIP3    H224585   2.925   2.395   5.688 -0.4638 -1.0579  2.3539
 1032TIP3   OH224586   1.546   4.016   0.927  0.0635 -0.6407 -0.3666
 1032TIP3    H124587   1.554   4.076   0.853 -1.3275 -0.7174 -0.5982
 1032TIP3    H224588   1.636   3.993   0.950  0.5225 -0.1351 -1.6360
 1033TIP3   OH224589   0.502   0.649  15.426 -0.1477 -0.1685  0.6985
 1033TIP3    H124590   0.460   0.732  15.402 -0.1224  0.3068  2.2053
 1033TIP3    H224591   0.595   0.666  15.414 -0.2039 -0.3031  0.0578
 1034TIP3   OH224592   6.516   6.749   0.024  0.5309  0.8360 -0.1019
 1034TIP3    H124593   6.468   6.768   0.105 -1.0082 -1.4570 -0.4123
 1034TIP3    H224594   6.607   6.742   0.052  0.1525  1.0544  1.2570
 1035TIP3   OH224595   2.976   4.743   4.763  0.2366  0.4631  0.3850
 1035TIP3    H124596   3.044   4.790   4.811  0.0100  1.1197  0.0749
 1035TIP3    H224597   2.902   4.804   4.760  0.0865  0.2501 -0.3944
 1036TIP3   OH224598   1.329   5.077  12.848  0.3298  0.0685  0.6545
 1036TIP3    H124599   1.344   5.126  12.767 -0.2891  0.7426  0.9502
 1036TIP3    H224600   1.350   4.986  12.824  0.7342  0.3509 -0.0943
 1037TIP3   OH224601   3.018   6.725  14.010  0.3279  0.7271 -0.3056
 1037TIP3    H124602   3.012   6.772  14.094 -0.1983 -0.3042  0.2366
 1037TIP3    H224603   2.961   6.775  13.951 -1.7964 -0.3300  0.7958
 1038TIP3   OH224604   1.244   4.251  14.082 -0.0339 -0.6281 -0.5706
 1038TIP3    H124605   1.243   4.273  13.989  0.0153  1.0264 -0.1965
 1038TIP3    H224606   1.258   4.157  14.084 -0.6246 -0.7726 -2.2559
 1039TIP3   OH224607   2.497   3.647  12.658  0.1855 -0.5344 -0.1743
 1039TIP3    H124608   2.458   3.583  12.717 -0.8543  0.4172  0.2002
 1039TIP3    H224609   2.430   3.715  12.649  0.6302 -0.2882 -1.8427
 1040TIP3   OH224610   2.020   0.028   1.846  0.1423 -0.3618 -0.2942
 1040TIP3    H124611   2.002   0.118   1.817 -0.2376  0.0552  1.2080
 1040TIP3    H224612   1.942  -0.021   1.820 -0.2282  0.0243  0.0806
 1041TIP3   OH224613   5.435   5.283  12.332  0.3697  0.2986  0.1690
 1041TIP3    H124614   5.524   5.268  12.364  1.2072 -0.2692 -2.2644
 1041TIP3    H224615   5.406   5.362  12.376  2.7791  1.5125 -0.3143
 1042TIP3   OH224616   5.669   1.416  16.979 -0.3367  0.1011 -0.0547
 1042TIP3    H124617   5.666   1.510  17.001 -2.0923  0.3570 -1.2542
 1042TIP3    H224618   5.683   1.372  17.063  1.2581  1.4654  0.4295
 1043TIP3   OH224619   1.128   6.449   6.608 -0.1883 -0.2128 -0.3372
 1043TIP3    H124620   1.044   6.480   6.575  0.0041  0.1453 -0.4962
 1043TIP3    H224621   1.163   6.395   6.537 -0.9767 -1.6378  0.3300
 1044TIP3   OH224622   3.540   3.182   1.507  0.4505  0.9561 -0.6664
 1044TIP3    H124623   3.515   3.185   1.414 -0.7169  1.3898 -0.3467
 1044TIP3    H224624   3.491   3.107   1.542 -1.1098  2.3329  0.1576
 1045TIP3   OH224625   0.947   4.097  13.551  0.0973  0.6092 -0.4063
 1045TIP3    H124626   1.004   4.030  13.513  1.2304  1.1376  0.3440
 1045TIP3    H224627   0.977   4.179  13.512  0.4386  0.9967  0.6361
 1046TIP3   OH224628   3.264   5.994  12.676  0.0859  0.0837  0.2342
 1046TIP3    H124629   3.234   5.904  12.682  0.2170  0.0119 -0.2407
 1046TIP3    H224630   3.355   5.992  12.705  1.0257 -0.4226 -2.6528
 1047TIP3   OH224631   0.246   0.014  13.219 -0.0617  0.3504 -0.3429
 1047TIP3    H124632   0.171  -0.045  13.216 -0.9333  1.4245 -0.2675
 1047TIP3    H224633   0.214   0.091  13.268  0.5618  1.5344 -1.7457
 1048TIP3   OH224634   1.388   2.607   1.272  0.4418 -0.0115 -0.6034
 1048TIP3    H124635   1.315   2.595   1.332 -0.0255 -0.6085 -1.2791
 1048TIP3    H224636   1.454   2.655   1.322 -0.1577 -0.0429  0.2072
 1049TIP3   OH224637   3.396   0.673  13.812 -0.2655  0.7488 -0.8758
 1049TIP3    H124638   3.325   0.623  13.772 -0.1002  0.2722 -0.5833
 1049TIP3    H224639   3.424   0.733  13.744 -0.7937  0.7752 -1.0717
 1050TIP3   OH224640   2.225   3.138  16.379 -0.3853 -0.0729  0.1487
 1050TIP3    H124641   2.222   3.043  16.364  1.3141  0.0698 -1.3064
 1050TIP3    H224642   2.227   3.176  16.291 -0.0553  1.2780  0.7262
 1051TIP3   OH224643   4.352   0.118   5.235  0.0174  0.2036  0.2340
 1051TIP3    H124644   4.422   0.151   5.292  0.6701  0.1622 -0.5385
 1051TIP3    H224645   4.398   0.069   5.167 -0.8608 -1.1612  0.6155
 1052TIP3   OH224646   6.182   5.809   1.832  0.0748  0.1611 -0.2503
 1052TIP3    H124647   6.108   5.858   1.796 -0.4360 -0.2874  0.1795
 1052TIP3    H224648   6.143   5.727   1.864  0.8220 -0.2474 -0.3920
 1053TIP3   OH224649   1.088   3.844   2.022 -0.1436  0.4939  0.2409
 1053TIP3    H124650   1.074   3.861   2.115 -0.9144  1.8890 -0.1122
 1053TIP3    H224651   1.005   3.869   1.981  0.7965  1.5867 -1.0255
 1054TIP3   OH224652   2.127   3.567   1.162  0.4718  0.0794  0.1292
 1054TIP3    H124653   2.166   3.626   1.226  0.0396 -1.0202  1.4214
 1054TIP3    H224654   2.053   3.528   1.207  0.8219 -1.5492 -0.6794
 1055TIP3   OH224655   6.546   3.166  13.136  0.3843  0.6019  0.6332
 1055TIP3    H124656   6.592   3.129  13.211 -0.2084  0.1167  0.7560
 1055TIP3    H224657   6.547   3.097  13.070  1.8696  1.4035 -0.2237
 1056TIP3   OH224658   0.391   2.892   4.988  0.2065  0.0706  0.2709
 1056TIP3    H124659   0.455   2.888   4.917 -1.0959 -0.9820 -0.8759
 1056TIP3    H224660   0.431   2.949   5.054  0.6308  2.6154 -2.1100
 1057TIP3   OH224661   1.943   1.897  16.482  0.1824  0.3362  0.5226
 1057TIP3    H124662   1.935   1.806  16.510 -0.4379  0.0654 -0.5198
 1057TIP3    H224663   2.022   1.898  16.428 -0.4497  0.1585 -0.4267
 1058TIP3   OH224664   3.897   1.267  13.198 -0.2577 -0.0693 -0.5204
 1058TIP3    H124665   3.828   1.329  13.222 -1.1766 -1.2261 -0.1335
 1058TIP3    H224666   3.856   1.209  13.133  0.1616 -1.1302  0.1556
 1059TIP3   OH224667   0.889   4.146  15.874  0.0852 -0.5018 -0.6217
 1059TIP3    H124668   0.832   4.184  15.807  0.4792 -0.7133 -1.0731
 1059TIP3    H224669   0.831   4.132  15.949 -0.3490 -0.2400 -0.9046
 1060TIP3   OH224670   3.775   3.770   5.816  0.0461  0.3114  0.1043
 1060TIP3    H124671   3.848   3.711   5.800 -0.3053 -0.8796  2.6229
 1060TIP3    H224672   3.710   3.748   5.749  0.2450 -1.6371  0.5182
 1061TIP3   OH224673   0.932   2.190  15.041 -0.2623 -0.0124 -0.3242
 1061TIP3    H124674   0.958   2.147  15.123 -1.2980 -1.6575 -0.8394
 1061TIP3    H224675   0.972   2.277  15.046  1.6650 -0.9360  0.8575
 1062TIP3   OH224676   2.382   5.707  12.848 -0.5078 -0.1990 -0.1113
 1062TIP3    H124677   2.353   5.707  12.940 -1.3339 -1.9378 -0.3564
 1062TIP3    H224678   2.478   5.710  12.854 -0.5903  1.7943  0.7611
 1063TIP3   OH224679   6.281   0.042   4.660  0.2301 -0.1914  0.0706
 1063TIP3    H124680   6.233   0.104   4.604 -1.5228 -0.3653  1.3410
 1063TIP3    H224681   6.334   0.097   4.717 -0.7957  0.1519  0.7231
 1064TIP3   OH224682   1.950   4.684   0.659  0.9786 -0.9683  0.5914
 1064TIP3    H124683   1.988   4.767   0.628  0.0681 -1.4157 -1.8751
 1064TIP3    H224684   1.863   4.708   0.692  1.1115 -0.7973  0.8177
 1065TIP3   OH224685   5.221   0.486   3.880 -0.0129  0.5985 -0.6246
 1065TIP3    H124686   5.188   0.576   3.871 -1.1091  0.1482 -1.2038
 1065TIP3    H224687   5.297   0.483   3.823 -0.0639  1.1279 -0.7202
 1066TIP3   OH224688   0.937   2.713  16.414  0.4171 -0.3388  0.0855
 1066TIP3    H124689   0.945   2.641  16.477 -0.6260 -0.4952  0.0452
 1066TIP3    H224690   1.010   2.772  16.436  2.4090 -2.2818 -1.0659
 1067TIP3   OH224691   1.377   2.267  13.272 -0.0897 -0.0874  0.0203
 1067TIP3    H124692   1.430   2.192  13.243 -0.5283 -1.3610  2.4101
 1067TIP3    H224693   1.430   2.343  13.249  1.4477 -1.2280 -0.3172
 1068TIP3   OH224694   0.901   6.429  14.504 -0.1924  0.5075  0.0904
 1068TIP3    H124695   0.883   6.463  14.416  2.3140  1.3994 -0.1276
 1068TIP3    H224696   0.877   6.501  14.562 -2.8018 -0.4461  0.2373
 1069TIP3   OH224697   2.670   4.091  16.171  0.2406  0.1697  0.4501
 1069TIP3    H124698   2.665   4.028  16.243 -1.1538  0.0171  0.2327
 1069TIP3    H224699   2.590   4.143  16.179  0.7584  1.0761 -0.1509
 1070TIP3   OH224700   2.655   4.344   0.427  0.4470 -0.3219  0.0759
 1070TIP3    H124701   2.578   4.388   0.393  0.1420 -1.0773 -0.2189
 1070TIP3    H224702   2.669   4.384   0.514 -2.3133 -2.5373  1.6152
 1071TIP3   OH224703   5.964   4.746  14.530  0.2791 -0.3466 -0.3568
 1071TIP3    H124704   5.953   4.655  14.503 -0.2134 -0.3678 -0.0806
 1071TIP3    H224705   6.032   4.744  14.596  0.1779 -0.5315 -0.2584
 1072TIP3   OH224706   4.456   0.100  16.210  0.6305  0.3808 -0.8806
 1072TIP3    H124707   4.405   0.024  16.181 -0.3036  0.6548  0.0212
 1072TIP3    H224708   4.536   0.062  16.248  0.2796 -0.1331 -0.6535
 1073TIP3   OH224709   3.472   2.830   0.274  0.5655 -0.0706 -0.1527
 1073TIP3    H124710   3.499   2.850   0.184  3.2759  1.8023  1.0198
 1073TIP3    H224711   3.503   2.741   0.288 -0.0291 -0.4405 -1.1402
 1074TIP3   OH224712   2.402   2.603  12.468 -0.0221 -0.0679  0.5701
 1074TIP3    H124713   2.335   2.536  12.454 -0.4951  0.4928  0.1571
 1074TIP3    H224714   2.459   2.596  12.391  0.8444 -1.0605  1.2851
 1075TIP3   OH224715   4.976   5.258   2.339  0.0997 -0.0640 -0.0784
 1075TIP3    H124716   4.940   5.331   2.288 -0.9152 -0.1340  0.5157
 1075TIP3    H224717   4.960   5.181   2.285 -0.2694 -0.0404 -0.0036
 1076TIP3   OH224718   6.368   0.540  12.062  0.3528 -0.3919 -0.4509
 1076TIP3    H124719   6.415   0.573  11.986  1.4874 -2.9834 -0.8990
 1076TIP3    H224720   6.414   0.578  12.137  0.2040  0.8748 -0.9791
 1077TIP3   OH224721   4.424   0.249  11.089 -0.2381 -0.7696  0.1249
 1077TIP3    H124722   4.409   0.305  11.013 -1.2971 -1.7501 -0.4153
 1077TIP3    H224723   4.487   0.184  11.059 -0.3616 -0.9257  0.2035
 1078TIP3   OH224724   3.012   4.630  11.513  0.0747 -0.1504  0.0834
 1078TIP3    H124725   3.088   4.629  11.455 -0.7772 -1.2563 -1.0226
 1078TIP3    H224726   3.049   4.639  11.600  1.4895 -0.8891 -0.4241
 1079TIP3   OH224727   5.318   1.744   5.635  0.1045  0.3890 -0.2220
 1079TIP3    H124728   5.337   1.682   5.564  1.6345  1.7306 -1.0120
 1079TIP3    H224729   5.243   1.706   5.680 -0.0680 -1.1606 -1.7585
 1080TIP3   OH224730   1.636   5.066  15.970  0.4269  1.0151 -0.1940
 1080TIP3    H124731   1.582   5.094  15.896 -0.9624  0.0704  0.4235
 1080TIP3    H224732   1.718   5.037  15.931 -0.0674  1.1088 -1.3085
 1081TIP3   OH224733   1.071   4.607  16.990 -0.2331  0.2603  0.5977
 1081TIP3    H124734   1.144   4.552  16.962 -0.5290 -0.4098  1.1332
 1081TIP3    H224735   1.063   4.673  16.922  1.5875  1.0034  1.0595
 1082TIP3   OH224736   2.166   0.905   4.177 -0.1334  0.0604 -0.6032
 1082TIP3    H124737   2.233   0.949   4.231 -2.5219  1.7581  1.0678
 1082TIP3    H224738   2.172   0.813   4.203  0.9936  0.3248  0.1433
 1083TIP3   OH224739   6.501   3.397  13.328  0.7252  0.4016  0.0211
 1083TIP3    H124740   6.559   3.366  13.397  0.2381  1.5100  0.9547
 1083TIP3    H224741   6.526   3.346  13.251 -1.0164 -3.3445  1.8017
 1084TIP3   OH224742   4.227   5.316   2.853 -0.0051  0.1630 -0.4437
 1084TIP3    H124743   4.213   5.311   2.948 -0.8829 -0.3019 -0.5864
 1084TIP3    H224744   4.291   5.385   2.842  1.8571 -1.3269  0.6654
 1085TIP3   OH224745   2.928   6.587  15.914 -0.1875 -0.1423  0.0993
 1085TIP3    H124746   2.941   6.664  15.859  0.2938 -1.6690 -1.9349
 1085TIP3    H224747   2.864   6.617  15.980  2.0519  2.8064  1.0734
 1086TIP3   OH224748   2.246   2.840  16.703 -0.2841 -0.0927 -0.1867
 1086TIP3    H124749   2.337   2.857  16.729 -0.0829  0.1699 -1.0411
 1086TIP3    H224750   2.194   2.869  16.777  0.2921  0.4472  0.0077
 1087TIP3   OH224751   5.688   6.519  11.543 -0.1805  0.0601  0.8308
 1087TIP3    H124752   5.683   6.583  11.472  0.7030  0.8093  1.4311
 1087TIP3    H224753   5.598   6.490  11.556 -0.3139 -0.2616 -0.7421
 1088TIP3   OH224754   5.032   1.737   6.736  0.0968  0.3482  0.4954
 1088TIP3    H124755   5.043   1.674   6.807  1.0253 -1.1352 -0.9158
 1088TIP3    H224756   5.043   1.685   6.656 -2.4027  1.6855 -0.7933
 1089TIP3   OH224757   1.020   3.630   0.055  0.1114 -0.3513 -0.8582
 1089TIP3    H124758   1.035   3.535   0.054 -1.2887 -0.5722 -0.8303
 1089TIP3    H224759   1.019   3.653   0.147 -0.8259 -0.5099 -0.8294
 1090TIP3   OH224760   5.970   1.870  14.882 -0.3634 -0.0431 -0.0375
 1090TIP3    H124761   5.884   1.894  14.917 -0.7125 -0.0887 -0.8417
 1090TIP3    H224762   6.015   1.826  14.954 -1.1651 -0.3626  0.2652
 1091TIP3   OH224763   2.680   5.061  11.155 -0.0743 -0.5151  0.1087
 1091TIP3    H124764   2.622   5.105  11.093 -0.3340 -0.5896  0.2968
 1091TIP3    H224765   2.730   4.998  11.102 -0.5430 -0.8241  0.0367
 1092TIP3   OH224766   1.395   1.866   3.789 -0.1785  0.1808  0.3048
 1092TIP3    H124767   1.313   1.820   3.772  0.0265  0.3391 -1.1902
 1092TIP3    H224768   1.461   1.815   3.741  0.0153  2.1310 -1.5879
 1093TIP3   OH224769   1.819   2.847  11.830 -0.2032 -0.1525 -0.1330
 1093TIP3    H124770   1.744   2.797  11.799  1.4476 -3.0764  0.4928
 1093TIP3    H224771   1.796   2.874  11.919 -1.0026  0.0578 -0.3996
 1094TIP3   OH224772   6.105   5.640   2.197 -0.0885  0.3591  0.1100
 1094TIP3    H124773   6.142   5.609   2.279  0.1665  0.3399 -0.0113
 1094TIP3    H224774   6.145   5.584   2.130  0.9595  1.4453 -0.1890
 1095TIP3   OH224775   4.443   3.432  16.769  0.1344 -0.5902  0.3257
 1095TIP3    H124776   4.446   3.359  16.707  2.8888 -1.2131  1.1291
 1095TIP3    H224777   4.535   3.453  16.785 -0.6104  1.9891  1.3821
 1096TIP3   OH224778   2.485   3.300  14.715 -0.1422  0.1664 -0.5717
 1096TIP3    H124779   2.401   3.272  14.751 -0.0452  1.0551  0.3674
 1096TIP3    H224780   2.549   3.240  14.755 -0.1145  0.7137  0.2167
 1097TIP3   OH224781   6.667   4.732  15.317  0.7445  0.6522  0.0201
 1097TIP3    H124782   6.651   4.750  15.409 -0.3995  0.4320 -0.1350
 1097TIP3    H224783   6.761   4.715  15.312  0.6842 -0.1427  1.2788
 1098TIP3   OH224784   1.891   2.429  14.065 -0.0545  0.3184 -0.0350
 1098TIP3    H124785   1.803   2.411  14.032  0.2917  0.8833 -1.2687
 1098TIP3    H224786   1.946   2.431  13.987  1.7313 -3.7461  0.9745
 1099TIP3   OH224787   1.710   1.611   3.375  0.5632 -0.3634 -0.2713
 1099TIP3    H124788   1.622   1.580   3.351  0.2930  0.0198  0.2116
 1099TIP3    H224789   1.729   1.679   3.310  0.7374 -0.8339 -0.7171
 1100TIP3   OH224790   3.591   1.257   3.966  0.2513 -0.7367  0.3658
 1100TIP3    H124791   3.564   1.283   4.054  1.4771 -1.5664  1.0152
 1100TIP3    H224792   3.664   1.315   3.945 -0.0639 -0.5157 -0.1210
 1101TIP3   OH224793   0.232   6.730   4.230 -0.5395  0.1667 -0.3529
 1101TIP3    H124794   0.296   6.793   4.264 -1.1200  0.1652  0.7689
 1101TIP3    H224795   0.168   6.720   4.300  0.6430 -3.2644  0.3401
 1102TIP3   OH224796   2.024   1.992   1.557 -0.0192 -0.3024  0.2769
 1102TIP3    H124797   2.026   1.931   1.630 -1.5563 -0.8480 -0.1270
 1102TIP3    H224798   1.949   1.966   1.505 -1.0902  2.2779  0.4170
 1103TIP3   OH224799   3.750   0.057  15.504 -0.4739  0.0321 -0.7947
 1103TIP3    H124800   3.736   0.121  15.574  1.6691  0.4100 -0.6703
 1103TIP3    H224801   3.834   0.081  15.466 -0.4153 -1.7151 -1.8310
 1104TIP3   OH224802   5.217   2.455   2.546 -0.4541 -0.1367 -0.2885
 1104TIP3    H124803   5.140   2.414   2.585  0.0871 -1.2553 -0.3649
 1104TIP3    H224804   5.278   2.383   2.531  1.6557  1.0307  2.1587
 1105TIP3   OH224805   2.116   5.572  12.578 -0.7709  0.4478  0.8338
 1105TIP3    H124806   2.158   5.626  12.510 -0.7094 -1.0101 -0.3004
 1105TIP3    H224807   2.166   5.491  12.580 -0.4412  0.6686  3.0271
 1106TIP3   OH224808   1.551   6.590  15.494  0.2779 -0.0087 -0.1082
 1106TIP3    H124809   1.491   6.617  15.563 -1.1085 -0.5001 -1.1028
 1106TIP3    H224810   1.638   6.597  15.534 -0.6406 -2.5882  2.4503
 1107TIP3   OH224811   6.196   2.438   2.886 -0.3020 -0.2294 -0.0298
 1107TIP3    H124812   6.221   2.520   2.928 -0.9228 -0.1325  0.1554
 1107TIP3    H224813   6.170   2.462   2.798 -0.0618 -0.2862 -0.1164
 1108TIP3   OH224814   3.034   3.537  13.252  0.0464 -0.2705  0.0013
 1108TIP3    H124815   3.015   3.609  13.191 -0.0540 -0.3626 -0.0764
 1108TIP3    H224816   3.045   3.580  13.337  1.3159 -0.0064 -0.2887
 1109TIP3   OH224817   4.616   1.011   0.538  0.2064  0.4022 -0.5478
 1109TIP3    H124818   4.616   1.019   0.443 -0.7145 -0.0286 -0.5885
 1109TIP3    H224819   4.653   1.094   0.570 -0.1400  0.8227 -1.2493
 1110TIP3   OH224820   5.441   6.746   3.970  0.1372  0.5296 -0.0779
 1110TIP3    H124821   5.391   6.679   3.923 -0.1812 -0.1846  1.2245
 1110TIP3    H224822   5.521   6.701   3.997 -0.6740  0.2277  1.9736
 1111TIP3   OH224823   5.889   0.250   4.268 -0.4557 -0.3666 -0.2664
 1111TIP3    H124824   5.827   0.192   4.313 -1.5639  1.6562  0.8625
 1111TIP3    H224825   5.964   0.254   4.326 -1.5367  1.5511  1.0644
 1112TIP3   OH224826   2.670   3.426  15.218 -0.5367 -0.0986  0.1319
 1112TIP3    H124827   2.640   3.504  15.170  0.8723  0.7258  0.5843
 1112TIP3    H224828   2.604   3.360  15.198 -2.5759  1.6208  0.9170
 1113TIP3   OH224829   5.031   1.688   6.018 -0.1562 -0.5802 -0.3606
 1113TIP3    H124830   5.092   1.619   5.992 -0.7349 -1.4941  0.6434
 1113TIP3    H224831   5.049   1.701   6.112 -1.5651 -0.9278 -0.0408
 1114TIP3   OH224832   1.088   5.499   0.898  0.3327 -0.0881 -0.4859
 1114TIP3    H124833   1.014   5.440   0.884 -1.6769  2.3772 -0.7409
 1114TIP3    H224834   1.152   5.447   0.946 -1.2411 -2.5194 -0.9383
 1115TIP3   OH224835   0.900   1.678   0.451  0.7779  0.0498  0.7347
 1115TIP3    H124836   0.810   1.701   0.476 -0.0890  0.2352 -2.2893
 1115TIP3    H224837   0.939   1.762   0.425  1.2301 -0.2907  0.3114
 1116TIP3   OH224838   6.169   1.488   2.155 -0.3169 -0.4659 -0.3028
 1116TIP3    H124839   6.157   1.503   2.061  0.0091 -0.7484 -0.3940
 1116TIP3    H224840   6.088   1.519   2.196 -0.5938 -0.6547 -0.7109
 1117TIP3   OH224841   3.750   0.034   5.427 -0.4238  1.0755 -0.5885
 1117TIP3    H124842   3.812   0.078   5.368 -1.1933  2.6822 -0.2303
 1117TIP3    H224843   3.681   0.001   5.370  0.9470 -1.0812 -1.0359
 1118TIP3   OH224844   5.966   4.349   0.386 -0.2021 -0.5744 -0.0656
 1118TIP3    H124845   5.914   4.365   0.306 -0.1157  0.2927  0.0441
 1118TIP3    H224846   6.051   4.320   0.354  0.1834  0.7903 -0.3380
 1119TIP3   OH224847   5.205   0.984  13.476 -1.0231  0.5024 -0.5984
 1119TIP3    H124848   5.240   0.948  13.557 -0.6696  0.0834 -0.9297
 1119TIP3    H224849   5.111   0.992  13.491 -0.7378  1.9670  0.4248
 1120TIP3   OH224850   2.657   1.600  15.191  0.3196 -0.1475 -0.5925
 1120TIP3    H124851   2.700   1.514  15.195 -0.5826 -0.5118  1.5388
 1120TIP3    H224852   2.724   1.661  15.223  0.7365 -0.1297 -1.4808
 1121TIP3   OH224853   6.197   2.468   4.383  0.2658 -0.0186 -0.1170
 1121TIP3    H124854   6.170   2.553   4.418  1.4453 -0.4237  1.8662
 1121TIP3    H224855   6.155   2.463   4.297 -2.8292  1.0023  1.2706
 1122TIP3   OH224856   6.622   5.670   2.559  0.3254  0.6045 -0.1450
 1122TIP3    H124857   6.597   5.586   2.520 -0.4816 -0.7042  3.0304
 1122TIP3    H224858   6.544   5.699   2.607  1.4684  1.8153  1.0231
 1123TIP3   OH224859   2.926   5.007   4.633  0.3942 -0.2548  0.3105
 1123TIP3    H124860   2.991   5.013   4.703  0.7589  0.6920 -0.0985
 1123TIP3    H224861   2.971   4.963   4.562  0.5459  0.2566  0.0851
 1124TIP3   OH224862   1.822   4.850   3.718 -0.7403 -0.2195  0.5805
 1124TIP3    H124863   1.730   4.846   3.745 -1.0694  0.4865 -0.4205
 1124TIP3    H224864   1.856   4.763   3.738 -1.7101 -0.5780  0.7058
 1125TIP3   OH224865   0.178   0.059  16.233  0.1127 -0.0654 -0.1656
 1125TIP3    H124866   0.083   0.046  16.233 -0.0347  0.3141  3.3304
 1125TIP3    H224867   0.214  -0.029  16.242  0.1217 -0.2625 -2.0949
 1126TIP3   OH224868   5.648   5.989   1.409  0.3931 -0.0345  0.2617
 1126TIP3    H124869   5.674   5.952   1.324  2.2555  0.1806  0.7186
 1126TIP3    H224870   5.646   5.914   1.468  1.0533  0.1185  0.4765
 1127TIP3   OH224871   1.917   6.526  16.768 -0.4718 -0.2009 -0.5816
 1127TIP3    H124872   1.976   6.597  16.795  0.2011 -0.7689 -0.5462
 1127TIP3    H224873   1.952   6.495  16.685 -0.6913 -0.5757 -0.5388
 1128TIP3   OH224874   2.172   2.695  12.671 -0.2506  0.2853 -0.2843
 1128TIP3    H124875   2.102   2.728  12.615 -1.3480 -0.5934  0.5342
 1128TIP3    H224876   2.144   2.717  12.760 -0.3455 -1.5798  0.1675
 1129TIP3   OH224877   3.808   6.736  17.074  0.8441  0.2136 -0.2732
 1129TIP3    H124878   3.768   6.749  17.160  1.7555  1.5993 -0.0437
 1129TIP3    H224879   3.786   6.645  17.051  0.4709 -0.1264  1.3499
 1130TIP3   OH224880   6.464   4.493  17.221 -0.5438 -0.0369  0.4814
 1130TIP3    H124881   6.484   4.479  17.313 -1.4174 -0.3081  0.6372
 1130TIP3    H224882   6.548   4.486  17.176 -0.5468 -3.3299  0.8520
 1131TIP3   OH224883   3.853   5.106  13.323  0.2461  0.1880 -0.0635
 1131TIP3    H124884   3.828   5.162  13.397  1.7685 -0.3226  0.8812
 1131TIP3    H224885   3.773   5.094  13.273 -0.4392  1.9329  0.5918
 1132TIP3   OH224886   1.391   4.801  16.579 -0.4268  0.5766 -0.2605
 1132TIP3    H124887   1.336   4.762  16.647  0.3268 -1.1545 -0.6220
 1132TIP3    H224888   1.330   4.846  16.521 -1.8237 -3.4388 -2.1024
 1133TIP3   OH224889   2.907   5.874  12.289  0.5242 -0.1055 -0.8050
 1133TIP3    H124890   2.863   5.945  12.335 -1.9032 -1.3085 -1.1416
 1133TIP3    H224891   2.930   5.811  12.358  1.3427  0.3509 -0.6689
 1134TIP3   OH224892   4.037   4.069   4.663 -0.0903  0.6346  0.2764
 1134TIP3    H124893   4.009   4.004   4.728  1.4903 -0.8178 -0.4549
 1134TIP3    H224894   4.132   4.057   4.656 -0.0114  1.8808 -1.1327
 1135TIP3   OH224895   5.908   0.921  15.393  0.0189 -0.5417  0.4566
 1135TIP3    H124896   5.898   0.825  15.398  1.1634 -0.6649  0.4965
 1135TIP3    H224897   6.000   0.934  15.373 -0.4922  0.5149 -1.3231
 1136TIP3   OH224898   2.387   0.637   6.563 -0.6012  0.2509  0.1792
 1136TIP3    H124899   2.355   0.715   6.607 -0.7360 -0.5109  1.4675
 1136TIP3    H224900   2.336   0.565   6.601 -0.1269 -0.5184 -0.6099
 1137TIP3   OH224901   6.414   2.557   0.461  0.1872  0.0238 -0.4708
 1137TIP3    H124902   6.454   2.628   0.410  0.3056  0.0208 -0.3811
 1137TIP3    H224903   6.329   2.543   0.419 -0.2131  0.8178  0.0493
 1138TIP3   OH224904   2.353   5.505   4.917  0.0685  0.4198 -0.1277
 1138TIP3    H124905   2.314   5.430   4.962 -0.4730  0.1113 -1.0998
 1138TIP3    H224906   2.447   5.495   4.931  0.0283 -0.6578 -0.5730
 1139TIP3   OH224907   2.892   6.713  11.182 -0.4739 -0.4391  0.4285
 1139TIP3    H124908   2.894   6.798  11.139  0.2398  0.1929  1.7118
 1139TIP3    H224909   2.983   6.686  11.187 -0.5912 -0.7002  1.1745
 1140TIP3   OH224910   4.691   0.985   1.192  0.0008 -0.0189  0.1311
 1140TIP3    H124911   4.769   0.952   1.236  1.1908  1.0043 -1.1524
 1140TIP3    H224912   4.627   0.998   1.262  0.9241 -1.0124  1.1745
 1141TIP3   OH224913   6.581   0.517   1.456  0.8840  0.6404 -0.2424
 1141TIP3    H124914   6.629   0.516   1.538 -0.5029 -0.9543  0.5735
 1141TIP3    H224915   6.521   0.444   1.462  0.4327  0.7779 -2.4981
 1142TIP3   OH224916   5.031   6.263  11.672  0.1937 -0.2159  0.3261
 1142TIP3    H124917   4.967   6.332  11.692 -0.4942 -0.8860  0.4662
 1142TIP3    H224918   4.994   6.218  11.596  0.4792 -0.6279  0.4287
 1143TIP3   OH224919   5.993   2.070   5.661  0.2779 -0.0373 -0.3827
 1143TIP3    H124920   6.065   2.093   5.720  0.1844  0.1510 -0.3435
 1143TIP3    H224921   5.948   2.153   5.644  0.6777  0.0131 -1.2131
 1144TIP3   OH224922   5.756   4.683   2.026  0.2310 -0.9540  0.1280
 1144TIP3    H124923   5.768   4.619   2.096  0.9283 -1.5416 -0.5046
 1144TIP3    H224924   5.762   4.631   1.946  1.1079 -0.0592 -0.4033
 1145TIP3   OH224925   3.160   3.261   0.491  0.2727 -0.3151 -0.1957
 1145TIP3    H124926   3.144   3.192   0.426 -3.3864 -0.6284  0.9096
 1145TIP3    H224927   3.171   3.341   0.439  0.6145 -1.0789 -1.3212
 1146TIP3   OH224928   3.930   5.141  16.737 -0.3595 -0.6066 -0.3875
 1146TIP3    H124929   3.965   5.150  16.826  1.5495  0.8320 -1.2281
 1146TIP3    H224930   3.838   5.118  16.750 -0.4201  0.7025  1.9852
 1147TIP3   OH224931   5.212   4.770  13.686 -0.4407 -0.1531  0.1168
 1147TIP3    H124932   5.210   4.695  13.627 -0.1574  1.4814 -2.0127
 1147TIP3    H224933   5.291   4.819  13.662 -0.8962  1.1288  1.1097
 1148TIP3   OH224934   0.887   1.463  13.603 -0.5290 -0.2243  0.4268
 1148TIP3    H124935   0.801   1.502  13.589 -0.1280  0.1467 -1.0582
 1148TIP3    H224936   0.915   1.496  13.688 -1.2794  0.6921  0.3233
 1149TIP3   OH224937   0.159   1.840   1.472 -0.1215  0.2241  0.5714
 1149TIP3    H124938   0.222   1.858   1.402 -0.4213 -0.5766  0.0926
 1149TIP3    H224939   0.196   1.883   1.549 -0.8525  2.9791 -0.5406
 1150TIP3   OH224940   3.461   2.413  12.649 -0.2251 -0.1077 -0.0403
 1150TIP3    H124941   3.509   2.354  12.591 -1.1393 -1.0721  0.1822
 1150TIP3    H224942   3.369   2.392  12.636 -0.6086  1.6297 -0.3342
 1151TIP3   OH224943   2.200   3.165   3.385  0.5904  0.1559  0.3041
 1151TIP3    H124944   2.110   3.134   3.391  0.7275 -0.2927  0.0744
 1151TIP3    H224945   2.192   3.254   3.351  0.2795 -0.1679 -0.4813
 1152TIP3   OH224946   1.307   1.477  14.892 -0.3553  0.9531 -0.5528
 1152TIP3    H124947   1.291   1.477  14.987  2.1106 -2.6171 -0.0568
 1152TIP3    H224948   1.354   1.558  14.876 -1.0419  1.7340  1.2237
 1153TIP3   OH224949   0.134   0.864   2.148 -0.1845  1.0522 -0.3069
 1153TIP3    H124950   0.164   0.865   2.057 -0.4762 -0.6206 -0.4506
 1153TIP3    H224951   0.212   0.884   2.200  0.8003 -1.4313 -0.7709
 1154TIP3   OH224952   2.205   6.600   3.980  0.0734  0.0013 -0.3460
 1154TIP3    H124953   2.201   6.513   3.939  0.7221 -0.4282  0.4861
 1154TIP3    H224954   2.273   6.592   4.047  0.3537  1.2470 -0.4745
 1155TIP3   OH224955   2.723   4.093   0.346 -0.4725  0.3966  0.5070
 1155TIP3    H124956   2.631   4.088   0.320 -0.1631  2.7277 -1.1291
 1155TIP3    H224957   2.729   4.175   0.395  0.7405  0.2156  0.6700
 1156TIP3   OH224958   0.778   3.278  13.159  0.6515  0.1872 -0.3410
 1156TIP3    H124959   0.791   3.274  13.064 -0.7516 -1.9794 -0.4771
 1156TIP3    H224960   0.684   3.264  13.171  0.9823 -0.6237  1.4150
 1157TIP3   OH224961   1.288   4.647  13.325 -0.1275  0.2039 -0.1368
 1157TIP3    H124962   1.382   4.647  13.307  0.0904 -0.2345  0.9385
 1157TIP3    H224963   1.270   4.561  13.363 -0.9104  0.3947 -0.0506
 1158TIP3   OH224964   1.650   6.717   5.677  0.0062  0.5816  0.2967
 1158TIP3    H124965   1.743   6.739   5.681 -0.4021  2.9643 -2.1031
 1158TIP3    H224966   1.615   6.747   5.761  1.1956  0.6811  0.7638
 1159TIP3   OH224967   0.345   4.182   1.020 -0.0437 -0.2891  0.4343
 1159TIP3    H124968   0.400   4.103   1.026  1.6664  0.8021 -0.4987
 1159TIP3    H224969   0.403   4.253   1.047 -0.5471  1.0753 -1.9758
 1160TIP3   OH224970   0.067   1.812  15.570  0.0724 -0.7244 -0.3204
 1160TIP3    H124971  -0.010   1.865  15.549 -0.3260  0.0675  2.9320
 1160TIP3    H224972   0.141   1.867  15.545 -0.3692 -0.2189 -0.5282
 1161TIP3   OH224973   0.271   6.438  13.365  0.3915 -0.7666  0.0334
 1161TIP3    H124974   0.332   6.405  13.300 -0.9161  2.9623 -3.3191
 1161TIP3    H224975   0.185   6.411  13.333 -0.1648 -0.3664  1.1581
 1162TIP3   OH224976   3.080   3.403   1.775 -0.1760  0.1847  0.1767
 1162TIP3    H124977   3.145   3.350   1.729 -0.9165 -1.7987  1.3630
 1162TIP3    H224978   3.131   3.461   1.831  0.6134  0.0504 -0.3990
 1163TIP3   OH224979   0.813   4.969   5.366  0.0593 -0.4853 -0.1992
 1163TIP3    H124980   0.803   5.050   5.415  1.1160 -0.0022 -0.7544
 1163TIP3    H224981   0.787   4.900   5.427 -0.8685  0.2729  0.2648
 1164TIP3   OH224982   3.573   5.422  14.034 -0.3894  0.0793 -0.3211
 1164TIP3    H124983   3.643   5.361  14.011  0.1182  0.7483 -0.5897
 1164TIP3    H224984   3.594   5.452  14.122 -1.2076 -0.9186  0.2204
 1165TIP3   OH224985   0.053   1.768  16.649 -0.0326  0.5042  0.1797
 1165TIP3    H124986   0.040   1.741  16.740 -0.2244  2.8272  0.8867
 1165TIP3    H224987   0.144   1.746  16.630 -0.2654 -0.8633  0.6186
 1166TIP3   OH224988   0.252   1.400  12.149 -0.4339  0.0848  0.0023
 1166TIP3    H124989   0.199   1.397  12.069  1.6441  0.0009 -1.4058
 1166TIP3    H224990   0.281   1.309  12.162  1.2692  0.5207 -0.5837
 1167TIP3   OH224991   6.507   5.999  12.672 -0.8842  0.4346  0.0515
 1167TIP3    H124992   6.578   5.986  12.609 -0.4681 -1.3385  0.8374
 1167TIP3    H224993   6.430   6.017  12.619 -0.4342 -0.5714 -0.9575
 1168TIP3   OH224994   2.473   2.847  16.977 -0.1458  0.3343  0.3147
 1168TIP3    H124995   2.413   2.827  17.049 -0.2737 -1.3188 -0.2527
 1168TIP3    H224996   2.550   2.793  16.994  0.0581  0.3719 -0.4724
 1169TIP3   OH224997   6.559   5.845  12.129 -0.5990 -0.2382 -0.1139
 1169TIP3    H124998   6.583   5.935  12.107 -0.7866  0.1234  1.1135
 1169TIP3    H224999   6.637   5.794  12.110 -0.1004  0.3613  0.3139
 1170TIP3   OH225000   1.594   3.450  11.277 -0.4105  0.7040 -0.1144
 1170TIP3    H125001   1.672   3.471  11.227  0.4136  0.3645  1.0256
 1170TIP3    H225002   1.573   3.531  11.325 -0.4640  0.6431 -0.0335
 1171TIP3   OH225003   5.015   1.069  13.650  0.7364 -0.6330 -0.3392
 1171TIP3    H125004   4.930   1.051  13.611  0.8981 -0.8966 -0.5754
 1171TIP3    H225005   5.013   1.024  13.735  0.0909  0.5956  0.3136
 1172TIP3   OH225006   1.878   6.503  12.550  0.0230  0.5734  0.1881
 1172TIP3    H125007   1.837   6.444  12.613  0.8670  0.3701  0.5544
 1172TIP3    H225008   1.835   6.587  12.564 -0.8612  0.1663 -0.0154
 1173TIP3   OH225009   4.919   3.135  14.841 -0.2122  0.2093 -0.2691
 1173TIP3    H125010   4.922   3.103  14.931 -0.0541  0.5656 -0.1469
 1173TIP3    H225011   4.845   3.089  14.801 -0.6142  0.4587  0.1992
 1174TIP3   OH225012   2.359   5.682  13.143 -0.4199  0.1811 -0.0750
 1174TIP3    H125013   2.409   5.693  13.224  0.2168 -0.3555 -0.3963
 1174TIP3    H225014   2.273   5.721  13.163  0.2760  1.5381  0.3142
 1175TIP3   OH225015   0.597   5.206  15.566  0.4589 -0.1557  0.6000
 1175TIP3    H125016   0.685   5.228  15.596  2.2036 -1.4537 -3.2266
 1175TIP3    H225017   0.601   5.114  15.542 -2.1220 -0.3746  0.8181
 1176TIP3   OH225018   6.057   2.550  17.195 -0.3364  0.0272 -0.5381
 1176TIP3    H125019   6.099   2.600  17.265  2.3002 -0.6970 -1.5661
 1176TIP3    H225020   5.974   2.520  17.234 -0.5367  2.5428  1.0952
 1177TIP3   OH225021   5.234   4.215   5.158  0.3726  0.4520  0.3783
 1177TIP3    H125022   5.201   4.177   5.239  0.7482 -0.5373  0.0666
 1177TIP3    H225023   5.228   4.144   5.093 -0.5321  1.4137 -0.6210
 1178TIP3   OH225024   0.164   0.016  11.316  0.1358 -0.2330  0.4738
 1178TIP3    H125025   0.142   0.095  11.364  1.9028 -0.7208  2.1398
 1178TIP3    H225026   0.162  -0.054  11.382  1.0763 -1.1699 -0.4695
 1179TIP3   OH225027   3.442   3.954  14.607  0.0860 -0.2174  0.1706
 1179TIP3    H125028   3.384   3.879  14.592  0.3879 -0.2077 -1.0380
 1179TIP3    H225029   3.530   3.919  14.592  0.3516 -0.0502  1.2883
 1180TIP3   OH225030   5.964   2.207   3.569  0.1701 -0.0552 -0.7506
 1180TIP3    H125031   5.899   2.140   3.550  0.2364 -0.2368 -0.3305
 1180TIP3    H225032   6.026   2.202   3.496 -0.1272 -0.0766 -1.0005
 1181TIP3   OH225033   4.489   3.621   2.690 -0.4648 -0.1298 -0.2409
 1181TIP3    H125034   4.500   3.714   2.713 -1.9199  0.1685 -0.7147
 1181TIP3    H225035   4.420   3.621   2.624 -1.1065 -1.6544  0.4206
 1182TIP3   OH225036   2.319   2.849   0.657  0.1734 -0.1068  0.0137
 1182TIP3    H125037   2.291   2.779   0.716  0.1352 -0.1798 -0.0920
 1182TIP3    H225038   2.414   2.841   0.654  0.3399  1.0879  1.5742
 1183TIP3   OH225039   1.677   2.173   5.771  0.8227 -0.3792  0.3990
 1183TIP3    H125040   1.736   2.211   5.836  0.2731 -1.3229  1.4746
 1183TIP3    H225041   1.734   2.150   5.697  1.1961  2.2610 -0.1740
 1184TIP3   OH225042   5.833   2.379  14.591 -0.0239 -0.0455 -1.0317
 1184TIP3    H125043   5.807   2.376  14.683  1.3385 -1.9904 -0.6940
 1184TIP3    H225044   5.805   2.466  14.562  0.2903  0.9398  1.4444
 1185TIP3   OH225045   0.315   3.304   2.469  0.7908  0.4887  0.5734
 1185TIP3    H125046   0.357   3.221   2.447 -1.0207 -0.3095  0.0677
 1185TIP3    H225047   0.330   3.315   2.563  1.6277 -0.0593  0.5102
 1186TIP3   OH225048   2.274   4.069  10.896  0.5225  0.1142 -0.0880
 1186TIP3    H125049   2.315   4.137  10.949  0.7706  0.2860 -0.4975
 1186TIP3    H225050   2.223   4.017  10.958 -0.1833  1.0605  0.1284
 1187TIP3   OH225051   6.319   4.535   0.847  0.1076  0.4203  0.3382
 1187TIP3    H125052   6.349   4.618   0.884 -1.7838  0.0118  3.0170
 1187TIP3    H225053   6.369   4.468   0.894  2.0580  0.0355 -2.2363
 1188TIP3   OH225054   0.233   6.363  16.278  0.3783  0.0049  0.5343
 1188TIP3    H125055   0.174   6.399  16.212  0.2860 -1.7696 -0.3929
 1188TIP3    H225056   0.208   6.407  16.359 -0.7316  0.8935 -0.2665
 1189TIP3   OH225057   4.134   2.744  12.119  0.4152 -0.2098 -0.2928
 1189TIP3    H125058   4.153   2.838  12.128  0.4490 -0.3226  0.9784
 1189TIP3    H225059   4.131   2.712  12.209  1.8721 -1.7351 -0.7554
 1190TIP3   OH225060   1.360   4.526   0.654  0.0478 -0.3303  0.0015
 1190TIP3    H125061   1.366   4.552   0.563 -2.6057 -1.7256 -0.6176
 1190TIP3    H225062   1.388   4.603   0.703 -1.6699  1.5703 -1.9183
 1191TIP3   OH225063   4.459   5.987  16.680  0.8769 -0.5842 -0.2216
 1191TIP3    H125064   4.409   6.004  16.760 -0.4505 -3.1946 -0.4379
 1191TIP3    H225065   4.426   6.050  16.617  0.3334  0.0171  0.6538
 1192TIP3   OH225066   4.701   3.274   0.627 -0.3469 -0.5261  0.0985
 1192TIP3    H125067   4.771   3.295   0.689 -0.6094 -3.5666  1.5032
 1192TIP3    H225068   4.736   3.298   0.541  0.9281  1.5146  1.1536
 1193TIP3   OH225069   2.855   2.639  15.870  0.0445  0.1729 -0.3606
 1193TIP3    H125070   2.814   2.672  15.790  2.6538  0.5825 -1.6042
 1193TIP3    H225071   2.855   2.544  15.860 -1.4161  0.1206  0.0880
 1194TIP3   OH225072   0.548   2.776   2.113 -0.0832  0.2975 -0.0758
 1194TIP3    H125073   0.467   2.756   2.068  0.5017 -0.7202 -0.6866
 1194TIP3    H225074   0.521   2.820   2.194 -1.2095  0.3722 -0.4936
 1195TIP3   OH225075   1.181   1.993  16.230 -0.3220 -0.1556  0.1233
 1195TIP3    H125076   1.129   2.042  16.294  0.5123 -1.4175  1.7955
 1195TIP3    H225077   1.120   1.929  16.193 -0.4855 -0.2430  0.5460
 1196TIP3   OH225078   0.156   3.484   3.482  0.4153 -0.0242 -0.1820
 1196TIP3    H125079   0.098   3.472   3.407  0.6867  2.3207 -0.8110
 1196TIP3    H225080   0.237   3.441   3.457  0.0300 -0.4822 -0.6570
 1197TIP3   OH225081   4.005   0.820   0.821  0.0591 -0.1996 -0.1829
 1197TIP3    H125082   3.928   0.825   0.878  0.0392 -1.1728 -0.1154
 1197TIP3    H225083   3.969   0.803   0.734  0.0391  2.1684 -0.6497
 1198TIP3   OH225084   5.374   4.011   2.120 -0.0219 -0.6727  0.1242
 1198TIP3    H125085   5.315   3.962   2.178  0.1337  0.9648  1.7407
 1198TIP3    H225086   5.399   4.088   2.172  0.4837  0.6209 -1.9753
 1199TIP3   OH225087   0.376   6.002   6.173  0.2655 -0.0450  0.2307
 1199TIP3    H125088   0.377   5.915   6.212  0.6280  0.0747  0.4977
 1199TIP3    H225089   0.290   6.010   6.132 -0.1816 -0.1097  1.1530
 1200TIP3   OH225090   1.133   5.014   1.836 -0.0519  0.1262  0.2075
 1200TIP3    H125091   1.086   4.977   1.910 -0.4471 -1.2837 -0.7385
 1200TIP3    H225092   1.223   5.025   1.868 -0.4566  0.5277  1.2254
 1201TIP3   OH225093   2.350   4.235   6.323  0.2087  0.4747 -0.1422
 1201TIP3    H125094   2.419   4.242   6.390  1.3575 -0.1754 -1.2269
 1201TIP3    H225095   2.343   4.141   6.307  0.4617  0.6813 -1.4708
 1202TIP3   OH225096   3.113   0.571  11.575  0.0332  0.0541 -0.0360
 1202TIP3    H125097   3.106   0.538  11.664 -0.2167  1.7032  0.5741
 1202TIP3    H225098   3.034   0.623  11.562  0.9566  1.3713 -0.5478
 1203TIP3   OH225099   5.055   6.308  16.001 -0.5630 -0.1418 -0.1292
 1203TIP3    H125100   5.006   6.333  16.079  1.2816 -2.3739  1.7827
 1203TIP3    H225101   5.089   6.221  16.020  1.3945  0.0000 -2.7334
 1204TIP3   OH225102   1.143   5.073   0.026  0.0637  0.3172  0.5451
 1204TIP3    H125103   1.088   5.146   0.056 -0.4236  0.2483 -0.1713
 1204TIP3    H225104   1.108   4.996   0.071 -0.8032  0.1795 -0.3468
 1205TIP3   OH225105   0.535   4.851  14.991  0.1947 -0.5155 -0.1175
 1205TIP3    H125106   0.602   4.915  15.014  0.7685 -1.1877  0.0795
 1205TIP3    H225107   0.583   4.782  14.945 -0.4775 -0.6331 -0.6473
 1206TIP3   OH225108   4.298   4.872   5.740  0.3708  0.7396 -0.0573
 1206TIP3    H125109   4.319   4.841   5.828 -1.9713  0.2845  0.3925
 1206TIP3    H225110   4.364   4.831   5.684  0.7285 -0.5226  1.2466
 1207TIP3   OH225111   0.273   0.001   0.499  0.0590  0.0069 -0.2819
 1207TIP3    H125112   0.250   0.088   0.466  1.3256 -0.6596 -3.0389
 1207TIP3    H225113   0.192  -0.050   0.488 -0.2696  0.4535  0.0281
 1208TIP3   OH225114   3.940   5.858   4.694 -0.5496 -0.5019 -0.8214
 1208TIP3    H125115   4.017   5.913   4.705 -0.8599  0.0302 -1.3010
 1208TIP3    H225116   3.891   5.869   4.776 -0.2420 -0.6500 -0.6150
 1209TIP3   OH225117   6.079   4.457   1.616  0.3388 -0.2020  0.2676
 1209TIP3    H125118   6.075   4.549   1.590  0.5651  0.2991  1.9826
 1209TIP3    H225119   5.995   4.440   1.657  1.6219  0.2637  3.2237
 1210TIP3   OH225120   3.783   6.566   3.346 -0.3095  0.4385 -0.3319
 1210TIP3    H125121   3.836   6.513   3.286 -0.8371 -1.0757  0.5215
 1210TIP3    H225122   3.834   6.647   3.357  0.1182  0.4565 -2.2774
 1211TIP3   OH225123   3.873   0.203   5.870 -0.2248 -0.3478  0.5192
 1211TIP3    H125124   3.820   0.279   5.892  0.1916  0.6086 -1.6013
 1211TIP3    H225125   3.820   0.154   5.806  0.3383 -0.7705  0.3661
 1212TIP3   OH225126   5.150   4.518  16.355  1.0689  0.1691  0.1692
 1212TIP3    H125127   5.067   4.553  16.388  1.4807  1.9702 -0.6588
 1212TIP3    H225128   5.187   4.472  16.429  0.2736  1.0787  1.1555
 1213TIP3   OH225129   5.099   5.692  13.627  0.4361 -0.8012  0.0974
 1213TIP3    H125130   5.188   5.656  13.630  0.3468 -1.2143 -1.7602
 1213TIP3    H225131   5.113   5.787  13.618  0.7389 -1.0912 -2.9160
 1214TIP3   OH225132   1.740   1.233   5.219  0.5887 -0.0797 -0.5004
 1214TIP3    H125133   1.810   1.297   5.211  0.6549 -0.0116  0.5102
 1214TIP3    H225134   1.665   1.282   5.252 -0.2854  0.0613 -2.5897
 1215TIP3   OH225135   1.925   1.651   3.560  0.2059 -0.0451 -0.1959
 1215TIP3    H125136   1.912   1.728   3.615  0.2120 -1.5986  2.0568
 1215TIP3    H225137   1.843   1.641   3.511 -1.1325 -0.5813  2.0778
 1216TIP3   OH225138   4.444   5.422  11.001 -0.0380  0.1363 -0.2251
 1216TIP3    H125139   4.424   5.343  10.950  0.7235  0.0496 -0.3984
 1216TIP3    H225140   4.525   5.401  11.046 -0.4985  0.3662  0.7183
 1217TIP3   OH225141   3.422   0.009  13.403  0.4025  0.1319 -0.1091
 1217TIP3    H125142   3.508  -0.033  13.411  0.7097  0.5612 -1.0263
 1217TIP3    H225143   3.360  -0.063  13.403  0.6865 -0.1348  1.4590
 1218TIP3   OH225144   2.161   3.415  12.072  0.0048  0.0288 -0.0123
 1218TIP3    H125145   2.254   3.427  12.091 -0.4970  2.2459  1.1804
 1218TIP3    H225146   2.116   3.439  12.153 -1.7237  1.3262 -1.2996
 1219TIP3   OH225147   3.516   1.140  13.687 -0.0181  0.3417 -0.3105
 1219TIP3    H125148   3.522   1.147  13.782 -0.3314 -0.5480 -0.2141
 1219TIP3    H225149   3.462   1.214  13.660  1.5528  1.6385  0.0119
 1220TIP3   OH225150   0.498   2.867   1.482 -0.2252 -0.2564 -0.6252
 1220TIP3    H125151   0.432   2.845   1.416 -0.4207  0.7733 -0.7866
 1220TIP3    H225152   0.575   2.892   1.431 -0.0866 -0.3302 -0.4519
 1221TIP3   OH225153   2.238   3.816  15.963  1.1036 -0.6041 -0.3035
 1221TIP3    H125154   2.273   3.817  16.052 -0.3299 -0.9647  0.2874
 1221TIP3    H225155   2.315   3.821  15.906  2.0035 -0.0206  0.9587
 1222TIP3   OH225156   3.311   0.760  11.552 -0.4713 -0.3056  0.2425
 1222TIP3    H125157   3.259   0.838  11.532 -0.3681 -0.4037 -0.4128
 1222TIP3    H225158   3.246   0.692  11.569 -0.5745 -0.5236 -0.9442
 1223TIP3   OH225159   3.078   1.508  13.634 -0.1677  0.1927 -0.3222
 1223TIP3    H125160   3.155   1.550  13.595  1.0376 -0.8851  0.8340
 1223TIP3    H225161   3.086   1.525  13.728 -0.7243 -0.9026 -0.0610
 1224TIP3   OH225162   4.207   4.834   0.800  0.7469  0.1188  0.1412
 1224TIP3    H125163   4.280   4.832   0.738  1.1192 -1.0667  0.5979
 1224TIP3    H225164   4.151   4.761   0.774  0.6811 -0.1162  0.9203
 1225TIP3   OH225165   1.725   6.668  13.840  0.3296  0.2566 -0.0867
 1225TIP3    H125166   1.654   6.714  13.796  1.2147  1.5309 -0.2314
 1225TIP3    H225167   1.799   6.730  13.836  1.2034 -0.7180  0.7588
 1226TIP3   OH225168   3.090   0.915  11.464 -0.1105  0.8355 -0.6264
 1226TIP3    H125169   3.046   0.884  11.543  0.5884 -2.5804 -1.4742
 1226TIP3    H225170   3.019   0.950  11.410 -1.2578 -0.8095 -0.2568
 1227TIP3   OH225171   4.881   4.457  10.573  0.0049  0.6423  0.0611
 1227TIP3    H125172   4.813   4.466  10.640 -0.7960 -2.0282 -0.3211
 1227TIP3    H225173   4.833   4.445  10.491  0.9359  0.2330 -0.4395
 1228TIP3   OH225174   3.671   1.667   0.619  0.1495  0.2190 -0.0508
 1228TIP3    H125175   3.710   1.721   0.687  1.3697 -0.2876 -0.3456
 1228TIP3    H225176   3.660   1.581   0.659  0.7581 -0.0485 -0.4636
 1229TIP3   OH225177   3.835   2.167  15.580 -0.3944 -0.0345  0.2486
 1229TIP3    H125178   3.908   2.155  15.520 -0.8063 -0.2805 -0.2101
 1229TIP3    H225179   3.801   2.254  15.560 -0.2085  0.0918  0.4814
 1230TIP3   OH225180   5.391   6.466   2.478 -0.2506 -0.1457 -0.3801
 1230TIP3    H125181   5.383   6.405   2.405 -0.4125  2.6750 -2.8425
 1230TIP3    H225182   5.458   6.529   2.449 -2.0689  2.4328  0.7892
 1231TIP3   OH225183   1.798   3.785  10.831 -0.2937 -0.4792  0.2149
 1231TIP3    H125184   1.760   3.873  10.842 -0.5564 -0.4977 -0.5489
 1231TIP3    H225185   1.886   3.801  10.799 -0.1171 -0.4780  0.6961
 1232TIP3   OH225186   6.372   1.940   4.021  0.3469  0.5761  0.2192
 1232TIP3    H125187   6.291   1.897   4.049  1.1756 -1.0181  0.2421
 1232TIP3    H225188   6.415   1.965   4.102 -0.0274  1.2409  0.2127
 1233TIP3   OH225189   5.422   2.874  11.465  0.1644 -0.0536  0.7192
 1233TIP3    H125190   5.383   2.787  11.470 -0.5128  0.2281  0.3990
 1233TIP3    H225191   5.508   2.864  11.506 -0.2649 -0.6675  1.4856
 1234TIP3   OH225192   2.577   4.774   2.177  0.1514  0.1330  0.3933
 1234TIP3    H125193   2.657   4.784   2.126 -0.2879  1.7821  0.0042
 1234TIP3    H225194   2.553   4.682   2.166  2.1160 -0.4360  0.7292
 1235TIP3   OH225195   3.397   6.177  13.436 -0.1199 -0.4436 -0.2954
 1235TIP3    H125196   3.360   6.237  13.500  0.4156  0.0321 -0.4266
 1235TIP3    H225197   3.448   6.114  13.488  0.1096 -0.2066 -0.2308
 1236TIP3   OH225198   2.846   2.479  17.255  0.1548  0.0035 -0.5973
 1236TIP3    H125199   2.849   2.437  17.169  1.3939  0.0857 -0.6090
 1236TIP3    H225200   2.923   2.445  17.301 -0.3958  0.1047  0.4116
 1237TIP3   OH225201   0.189   5.906  17.268  0.1662  0.1627 -0.0250
 1237TIP3    H125202   0.131   5.971  17.228 -1.4929 -0.2520  1.6484
 1237TIP3    H225203   0.272   5.952  17.280  0.2495  0.7304 -2.5576
 1238TIP3   OH225204   5.613   2.709   4.144 -0.0941 -0.2892  0.6888
 1238TIP3    H125205   5.525   2.748   4.144 -0.5831 -1.3240 -1.1819
 1238TIP3    H225206   5.606   2.636   4.206 -0.7505 -0.7653  0.0667
 1239TIP3   OH225207   6.359   6.247   3.006 -0.1370 -0.2376 -0.1091
 1239TIP3    H125208   6.418   6.176   3.032 -0.4660 -0.0370  1.2049
 1239TIP3    H225209   6.410   6.327   3.022  0.2861 -0.1534 -1.7197
 1240TIP3   OH225210   4.385   4.630  13.618 -0.5456  0.0738 -0.2476
 1240TIP3    H125211   4.298   4.617  13.656 -1.3582  3.0845 -0.9016
 1240TIP3    H225212   4.402   4.550  13.569 -2.6214 -0.8802  0.5299
 1241TIP3   OH225213   4.538   2.005  12.134 -0.1908  0.3364  0.1340
 1241TIP3    H125214   4.583   2.070  12.080 -0.2872  1.0184  0.8675
 1241TIP3    H225215   4.591   2.000  12.214  0.5790 -1.4647 -0.4325
 1242TIP3   OH225216   3.679   3.108  12.529  0.5204 -0.6416  0.1496
 1242TIP3    H125217   3.665   3.081  12.620 -0.7954  0.1519  0.1844
 1242TIP3    H225218   3.591   3.111  12.491  0.7832  2.0128 -0.3136
 1243TIP3   OH225219   0.936   4.805  16.116  0.0630 -0.1499  0.5452
 1243TIP3    H125220   0.923   4.898  16.096  0.0432  0.2548  2.3981
 1243TIP3    H225221   0.896   4.759  16.042 -0.5540  1.3032 -0.0365
 1244TIP3   OH225222   5.391   5.712   2.317 -0.7375 -0.3071  0.1606
 1244TIP3    H125223   5.418   5.670   2.236 -0.1037 -3.2540  1.8488
 1244TIP3    H225224   5.465   5.768   2.341 -1.5054  1.7236 -1.9802
 1245TIP3   OH225225   0.867   3.295  15.592  0.6631 -0.3408 -0.4352
 1245TIP3    H125226   0.880   3.381  15.630 -0.9259  0.0358 -0.7083
 1245TIP3    H225227   0.852   3.238  15.668  1.1582 -0.2807 -0.2890
 1246TIP3   OH225228   3.013   4.101   3.812  0.1452 -0.6806  0.1788
 1246TIP3    H125229   3.012   4.050   3.894  0.3460 -0.5652  0.2532
 1246TIP3    H225230   2.931   4.078   3.769 -1.9368  2.3073  2.3125
 1247TIP3   OH225231   3.212   3.987   3.668  0.3867  0.4618  0.3487
 1247TIP3    H125232   3.143   4.022   3.725  0.2296 -0.7049  0.8741
 1247TIP3    H225233   3.190   3.895   3.657  2.2571 -0.1052  1.1003
 1248TIP3   OH225234   2.303   2.182   5.425 -0.2375 -0.4823  0.0038
 1248TIP3    H125235   2.377   2.207   5.369  0.1784 -1.1253  0.2632
 1248TIP3    H225236   2.312   2.087   5.435 -0.7970 -0.4848  0.4710
 1249TIP3   OH225237   4.326   0.986   2.624  0.5848  0.2322 -0.5852
 1249TIP3    H125238   4.253   1.022   2.574  1.0359  0.2529 -1.2336
 1249TIP3    H225239   4.301   0.997   2.715  0.3361  1.3925 -0.7965
 1250TIP3   OH225240   5.594   3.626  14.276  0.3265  0.4648  0.4914
 1250TIP3    H125241   5.552   3.700  14.319 -0.0581  0.2034  0.5713
 1250TIP3    H225242   5.605   3.561  14.345 -0.3191  0.0342  0.1915
 1251TIP3   OH225243   0.216   3.120  14.065  0.0543 -0.1770 -0.0001
 1251TIP3    H125244   0.131   3.159  14.086 -0.2619 -0.3184 -0.9987
 1251TIP3    H225245   0.211   3.032  14.103 -1.0062 -0.8886 -1.7233
 1252TIP3   OH225246   4.491   4.314  16.585 -0.4476 -0.7590 -0.3332
 1252TIP3    H125247   4.476   4.338  16.677  1.1158 -1.7679  0.2114
 1252TIP3    H225248   4.524   4.394  16.545  0.3409 -0.7312  0.3601
 1253TIP3   OH225249   6.365   4.983  14.040 -0.0654  0.3450  0.4355
 1253TIP3    H125250   6.403   4.987  14.128  1.2471 -0.4884 -0.0720
 1253TIP3    H225251   6.429   4.934  13.989 -1.9242 -1.2268 -0.4349
 1254TIP3   OH225252   6.700   2.128   1.365  0.5577 -0.5484  0.0018
 1254TIP3    H125253   6.704   2.210   1.316  1.4844 -0.0404  0.9108
 1254TIP3    H225254   6.606   2.106   1.367  0.2654  0.6672  0.0433
 1255TIP3   OH225255   3.618   0.328   2.636 -0.1681  0.6411 -0.1954
 1255TIP3    H125256   3.712   0.325   2.656  0.0799 -2.1824 -1.4983
 1255TIP3    H225257   3.611   0.393   2.565  0.8888  0.4280 -0.5052
 1256TIP3   OH225258   0.171   4.105  15.056 -0.5262 -0.2340 -0.1426
 1256TIP3    H125259   0.100   4.073  14.999 -1.7851  1.1868  0.5767
 1256TIP3    H225260   0.136   4.186  15.093  1.4810  0.4617  0.2735
 1257TIP3   OH225261   1.188   0.717   4.614  0.3771  0.2378  0.7745
 1257TIP3    H125262   1.156   0.754   4.696 -0.8155  0.8538  0.0393
 1257TIP3    H225263   1.125   0.647   4.594 -0.2319  1.1158 -0.4107
 1258TIP3   OH225264   4.011   1.928  14.195  0.4811  0.8080  0.2602
 1258TIP3    H125265   3.973   1.866  14.132  0.5861  0.2015  0.7958
 1258TIP3    H225266   3.987   1.894  14.281  0.7956  1.3475  0.5680
 1259TIP3   OH225267   0.378   4.104  14.552 -0.2011 -0.5553  0.2016
 1259TIP3    H125268   0.370   4.131  14.644  0.9267  1.9907 -0.4088
 1259TIP3    H225269   0.289   4.111  14.518 -0.5178 -0.9223  0.9313
 1260TIP3   OH225270   0.878   5.297   1.253 -0.2862 -0.1671 -0.3704
 1260TIP3    H125271   0.909   5.220   1.302 -2.7060 -0.5721  0.6025
 1260TIP3    H225272   0.838   5.261   1.175 -1.0387  0.1255 -0.1238
 1261TIP3   OH225273   4.167   5.487  13.482  0.6141 -1.0525  0.5693
 1261TIP3    H125274   4.127   5.403  13.459  3.0476 -2.4582  1.1822
 1261TIP3    H225275   4.231   5.464  13.551  1.5995  1.2300  0.4463
 1262TIP3   OH225276   2.346   5.283  14.828  0.3003  0.1354  0.1105
 1262TIP3    H125277   2.389   5.367  14.848 -2.1705  1.3231  0.5742
 1262TIP3    H225278   2.343   5.237  14.911  0.0908  0.3153  0.2012
 1263TIP3   OH225279   6.476   1.601  14.141 -0.0403 -0.5106 -0.3901
 1263TIP3    H125280   6.410   1.547  14.098  1.6541 -1.1521 -2.2848
 1263TIP3    H225281   6.557   1.551  14.133  0.7357  0.3599  1.7016
 1264TIP3   OH225282   2.387   5.821  14.253 -0.2900  0.2632 -0.2235
 1264TIP3    H125283   2.389   5.917  14.243 -0.7438  0.5081  1.7776
 1264TIP3    H225284   2.443   5.803  14.328 -1.4152 -0.8859  0.3678
 1265TIP3   OH225285   3.175   0.985  12.369  0.8821  0.0601 -0.0900
 1265TIP3    H125286   3.159   0.934  12.289 -0.0218 -0.1520  0.2219
 1265TIP3    H225287   3.233   0.930  12.422  0.3954 -0.3830 -0.0171
 1266TIP3   OH225288   3.381   6.682   6.528 -0.0994 -0.0293 -0.5209
 1266TIP3    H125289   3.464   6.652   6.566 -0.5300  0.6976  1.0289
 1266TIP3    H225290   3.316   6.664   6.596 -1.3124 -1.0685 -1.9198
 1267TIP3   OH225291   0.552   2.035   5.258  0.7322  0.0883  0.5568
 1267TIP3    H125292   0.589   1.950   5.233  2.3184  0.6228  1.0282
 1267TIP3    H225293   0.561   2.090   5.180 -0.9876 -0.3896  0.0102
 1268TIP3   OH225294   5.716   1.052   2.745 -0.3965  1.0466  0.1547
 1268TIP3    H125295   5.681   0.971   2.783 -0.5986  1.2117  0.3211
 1268TIP3    H225296   5.639   1.108   2.735 -0.4167  0.8398 -0.9119
 1269TIP3   OH225297   4.721   3.124   3.167 -0.4602  0.0679  0.3824
 1269TIP3    H125298   4.655   3.173   3.120  0.5397  1.8866  0.8339
 1269TIP3    H225299   4.784   3.098   3.101 -0.7680 -0.2393  0.2098
 1270TIP3   OH225300   4.270   6.389   1.115 -0.4564 -0.2931 -0.7591
 1270TIP3    H125301   4.279   6.468   1.167 -0.6524 -1.1288  0.5589
 1270TIP3    H225302   4.178   6.387   1.089  0.2025  1.4923 -3.3734
 1271TIP3   OH225303   2.200   5.681  15.948  0.1609 -0.0641  0.0872
 1271TIP3    H125304   2.256   5.699  16.024 -0.3944  0.3958  0.3933
 1271TIP3    H225305   2.132   5.749  15.953 -1.0738 -1.2951  0.3541
 1272TIP3   OH225306   1.872   0.615   1.387  0.7218 -0.2102 -0.1201
 1272TIP3    H125307   1.824   0.644   1.464  1.3930  0.2069  0.1366
 1272TIP3    H225308   1.906   0.529   1.411  0.8048 -0.1456 -0.0091
 1273TIP3   OH225309   2.397   0.181  15.650 -0.5745 -0.1547  0.1461
 1273TIP3    H125310   2.488   0.204  15.668 -0.6608 -0.4227  0.9175
 1273TIP3    H225311   2.396   0.161  15.556 -0.2062  1.6140 -0.2505
 1274TIP3   OH225312   4.791   3.415   5.805  0.2842  0.2658  0.1073
 1274TIP3    H125313   4.791   3.367   5.888  1.3025 -0.3416 -0.2402
 1274TIP3    H225314   4.880   3.448   5.796 -0.3813  2.2458  0.3344
 1275TIP3   OH225315   0.447   3.628  12.023  0.0477 -0.1829 -0.3014
 1275TIP3    H125316   0.541   3.610  12.022  0.3215  1.2444 -0.1479
 1275TIP3    H225317   0.413   3.570  12.092  0.9158 -0.1699  0.1439
 1276TIP3   OH225318   3.431   4.001   4.588  0.5213  0.4861 -0.0335
 1276TIP3    H125319   3.408   4.094   4.596 -1.1156  0.1285 -0.3864
 1276TIP3    H225320   3.475   3.995   4.504 -0.8272  0.6887 -0.7793
 1277TIP3   OH225321   3.119   3.983  17.039  0.5237 -0.2138 -0.7259
 1277TIP3    H125322   3.214   3.993  17.027  1.1083 -3.1010  0.9567
 1277TIP3    H225323   3.091   4.064  17.081  2.3249  0.5652 -1.0018
 1278TIP3   OH225324   4.222   6.534  16.925 -0.3952  0.0693 -0.2859
 1278TIP3    H125325   4.249   6.622  16.952 -1.7326  0.8080 -1.2959
 1278TIP3    H225326   4.295   6.478  16.950  0.7940  1.5793 -0.3044
 1279TIP3   OH225327   3.215   2.480   3.412 -0.1739  0.5883 -0.7834
 1279TIP3    H125328   3.257   2.401   3.380 -1.3642 -0.0669 -0.7697
 1279TIP3    H225329   3.151   2.503   3.344 -1.1463  0.4609  0.0676
 1280TIP3   OH225330   6.808   4.642   2.791  0.5356  0.4007  0.3191
 1280TIP3    H125331   6.853   4.593   2.722  0.7941  0.2538  0.5921
 1280TIP3    H225332   6.738   4.688   2.745 -0.8067 -1.5904  0.3283
 1281TIP3   OH225333   1.336   0.626  16.388 -0.7286  0.0826  0.2700
 1281TIP3    H125334   1.244   0.651  16.396 -0.2818  1.7210  0.4784
 1281TIP3    H225335   1.377   0.700  16.343  0.2109 -1.2819 -1.1740
 1282TIP3   OH225336   5.934   6.197   4.572  0.1771  0.3689 -0.3083
 1282TIP3    H125337   5.989   6.173   4.498  0.2307 -0.0984 -0.1216
 1282TIP3    H225338   5.915   6.290   4.559  1.0615  0.5467 -0.3303
 1283TIP3   OH225339   1.176   0.438  13.966 -0.6802 -0.3979  0.1310
 1283TIP3    H125340   1.120   0.506  13.929 -0.3047  0.3332  0.8903
 1283TIP3    H225341   1.140   0.422  14.053  0.4356  0.2615  0.7242
 1284TIP3   OH225342   2.304   4.931  12.610  0.1069  0.0197 -0.7307
 1284TIP3    H125343   2.217   4.962  12.584  0.6940  0.9856 -1.5575
 1284TIP3    H225344   2.332   4.874  12.539  0.8849  1.1058 -1.3121
 1285TIP3   OH225345   5.360   0.557   4.679 -0.1879 -0.3684  0.2605
 1285TIP3    H125346   5.453   0.538   4.694  0.0992  0.4949 -0.3639
 1285TIP3    H225347   5.316   0.473   4.692  0.9380 -1.2803 -1.6178
 1286TIP3   OH225348   3.178   0.900  14.464  0.1346 -0.1955  0.1553
 1286TIP3    H125349   3.152   0.832  14.526 -0.7883  0.2343  0.2502
 1286TIP3    H225350   3.212   0.852  14.389 -0.7528 -0.7825  0.1200
 1287TIP3   OH225351   2.487   3.970  12.382 -0.2540  0.4800  0.4509
 1287TIP3    H125352   2.489   3.992  12.475 -0.4918 -0.1238  0.6061
 1287TIP3    H225353   2.559   3.908  12.370  0.4321  1.3450  0.0159
 1288TIP3   OH225354   2.222   3.451  15.598  0.3100  0.3898 -0.7774
 1288TIP3    H125355   2.282   3.499  15.542 -0.2891  1.8076 -0.2196
 1288TIP3    H225356   2.204   3.510  15.671  0.1807 -0.9772  0.3343
 1289TIP3   OH225357   4.153   0.841  10.931 -0.0470  0.1061  0.0690
 1289TIP3    H125358   4.088   0.898  10.889 -1.1559 -1.0561  0.1683
 1289TIP3    H225359   4.206   0.901  10.984 -0.2169  1.2436 -1.0153
 1290TIP3   OH225360   2.697   1.972  15.287  0.2166  0.1285 -0.3464
 1290TIP3    H125361   2.741   1.887  15.292  0.2719  0.0435 -2.0620
 1290TIP3    H225362   2.762   2.034  15.319  1.3443 -0.0968 -2.1426
 1291TIP3   OH225363   0.889   5.165  11.927  0.2525 -0.0061  0.3726
 1291TIP3    H125364   0.801   5.138  11.954 -0.6905  0.3281 -2.2110
 1291TIP3    H225365   0.918   5.096  11.867  1.4307  0.3055  0.5701
 1292TIP3   OH225366   3.873   3.133  15.447  0.7536 -0.1598 -0.1095
 1292TIP3    H125367   3.922   3.211  15.475  0.3984 -0.0432  0.2076
 1292TIP3    H225368   3.825   3.107  15.526  0.5579 -0.4586 -0.3293
 1293TIP3   OH225369   5.142   3.063   0.938  0.0437 -0.1261 -0.1534
 1293TIP3    H125370   5.195   3.092   1.012 -0.1751  0.0190 -0.0524
 1293TIP3    H225371   5.113   3.144   0.896 -0.3801 -0.1992 -0.0070
 1294TIP3   OH225372   4.592   5.577  14.788  0.6134 -0.4948  0.1940
 1294TIP3    H125373   4.548   5.642  14.843  2.5663  0.0565  1.1357
 1294TIP3    H225374   4.548   5.584  14.704 -1.0154  0.1334  1.0604
 1295TIP3   OH225375   0.178   2.935   1.140 -0.0718 -0.0962 -0.2567
 1295TIP3    H125376   0.116   2.901   1.075 -0.4868 -0.5619  0.3745
 1295TIP3    H225377   0.126   2.994   1.194  0.1391 -0.1616  0.0160
 1296TIP3   OH225378   6.689   6.086   0.111  0.5275  0.5720  0.0123
 1296TIP3    H125379   6.745   6.112   0.038 -0.5330 -0.6527 -1.2614
 1296TIP3    H225380   6.609   6.136   0.099 -0.1585 -0.6043 -0.4473
 1297TIP3   OH225381   3.204   4.512  16.643 -0.1891  0.2448 -0.2569
 1297TIP3    H125382   3.145   4.581  16.612 -1.0620 -0.2841  0.2117
 1297TIP3    H225383   3.258   4.556  16.709 -0.4034  0.6075 -0.3231
 1298TIP3   OH225384   0.792   0.556  14.797  0.0303  0.3809  0.1557
 1298TIP3    H125385   0.815   0.622  14.863 -0.5465  0.9087 -0.1710
 1298TIP3    H225386   0.842   0.478  14.823  2.1141  1.4653 -0.4544
 1299TIP3   OH225387   1.956   4.878   2.328  0.1444 -0.5072 -0.5495
 1299TIP3    H125388   1.903   4.808   2.291 -1.5834  1.6440 -2.3383
 1299TIP3    H225389   1.893   4.938   2.368  1.5847 -0.0345  1.1193
 1300TIP3   OH225390   2.084   0.082  17.035  0.2559  0.0383  0.1754
 1300TIP3    H125391   2.012   0.109  17.092 -1.5558 -0.5323 -1.7918
 1300TIP3    H225392   2.141   0.031  17.092 -1.6003 -0.6814  1.4579
 1301TIP3   OH225393   5.283   1.300   5.421  0.0307 -0.1568  0.2504
 1301TIP3    H125394   5.197   1.292   5.464  0.7998 -0.9072  1.6905
 1301TIP3    H225395   5.274   1.251   5.339 -0.8898 -0.3067  0.4375
 1302TIP3   OH225396   0.460   0.089   1.094  0.5374  0.4318  0.3138
 1302TIP3    H125397   0.518   0.142   1.039 -0.2233 -1.5861 -2.5685
 1302TIP3    H225398   0.371   0.117   1.069  0.1809  0.7150  1.8257
 1303TIP3   OH225399   4.424   3.267  11.538  0.1175 -0.1682  0.2945
 1303TIP3    H125400   4.396   3.277  11.629 -1.4923  0.7173 -0.2728
 1303TIP3    H225401   4.409   3.174  11.519 -1.4630  0.0522  0.3564
 1304TIP3   OH225402   0.811   5.717  14.208 -0.6343 -0.6254  0.0343
 1304TIP3    H125403   0.850   5.657  14.272  0.7236 -0.7520 -0.8829
 1304TIP3    H225404   0.772   5.786  14.261  2.2775  0.3757  0.9906
 1305TIP3   OH225405   3.353   3.804  10.962  0.3467  0.3251 -0.5740
 1305TIP3    H125406   3.443   3.837  10.961  0.3883  0.2311 -0.1661
 1305TIP3    H225407   3.313   3.841  10.884  0.6019  0.7566 -0.5022
 1306TIP3   OH225408   1.385   0.873  16.232 -0.0981  0.1599 -0.2297
 1306TIP3    H125409   1.369   0.952  16.284 -0.5439  0.5962 -1.0160
 1306TIP3    H225410   1.358   0.897  16.143 -0.4572 -0.9547 -0.4250
 1307TIP3   OH225411   3.899   5.637  13.970  0.8493 -0.3061  0.2358
 1307TIP3    H125412   3.989   5.657  13.994  0.7727  0.9481 -0.4791
 1307TIP3    H225413   3.903   5.610  13.878  0.5306 -0.4890  0.2735
 1308TIP3   OH225414   0.889   0.565  14.038  0.6026  0.0910  0.5554
 1308TIP3    H125415   0.857   0.594  14.123 -0.5246  0.2452  0.0877
 1308TIP3    H225416   0.857   0.631  13.976 -1.7316 -1.9589 -0.4758
 1309TIP3   OH225417   1.285   3.092  12.853  0.6886  0.0524  0.1736
 1309TIP3    H125418   1.294   3.163  12.917 -1.3063  1.4779 -1.0342
 1309TIP3    H225419   1.219   3.034  12.891  0.1665  0.4279 -0.1337
 1310TIP3   OH225420   4.547   2.126  15.466 -0.6049  0.2366  0.0073
 1310TIP3    H125421   4.633   2.144  15.428 -0.4036  1.3821  0.9892
 1310TIP3    H225422   4.486   2.172  15.410 -0.5182 -0.0791 -0.3436
 1311TIP3   OH225423   0.848   3.748   2.418 -0.4959 -0.2058  0.4861
 1311TIP3    H125424   0.760   3.711   2.410 -0.9920  0.8976  0.7398
 1311TIP3    H225425   0.834   3.837   2.452  0.5955  0.6703 -1.3072
 1312TIP3   OH225426   3.762   3.054  14.934 -0.2761  0.3968  0.1448
 1312TIP3    H125427   3.816   3.127  14.965  1.3027 -0.2135 -1.1416
 1312TIP3    H225428   3.733   3.010  15.015  1.5912  0.4143  0.8360
 1313TIP3   OH225429   5.568   0.810   2.864 -0.2763  0.1878 -0.2481
 1313TIP3    H125430   5.472   0.811   2.855 -0.3394  0.3995  0.3896
 1313TIP3    H225431   5.599   0.759   2.790 -0.9603 -0.8372  0.1621
 1314TIP3   OH225432   0.864   3.407   1.371  0.3903  0.1562 -0.1863
 1314TIP3    H125433   0.950   3.406   1.412 -0.6398  1.0762  2.0424
 1314TIP3    H225434   0.813   3.471   1.421 -1.5869 -0.3030 -1.5136
 1315TIP3   OH225435   1.568   2.301   4.686  0.3232  0.6066 -0.0969
 1315TIP3    H125436   1.581   2.351   4.606  0.1230 -0.6372 -0.9192
 1315TIP3    H225437   1.503   2.235   4.663  0.3944  0.1263  1.0417
 1316TIP3   OH225438   2.624   4.280  11.632 -0.2357 -0.5721 -0.1237
 1316TIP3    H125439   2.654   4.259  11.543 -2.2913 -1.9997 -0.5273
 1316TIP3    H225440   2.538   4.320  11.619 -0.6884 -1.0714  1.2392
 1317TIP3   OH225441   3.170   6.646   2.235 -1.0993 -0.0360 -0.3595
 1317TIP3    H125442   3.249   6.694   2.259 -1.6022  0.6152 -0.0031
 1317TIP3    H225443   3.145   6.598   2.314  0.9645 -3.1164 -1.4806
 1318TIP3   OH225444   3.452   6.093  16.829  0.2768 -0.6107 -0.0907
 1318TIP3    H125445   3.515   6.164  16.834  0.1064 -0.5068  0.7202
 1318TIP3    H225446   3.403   6.109  16.748 -0.4024  0.7387  0.5636
 1319TIP3   OH225447   4.081   6.751  11.684 -0.2269  0.2122 -0.1645
 1319TIP3    H125448   4.052   6.666  11.716  0.6545  0.5929  1.7392
 1319TIP3    H225449   4.034   6.763  11.601 -0.6045 -1.9617 -0.2940
 1320TIP3   OH225450   4.727   1.171  12.661 -0.0580 -0.1069 -0.7231
 1320TIP3    H125451   4.761   1.087  12.690 -0.6616 -0.6537 -1.5661
 1320TIP3    H225452   4.690   1.154  12.574 -1.2173  0.7697 -0.4224
 1321TIP3   OH225453   2.395   1.487  16.756  0.3787  0.1595 -0.1020
 1321TIP3    H125454   2.399   1.562  16.815  0.2741 -0.0935  0.2345
 1321TIP3    H225455   2.436   1.415  16.805  0.0410 -0.1210 -0.2216
 1322TIP3   OH225456   2.232   2.847  16.393 -0.5076  0.2229  0.1266
 1322TIP3    H125457   2.163   2.780  16.397  0.8293 -1.2195 -0.6482
 1322TIP3    H225458   2.247   2.871  16.484  0.1905 -1.7731  0.5673
 1323TIP3   OH225459   2.648   5.306   4.205  0.1225 -0.3617 -0.0554
 1323TIP3    H125460   2.726   5.336   4.252  0.6994 -1.4326 -0.3189
 1323TIP3    H225461   2.674   5.305   4.113 -0.8549  1.2588 -0.3660
 1324TIP3   OH225462   6.547   0.423   2.105  0.2541 -0.5796  0.9925
 1324TIP3    H125463   6.639   0.446   2.092  0.0638 -1.1093 -1.3891
 1324TIP3    H225464   6.512   0.411   2.017 -2.0675 -0.5507  1.8827
 1325TIP3   OH225465   1.288   3.514   3.844 -0.0773 -0.1338  0.2044
 1325TIP3    H125466   1.371   3.526   3.889 -0.4109  0.0599  0.7884
 1325TIP3    H225467   1.267   3.600   3.808 -1.1507  0.4020  2.0592
 1326TIP3   OH225468   2.872   2.639  12.050  0.4219 -0.2275  0.6926
 1326TIP3    H125469   2.785   2.614  12.019  1.3052 -1.8265 -0.6061
 1326TIP3    H225470   2.886   2.727  12.015 -0.6615  0.0363  0.9148
 1327TIP3   OH225471   2.662   0.698   3.696  0.5561 -0.0422 -0.1570
 1327TIP3    H125472   2.665   0.716   3.790  1.5763 -0.9382 -0.0189
 1327TIP3    H225473   2.733   0.750   3.659 -0.0451  0.5585 -0.4825
 1328TIP3   OH225474   1.169   3.230  12.176  0.1676  0.0871 -0.6197
 1328TIP3    H125475   1.213   3.162  12.227  0.4981  0.0746 -0.9197
 1328TIP3    H225476   1.157   3.190  12.089 -1.2995 -0.2700 -0.2783
 1329TIP3   OH225477   5.382   0.078   1.179 -0.4794 -0.5815 -0.2935
 1329TIP3    H125478   5.423   0.052   1.096 -0.5126  0.0730 -0.5134
 1329TIP3    H225479   5.434   0.152   1.209 -0.5764 -0.7100  0.1869
 1330TIP3   OH225480   3.349   1.278   3.450 -0.1067 -0.1276 -0.0353
 1330TIP3    H125481   3.265   1.270   3.405  0.3763 -0.6931 -0.8491
 1330TIP3    H225482   3.328   1.266   3.543 -0.7438 -1.5569 -0.3574
 1331TIP3   OH225483   3.816   0.766   5.815  0.1720 -0.0478 -0.1778
 1331TIP3    H125484   3.733   0.806   5.840  0.6205 -0.2289  1.7024
 1331TIP3    H225485   3.794   0.677   5.790  0.0561 -0.8086  2.4888
 1332TIP3   OH225486   5.666   3.062  15.521  0.0058  0.2817  0.1048
 1332TIP3    H125487   5.651   3.115  15.443 -2.7411  0.5261  0.7483
 1332TIP3    H225488   5.674   2.972  15.489  2.0454  0.7191 -0.7223
 1333TIP3   OH225489   3.448   1.733  14.691 -0.2034 -0.1984  0.0440
 1333TIP3    H125490   3.436   1.804  14.753  0.2168  1.0582 -1.2816
 1333TIP3    H225491   3.432   1.653  14.742 -0.4716  0.8250  1.5925
 1334TIP3   OH225492   4.430   1.127   3.622 -0.7356 -0.0607 -0.1904
 1334TIP3    H125493   4.521   1.099   3.618 -0.4282  1.0379 -0.7731
 1334TIP3    H225494   4.394   1.079   3.697  0.8383  1.0312  1.2766
 1335TIP3   OH225495   1.016   1.532   3.711  0.4668 -0.4692 -0.2403
 1335TIP3    H125496   0.976   1.535   3.798  0.7717 -0.9820 -0.0862
 1335TIP3    H225497   0.959   1.475   3.660 -1.9020  2.8384 -1.4822
 1336TIP3   OH225498   0.378   2.670   0.409  0.4637  0.3281 -0.2727
 1336TIP3    H125499   0.290   2.678   0.446  0.7046 -1.1910  0.6847
 1336TIP3    H225500   0.369   2.606   0.339  1.3222 -2.0884  1.7361
 1337TIP3   OH225501   2.335   4.878   1.173  0.0596  0.5053 -0.5739
 1337TIP3    H125502   2.402   4.857   1.238 -1.4410 -1.5525  0.3865
 1337TIP3    H225503   2.379   4.869   1.089  1.0505 -0.6823  0.0511
 1338TIP3   OH225504   1.641   4.665  15.283 -0.0060  0.0418 -0.4917
 1338TIP3    H125505   1.725   4.622  15.294 -0.0755  0.1586  0.5417
 1338TIP3    H225506   1.607   4.675  15.372 -0.6161  0.9781 -0.8187
 1339TIP3   OH225507   0.157   5.425   4.565  0.2930 -0.1869 -0.1981
 1339TIP3    H125508   0.062   5.431   4.550  0.2647 -1.9691 -0.8001
 1339TIP3    H225509   0.195   5.476   4.494 -0.1969  0.1734 -0.2104
 1340TIP3   OH225510   3.181   5.414  15.927 -0.1312  0.4960  0.6144
 1340TIP3    H125511   3.222   5.429  15.842  0.5332 -1.4795  0.5563
 1340TIP3    H225512   3.088   5.427  15.911  0.2146  2.5639  0.1640
 1341TIP3   OH225513   0.801   6.100  16.909  0.8380  0.3106  0.0723
 1341TIP3    H125514   0.770   6.151  16.834  1.2802  0.2105 -0.1778
 1341TIP3    H225515   0.722   6.058  16.943  0.6485  0.2966 -0.3845
 1342TIP3   OH225516   6.020   4.998   4.385  0.0109  0.3445  0.2836
 1342TIP3    H125517   6.024   4.965   4.475 -1.3574  1.5595  0.8122
 1342TIP3    H225518   5.990   5.089   4.394 -2.1817 -0.1662 -1.5230
 1343TIP3   OH225519   2.355   1.130   0.170 -0.2606  0.8152 -0.2308
 1343TIP3    H125520   2.316   1.182   0.240  0.6407  0.0145  0.8943
 1343TIP3    H225521   2.290   1.132   0.099 -1.5296  0.9834  0.9207
 1344TIP3   OH225522   6.571   6.451  16.172 -0.3794 -0.3855 -1.0074
 1344TIP3    H125523   6.490   6.416  16.133 -1.1614  0.2705  0.0064
 1344TIP3    H225524   6.548   6.468  16.263  0.6266  0.7003 -0.9455
 1345TIP3   OH225525   5.005   6.365   6.797 -0.3711  0.1494 -0.0291
 1345TIP3    H125526   5.049   6.280   6.796  0.1112  0.3847  0.4636
 1345TIP3    H225527   5.052   6.415   6.865  1.5076  1.9627 -2.5879
 1346TIP3   OH225528   4.694   1.593   3.379 -0.2725 -0.1684 -0.1183
 1346TIP3    H125529   4.637   1.669   3.370 -1.2009 -0.9821 -1.1704
 1346TIP3    H225530   4.664   1.532   3.312  2.7771 -0.0344 -1.7379
 1347TIP3   OH225531   0.301   3.836   2.877  0.0497  0.2726  0.1604
 1347TIP3    H125532   0.217   3.790   2.888  0.5163 -0.5855  0.1548
 1347TIP3    H225533   0.282   3.927   2.902 -0.8795  0.0788  0.1737
 1348TIP3   OH225534   4.740   5.616  15.579 -0.8595  0.4146 -0.3290
 1348TIP3    H125535   4.742   5.589  15.671  0.8145  0.1767 -0.4269
 1348TIP3    H225536   4.693   5.700  15.579 -1.1610  0.2457  0.6866
 1349TIP3   OH225537   6.808   2.731  13.084  0.6210 -0.0808 -0.2283
 1349TIP3    H125538   6.776   2.702  13.170 -0.5914 -1.8527 -1.2308
 1349TIP3    H225539   6.871   2.800  13.104  0.4270 -0.5156  2.0907
 1350TIP3   OH225540   2.317   5.970   3.726  0.1887  0.7334 -0.3762
 1350TIP3    H125541   2.283   6.055   3.700 -0.4334  0.5219 -0.2576
 1350TIP3    H225542   2.357   5.985   3.811 -1.3525  0.5713  0.3925
 1351TIP3   OH225543   5.461   0.039  12.356  0.5574 -0.4046  0.4906
 1351TIP3    H125544   5.511  -0.038  12.382  0.6972 -0.6988 -0.6241
 1351TIP3    H225545   5.527   0.106  12.338  0.3749  0.6862  3.5487
 1352TIP3   OH225546   5.624   1.678  14.909  0.1017  0.2490 -0.3775
 1352TIP3    H125547   5.562   1.682  14.836  0.5901 -1.7244 -0.9284
 1352TIP3    H225548   5.580   1.622  14.974 -0.8551  2.9599  1.3871
 1353TIP3   OH225549   3.584   3.758  14.017  0.0611  0.0881 -0.1448
 1353TIP3    H125550   3.501   3.765  13.969 -0.7352  1.6323  1.3802
 1353TIP3    H225551   3.587   3.838  14.070  1.3420 -1.1249  1.6626
 1354TIP3   OH225552   3.380   5.636  12.477  0.2815 -0.2602  0.1630
 1354TIP3    H125553   3.373   5.624  12.382 -0.1072 -0.5362  0.2284
 1354TIP3    H225554   3.415   5.553  12.509 -2.1686 -1.1537  0.5832
 1355TIP3   OH225555   1.254   3.135   9.976  0.3132 -0.1076 -0.0092
 1355TIP3    H125556   1.197   3.106  10.047  0.2638  0.0597  0.0196
 1355TIP3    H225557   1.306   3.058   9.954 -0.7860 -0.6214 -0.8776
 1356TIP3   OH225558   3.860   4.385   1.235 -0.6956 -0.0081 -0.0046
 1356TIP3    H125559   3.841   4.479   1.247 -1.4463 -0.3309  1.5521
 1356TIP3    H225560   3.830   4.365   1.147 -0.4330  1.2503 -0.3852
 1357TIP3   OH225561   5.073   4.745   5.723  0.1495 -0.1063 -0.2505
 1357TIP3    H125562   4.987   4.772   5.754  1.2800  1.2589  1.7701
 1357TIP3    H225563   5.095   4.811   5.657 -0.7742 -1.0537 -1.5360
 1358TIP3   OH225564   0.269   0.477  16.428  0.3454 -0.1280  0.6677
 1358TIP3    H125565   0.282   0.387  16.458  2.1009 -0.3189 -0.5516
 1358TIP3    H225566   0.339   0.527  16.470  0.9234  0.1735 -0.6232
 1359TIP3   OH225567   5.539   1.609  17.189 -0.3166 -0.5861  0.1580
 1359TIP3    H125568   5.558   1.552  17.264  0.3718  0.4603  0.7793
 1359TIP3    H225569   5.447   1.634  17.201 -0.3073 -0.6930  0.4567
 1360TIP3   OH225570   5.590   4.940   5.980  0.3425 -0.8766  0.2843
 1360TIP3    H125571   5.672   4.962   6.024  1.7314 -2.4012 -1.4913
 1360TIP3    H225572   5.579   5.007   5.913  0.2355 -0.8091  0.3668
 1361TIP3   OH225573   1.251   1.893   0.594 -0.0244  0.5640  0.1354
 1361TIP3    H125574   1.319   1.825   0.587  0.3133  1.1474 -3.1942
 1361TIP3    H225575   1.188   1.857   0.657  1.6922 -1.4511  0.7920
 1362TIP3   OH225576   6.154   0.040   5.625  0.5236 -0.1740 -0.1703
 1362TIP3    H125577   6.094   0.018   5.696 -0.0179  0.1969 -0.5074
 1362TIP3    H225578   6.225   0.088   5.667  1.4239 -2.0290  0.4813
 1363TIP3   OH225579   5.381   3.603   6.623 -0.4747  0.8812  0.4779
 1363TIP3    H125580   5.320   3.653   6.677  0.4236  2.2257  0.2597
 1363TIP3    H225581   5.325   3.541   6.576 -1.3875  0.4136  2.1385
 1364TIP3   OH225582   1.882   4.598   4.676  0.0488  0.7007 -0.1396
 1364TIP3    H125583   1.859   4.514   4.636  0.5342 -0.0766  1.1568
 1364TIP3    H225584   1.799   4.641   4.690 -0.1259  1.0129 -2.0103
 1365TIP3   OH225585   0.376   5.401  14.635 -0.1756 -1.0027 -0.5862
 1365TIP3    H125586   0.448   5.401  14.571 -1.5607 -3.1895 -2.2126
 1365TIP3    H225587   0.322   5.477  14.610  0.9637  0.0090 -0.0224
 1366TIP3   OH225588   1.531   6.396   3.972  0.3506 -0.0650  0.0303
 1366TIP3    H125589   1.602   6.352   4.020 -0.2890  0.4283  1.4555
 1366TIP3    H225590   1.565   6.485   3.956  0.9454 -0.5250 -1.2925
 1367TIP3   OH225591   6.021   1.521   2.504 -0.1306  0.0860 -0.0589
 1367TIP3    H125592   5.980   1.435   2.499 -1.5422  0.6294  1.6480
 1367TIP3    H225593   5.972   1.576   2.443 -0.9594  0.3292  0.8066
 1368TIP3   OH225594   6.318   3.883  15.482  0.0445  0.6579  0.2442
 1368TIP3    H125595   6.227   3.889  15.511  0.2216 -0.0488  0.9514
 1368TIP3    H225596   6.318   3.812  15.418 -0.1085  1.4107 -0.6173
 1369TIP3   OH225597   2.265   1.346  16.026 -0.0588  0.2575  0.3621
 1369TIP3    H125598   2.258   1.252  16.041 -0.8565  0.2369 -0.1137
 1369TIP3    H225599   2.236   1.358  15.936  0.0293  0.9647  0.4212
 1370TIP3   OH225600   3.306   1.028   6.269 -0.0430 -0.9185 -0.0730
 1370TIP3    H125601   3.237   0.962   6.279 -0.3259 -0.3470  1.8878
 1370TIP3    H225602   3.369   1.007   6.338 -0.4684  1.2752  1.0093
 1371TIP3   OH225603   2.725   4.884  14.899  0.4801  0.4037  0.1366
 1371TIP3    H125604   2.707   4.794  14.871 -1.2785  0.9156 -0.4279
 1371TIP3    H225605   2.747   4.930  14.818  0.1489  0.7640  0.2502
 1372TIP3   OH225606   0.226   3.978   1.791 -0.1079 -0.1353  0.1000
 1372TIP3    H125607   0.194   4.052   1.741 -2.0843 -1.7578 -1.1198
 1372TIP3    H225608   0.289   3.935   1.733  0.9069  0.4661  0.7384
 1373TIP3   OH225609   5.629   5.167  16.986 -0.5057  0.1342 -0.0526
 1373TIP3    H125610   5.661   5.101  17.048  0.7056  1.0134  0.2848
 1373TIP3    H225611   5.578   5.117  16.922  0.9406 -1.2343 -0.1846
 1374TIP3   OH225612   2.697   0.703   5.526 -0.0458 -0.1665 -0.4099
 1374TIP3    H125613   2.730   0.716   5.437  0.8747 -1.2903 -0.2497
 1374TIP3    H225614   2.772   0.669   5.575 -0.7656 -0.3550  0.5859
 1375TIP3   OH225615   5.692   4.126  16.708 -0.1714 -0.0429 -0.1954
 1375TIP3    H125616   5.645   4.089  16.633 -0.7030 -1.1518  0.6675
 1375TIP3    H225617   5.623   4.157  16.766  0.2511  1.1584 -0.3325
 1376TIP3   OH225618   1.300   0.522  14.278  0.0166 -0.1199  0.3565
 1376TIP3    H125619   1.361   0.537  14.206  0.0806  0.1270  0.4642
 1376TIP3    H225620   1.232   0.466  14.240  0.1253 -0.1078  0.1436
 1377TIP3   OH225621   3.656   6.087  17.057 -0.1846  0.4249  1.0141
 1377TIP3    H125622   3.716   6.040  16.999 -2.4064 -1.2162 -0.0290
 1377TIP3    H225623   3.588   6.120  17.000  0.0457  2.8584  2.0994
 1378TIP3   OH225624   2.166   4.948  14.644  0.3492 -0.4500  0.0559
 1378TIP3    H125625   2.150   4.855  14.628 -0.1071 -0.3103 -0.3032
 1378TIP3    H225626   2.152   4.959  14.738 -0.0421 -0.6546  0.0244
 1379TIP3   OH225627   1.610   0.159  12.549  0.1011 -0.0247 -0.3172
 1379TIP3    H125628   1.661   0.171  12.629 -0.2290 -0.5501 -0.0284
 1379TIP3    H225629   1.630   0.237  12.496  0.5057  0.2055  0.1709
 1380TIP3   OH225630   3.129   3.747   2.138 -0.3049  0.4395 -0.2055
 1380TIP3    H125631   3.169   3.684   2.078 -0.1645  0.2198  0.1201
 1380TIP3    H225632   3.124   3.701   2.221 -2.4590 -0.0070 -0.5569
 1381TIP3   OH225633   5.038   6.682   0.274 -0.5681  0.6650  0.0789
 1381TIP3    H125634   5.115   6.739   0.270  0.2745 -0.5440 -1.8926
 1381TIP3    H225635   5.058   6.619   0.343 -0.8888  1.8526  1.2804
 1382TIP3   OH225636   0.332   0.410   2.892  0.2161 -0.1859  0.2810
 1382TIP3    H125637   0.266   0.352   2.931  0.1215 -0.5746 -0.4445
 1382TIP3    H225638   0.368   0.458   2.966  0.1188 -0.9978  0.8698
 1383TIP3   OH225639   1.421   4.810   0.947 -0.4375 -0.0947 -0.5267
 1383TIP3    H125640   1.454   4.862   1.020 -3.0238 -1.3017  1.5797
 1383TIP3    H225641   1.496   4.758   0.918  1.5105  2.8368 -0.9907
 1384TIP3   OH225642   1.156   4.538  16.621  0.8485  0.1489 -0.5091
 1384TIP3    H125643   1.133   4.614  16.675  0.7808 -0.1927 -0.0536
 1384TIP3    H225644   1.117   4.463  16.667  3.0225 -0.4728  0.3760
 1385TIP3   OH225645   0.130   0.561  11.185 -0.2496 -0.1920 -0.0345
 1385TIP3    H125646   0.115   0.642  11.137 -0.5544  0.2986  0.8712
 1385TIP3    H225647   0.105   0.582  11.275  2.2931 -0.4785  0.7682
 1386TIP3   OH225648   5.859   2.699  14.272  0.0061 -0.7323  0.0983
 1386TIP3    H125649   5.920   2.657  14.211  0.7776  0.7848 -0.1898
 1386TIP3    H225650   5.902   2.690  14.357 -0.0141 -0.8850  0.0924
 1387TIP3   OH225651   3.458   4.227   1.685  0.2341 -0.1951  0.1048
 1387TIP3    H125652   3.365   4.246   1.668  0.3894 -0.1120 -0.6665
 1387TIP3    H225653   3.501   4.242   1.601  1.0458  0.3630  0.6166
 1388TIP3   OH225654   3.826   1.108   4.637  0.0401 -0.5100  0.4777
 1388TIP3    H125655   3.854   1.189   4.681  0.4476 -1.8436  2.7265
 1388TIP3    H225656   3.732   1.118   4.626  0.1938  0.5925  0.0160
 1389TIP3   OH225657   5.677   3.199   0.987 -0.0725 -1.2359 -0.4343
 1389TIP3    H125658   5.610   3.268   0.988 -0.7110 -1.8586  0.1675
 1389TIP3    H225659   5.642   3.132   1.046  1.6061 -1.0621  0.7801
 1390TIP3   OH225660   1.249   4.938  16.824 -0.4061 -0.3819  0.2087
 1390TIP3    H125661   1.287   4.975  16.904  0.3809  0.0149 -0.3371
 1390TIP3    H225662   1.310   4.965  16.755 -1.0799 -0.7271 -0.5189
 1391TIP3   OH225663   6.596   0.226   0.323  0.6108 -0.4760  0.2314
 1391TIP3    H125664   6.511   0.270   0.324 -0.3476 -2.2918 -0.4137
 1391TIP3    H225665   6.576   0.133   0.332  2.4900 -0.9778 -0.4310
 1392TIP3   OH225666   6.088   3.391   2.547  0.1790 -0.4318 -0.1419
 1392TIP3    H125667   6.109   3.305   2.584 -1.1181 -1.1061 -0.9429
 1392TIP3    H225668   6.011   3.420   2.597 -0.7257 -0.7228 -1.3462
 1393TIP3   OH225669   6.476   6.635   3.308 -0.6994 -0.3074  0.1681
 1393TIP3    H125670   6.478   6.730   3.314 -1.1431 -0.3032  0.3091
 1393TIP3    H225671   6.566   6.610   3.288 -0.3240  0.0620  1.3090
 1394TIP3   OH225672   3.291   1.015  13.959  0.1914  0.4075 -0.1034
 1394TIP3    H125673   3.386   1.030  13.956 -0.0238  1.5403 -1.3735
 1394TIP3    H225674   3.261   1.069  14.033  0.1674  2.1571 -1.3736
 1395TIP3   OH225675   6.702   1.340  10.779 -0.5488  0.1423 -0.2862
 1395TIP3    H125676   6.608   1.327  10.791 -0.1229 -1.3497  1.6603
 1395TIP3    H225677   6.726   1.401  10.849  0.2245 -0.8255  0.3040
 1396TIP3   OH225678   6.612   0.943   3.714  0.0310  0.1388 -0.0456
 1396TIP3    H125679   6.597   0.939   3.808 -0.6765  0.9440 -0.1204
 1396TIP3    H225680   6.694   0.895   3.701 -0.6404 -1.2800  0.7981
 1397TIP3   OH225681   6.552   0.640  15.989 -0.2730  0.0219  0.5928
 1397TIP3    H125682   6.497   0.616  15.914  3.4646  0.2375 -2.3598
 1397TIP3    H225683   6.598   0.559  16.011  1.4498  0.8728  0.1773
 1398TIP3   OH225684   2.774   2.700   5.691  0.1894  0.8769  0.0694
 1398TIP3    H125685   2.693   2.674   5.647  0.0410  0.8098  0.3811
 1398TIP3    H225686   2.829   2.622   5.689 -0.4130  0.4118  1.3667
 1399TIP3   OH225687   2.187   5.303   5.041  0.7912 -0.6222  0.9019
 1399TIP3    H125688   2.164   5.219   5.001  1.3024 -0.3465  0.0289
 1399TIP3    H225689   2.104   5.337   5.074 -0.4469  1.1007 -3.6319
 1400TIP3   OH225690   4.890   0.304   5.120 -0.1246 -0.0103 -0.5245
 1400TIP3    H125691   4.965   0.341   5.168  0.4712 -2.1587  0.3132
 1400TIP3    H225692   4.904   0.209   5.126 -2.4625 -0.4142 -1.1138
 1401TIP3   OH225693   4.553   4.073  14.650 -0.5187 -0.5150  0.1000
 1401TIP3    H125694   4.592   4.057  14.736 -0.7979 -2.3421 -0.0882
 1401TIP3    H225695   4.463   4.040  14.658 -1.5484  2.1542  0.0389
 1402TIP3   OH225696   4.089   2.068  13.336 -0.2236  0.0170  0.3288
 1402TIP3    H125697   4.147   2.139  13.309 -2.1006  1.2237 -0.6106
 1402TIP3    H225698   4.131   2.031  13.414  3.3824 -1.1554 -2.0180
 1403TIP3   OH225699   4.867   6.292  13.906 -0.1637 -0.5812  0.0675
 1403TIP3    H125700   4.908   6.234  13.969 -2.4120 -0.2901  1.8442
 1403TIP3    H225701   4.858   6.238  13.827  0.6448 -1.6405  0.6817
 1404TIP3   OH225702   6.193   0.519   4.315  0.0756  0.4693 -0.1414
 1404TIP3    H125703   6.102   0.549   4.312 -0.1468 -0.0218  1.2758
 1404TIP3    H225704   6.188   0.432   4.354  1.0922  0.1998 -0.6155
 1405TIP3   OH225705   2.708   4.627  10.434 -0.1312 -0.0378  0.4127
 1405TIP3    H125706   2.740   4.581  10.357  0.1850  0.8369  0.0128
 1405TIP3    H225707   2.644   4.690  10.400  0.4629  0.7773  0.7897
 1406TIP3   OH225708   1.199   2.347   5.142 -0.3735  0.0200  0.1898
 1406TIP3    H125709   1.213   2.413   5.210  3.0406 -0.5731  0.1363
 1406TIP3    H225710   1.167   2.398   5.067  0.4214  1.3728  0.7438
 1407TIP3   OH225711   6.161   2.037  11.945  1.1132 -0.3046  0.0523
 1407TIP3    H125712   6.127   2.126  11.942 -0.4930 -0.9438 -1.0461
 1407TIP3    H225713   6.221   2.031  11.870 -0.2427 -0.7226 -1.0117
 1408TIP3   OH225714   3.820   3.200  10.541  0.0337 -0.6584 -0.0353
 1408TIP3    H125715   3.834   3.256  10.618 -1.0686  1.5484 -1.3942
 1408TIP3    H225716   3.744   3.146  10.564  1.8363 -2.5409  1.7613
 1409TIP3   OH225717   1.063   1.030  12.947 -0.3746  0.3455 -0.2190
 1409TIP3    H125718   0.981   1.079  12.951  0.0899  0.9806  1.8152
 1409TIP3    H225719   1.098   1.033  13.036  2.1381  0.5897 -1.1546
 1410TIP3   OH225720   5.284   4.085   4.054 -0.2727  0.5083 -0.0413
 1410TIP3    H125721   5.375   4.091   4.081 -0.1893 -0.3050 -0.1448
 1410TIP3    H225722   5.287   4.066   3.961 -0.5313 -1.6064  0.3709
 1411TIP3   OH225723   4.268   1.161  13.208 -0.7243 -0.0161  0.2177
 1411TIP3    H125724   4.271   1.076  13.164  1.7647  0.0370  0.1948
 1411TIP3    H225725   4.269   1.225  13.137  0.8335  0.0424  0.2713
 1412TIP3   OH225726   2.409   3.141   2.493 -0.4463  0.1450  0.0861
 1412TIP3    H125727   2.470   3.136   2.567 -0.4557  0.6739  0.1310
 1412TIP3    H225728   2.454   3.195   2.429 -0.9406  0.6773  0.1875
 1413TIP3   OH225729   5.157   2.032  12.188  0.2014  0.0154  0.1286
 1413TIP3    H125730   5.113   2.115  12.204 -0.7950 -0.0086 -2.3127
 1413TIP3    H225731   5.224   2.027  12.256 -0.2838  2.4089  0.8162
 1414TIP3   OH225732   2.846   6.609  13.829  0.0962 -0.4420 -0.2303
 1414TIP3    H125733   2.883   6.599  13.917  0.6679  2.5703 -0.0863
 1414TIP3    H225734   2.766   6.661  13.842 -1.2052 -2.1437 -1.2156
 1415TIP3   OH225735   5.240   6.452   1.201  0.7999  0.2521 -0.1022
 1415TIP3    H125736   5.263   6.538   1.166  0.6056 -0.4233 -1.9647
 1415TIP3    H225737   5.249   6.393   1.126 -2.4296 -0.8043  0.2746
 1416TIP3   OH225738   5.882   3.820   5.450  0.7725  0.5645  0.0472
 1416TIP3    H125739   5.825   3.885   5.491  2.0580  0.8416  1.4399
 1416TIP3    H225740   5.849   3.812   5.361 -1.8848  0.2064  1.0056
 1417TIP3   OH225741   4.998   0.226   1.949 -0.2548  0.3133 -0.4005
 1417TIP3    H125742   4.926   0.281   1.980  0.2446  1.5876 -1.5007
 1417TIP3    H225743   4.960   0.174   1.878 -0.6371 -0.5463  0.4183
 1418TIP3   OH225744   3.299   6.218  15.626 -0.1462  0.3801  0.2561
 1418TIP3    H125745   3.366   6.164  15.584  0.1482  1.8796 -1.2456
 1418TIP3    H225746   3.233   6.155  15.655  0.3325 -0.8343 -1.1963
 1419TIP3   OH225747   3.140   6.591   0.198 -0.0843 -0.2034 -0.2945
 1419TIP3    H125748   3.223   6.631   0.225  0.1274 -0.7639 -0.0997
 1419TIP3    H225749   3.105   6.551   0.278 -0.5555  0.0590 -0.3710
 1420TIP3   OH225750   5.110   0.564   1.983 -0.0013  0.3497  0.4376
 1420TIP3    H125751   5.103   0.577   2.077  1.1063  0.6242  0.4872
 1420TIP3    H225752   5.181   0.500   1.972 -1.1678 -0.8690 -0.1365
 1421TIP3   OH225753   0.474   5.500  13.907 -0.3211  0.5465  0.5393
 1421TIP3    H125754   0.531   5.479  13.834 -0.7677 -0.0583  0.3620
 1421TIP3    H225755   0.521   5.468  13.984 -0.8804 -0.8728  0.2945
 1422TIP3   OH225756   2.941   5.957  14.119  0.6549 -0.7786  0.4385
 1422TIP3    H125757   2.924   6.051  14.129  2.1064  0.0241 -3.7872
 1422TIP3    H225758   2.864   5.915  14.158  1.5007  1.9521  5.5885
 1423TIP3   OH225759   1.271   4.019  13.742  0.3853  0.2107  0.6354
 1423TIP3    H125760   1.187   4.032  13.787  0.7609  1.3051  1.0487
 1423TIP3    H225761   1.280   4.097  13.687  1.3567  0.3543  0.9768
 1424TIP3   OH225762   0.423   0.498   3.577 -0.5696 -0.0380 -0.3431
 1424TIP3    H125763   0.473   0.574   3.547 -1.6159  0.6667 -0.3266
 1424TIP3    H225764   0.332   0.518   3.553 -0.8739 -1.2303 -0.2320
 1425TIP3   OH225765   0.018   2.923   4.411  0.3037 -0.0591 -0.3977
 1425TIP3    H125766  -0.008   2.856   4.475  0.0582 -0.0887 -0.5274
 1425TIP3    H225767  -0.064   2.950   4.370  0.2138  1.3589  0.6595
 1426TIP3   OH225768   1.922   2.009  11.748 -0.0350  0.3345 -0.4578
 1426TIP3    H125769   1.992   2.031  11.687  0.4507 -1.4640 -0.5908
 1426TIP3    H225770   1.850   1.981  11.692  0.1414 -0.5627 -0.2561
 1427TIP3   OH225771   0.957   5.437  12.558 -0.0358 -0.9433  0.2202
 1427TIP3    H125772   1.012   5.498  12.608 -0.9087 -1.4796  1.8499
 1427TIP3    H225773   0.889   5.492  12.519 -1.7841 -1.0417  3.0158
 1428TIP3   OH225774   0.441   4.125   3.806 -0.1056  0.6124  0.0408
 1428TIP3    H125775   0.446   4.065   3.732  1.0513  0.8059 -0.0578
 1428TIP3    H225776   0.355   4.109   3.845 -1.3678  1.6262 -2.2621
 1429TIP3   OH225777   2.168   2.219  11.865 -0.0051  0.2361  0.4769
 1429TIP3    H125778   2.178   2.128  11.837  1.6313  0.1994  1.1089
 1429TIP3    H225779   2.192   2.270  11.788 -0.1700  0.1238  0.3506
 1430TIP3   OH225780   2.242   0.352   4.618  0.0713  0.2734  0.2811
 1430TIP3    H125781   2.321   0.298   4.607  1.0586  1.6130  0.6790
 1430TIP3    H225782   2.230   0.357   4.713  0.7084  1.7682  0.2960
 1431TIP3   OH225783   6.585   1.496  14.708 -0.5531 -0.0699  0.2702
 1431TIP3    H125784   6.569   1.543  14.791 -1.8124  1.2957 -0.7047
 1431TIP3    H225785   6.606   1.565  14.645 -1.5056 -0.8940 -0.9842
 1432TIP3   OH225786   4.665   1.777  13.247  0.6498 -0.2112  0.4899
 1432TIP3    H125787   4.591   1.815  13.294  0.2134  0.0303 -0.3899
 1432TIP3    H225788   4.742   1.803  13.298  0.2409  0.7401  0.6263
 1433TIP3   OH225789   3.279   1.038  12.077 -0.4706  0.4190 -0.1264
 1433TIP3    H125790   3.316   0.960  12.034 -0.1605  0.7802 -0.5116
 1433TIP3    H225791   3.228   1.002  12.150 -1.0455 -0.2054 -0.8192
 1434TIP3   OH225792   5.404   2.266   2.148  0.0316  0.6392 -0.1651
 1434TIP3    H125793   5.424   2.187   2.198 -0.0730  1.8719  1.8653
 1434TIP3    H225794   5.311   2.282   2.164  0.1691  1.4561 -0.1548
 1435TIP3   OH225795   4.954   0.652   3.337 -0.2393 -0.3402 -0.1591
 1435TIP3    H125796   4.991   0.602   3.410  0.2735  1.6199  0.9733
 1435TIP3    H225797   4.870   0.684   3.370 -0.2009  0.2054 -0.5821
 1436TIP3   OH225798   5.544   3.895  17.120 -0.0452  0.0363 -0.2650
 1436TIP3    H125799   5.493   3.966  17.079  0.2763  1.1167  1.1631
 1436TIP3    H225800   5.634   3.926  17.115  0.2969 -1.0922 -1.2199
 1437TIP3   OH225801   2.889   4.426   1.798  0.3369 -0.0254  0.3927
 1437TIP3    H125802   2.953   4.409   1.866 -0.9472 -0.3401  1.5510
 1437TIP3    H225803   2.826   4.354   1.805  1.1868 -1.1020 -2.3637
 1438TIP3   OH225804   6.611   5.963   2.117 -0.0318  0.1910 -0.6333
 1438TIP3    H125805   6.661   5.916   2.184  0.5320 -1.4298 -2.1307
 1438TIP3    H225806   6.524   5.925   2.122 -0.6972  1.8477  0.8527
 1439TIP3   OH225807   6.592   1.562  12.632 -0.6220  0.1286  0.6050
 1439TIP3    H125808   6.644   1.641  12.646  2.9574 -1.5271 -2.3099
 1439TIP3    H225809   6.613   1.506  12.706  0.1368  0.3278  0.5487
 1440TIP3   OH225810   4.528   3.251  17.150  0.0185 -0.4921  0.0260
 1440TIP3    H125811   4.613   3.278  17.117  0.5648 -1.6702  0.4070
 1440TIP3    H225812   4.525   3.157  17.133 -1.7644 -0.2247 -1.1757
 1441TIP3   OH225813   1.433   5.173  14.647 -0.0362  0.1676 -0.8051
 1441TIP3    H125814   1.343   5.180  14.678 -0.2942  1.5517 -1.7910
 1441TIP3    H225815   1.454   5.262  14.616  1.4781 -0.2737 -1.0785
 1442TIP3   OH225816   0.637   5.763   3.427  0.1203 -0.1780 -0.5586
 1442TIP3    H125817   0.638   5.695   3.359  2.8008  0.1679 -0.9303
 1442TIP3    H225818   0.708   5.822   3.403 -2.0356  2.6984 -0.1188
 1443TIP3   OH225819   0.324   4.651   5.596  0.1365 -0.4553  0.1111
 1443TIP3    H125820   0.358   4.738   5.575  4.3155 -2.0007 -0.0497
 1443TIP3    H225821   0.380   4.620   5.667 -1.6979 -2.7526  0.6128
 1444TIP3   OH225822   3.566   1.507  14.408 -0.4178 -0.5168  0.3928
 1444TIP3    H125823   3.475   1.483  14.427 -1.0283  0.6536 -0.9039
 1444TIP3    H225824   3.559   1.575  14.340  1.3334  0.9986  1.6524
 1445TIP3   OH225825   4.323   6.001  12.555  0.6672 -0.1498 -0.3114
 1445TIP3    H125826   4.343   6.056  12.631 -1.7897 -0.4492  0.6264
 1445TIP3    H225827   4.288   5.921  12.593 -2.7077  0.5608 -1.7486
 1446TIP3   OH225828   4.535   6.090  13.421  0.4382  0.0532 -0.2253
 1446TIP3    H125829   4.566   6.145  13.492  2.9058 -0.3564 -0.9546
 1446TIP3    H225830   4.478   6.147  13.369 -0.1044  0.7916  1.1647
 1447TIP3   OH225831   2.779   0.206   2.334  0.0064  0.0441  0.1647
 1447TIP3    H125832   2.765   0.150   2.258  1.2022 -0.4010  0.2464
 1447TIP3    H225833   2.776   0.295   2.300  3.8536 -0.2046 -1.0536
 1448TIP3   OH225834   4.443   2.325   6.393  0.2091 -0.3055 -0.2888
 1448TIP3    H125835   4.528   2.341   6.434 -0.8542 -0.8775  2.2701
 1448TIP3    H225836   4.429   2.231   6.403  0.0342 -0.5126 -2.2913
 1449TIP3   OH225837   1.241   3.427   4.675  0.0541  0.2371 -0.0426
 1449TIP3    H125838   1.269   3.457   4.589 -0.0353 -0.8637 -0.4569
 1449TIP3    H225839   1.256   3.332   4.675 -1.9476 -0.1098  0.3660
 1450TIP3   OH225840   2.543   1.754  13.798 -0.4192 -0.3428 -0.2819
 1450TIP3    H125841   2.480   1.818  13.829 -0.6132 -0.4294 -0.4907
 1450TIP3    H225842   2.498   1.709  13.726  0.6534  1.0451 -1.8618
 1451TIP3   OH225843   5.410   4.585   1.468 -0.0376  0.0332  0.6688
 1451TIP3    H125844   5.316   4.566   1.459  0.2001 -0.5492 -0.6169
 1451TIP3    H225845   5.437   4.534   1.544 -1.1021  1.4805  2.0644
 1452TIP3   OH225846   0.869   3.987  17.094  0.6567 -0.0100  0.3344
 1452TIP3    H125847   0.928   4.062  17.097 -1.0793  1.4231 -0.0561
 1452TIP3    H225848   0.786   4.021  17.127 -0.5966 -1.3216 -1.3520
 1453TIP3   OH225849   3.429   5.692  16.702  0.2352  0.2988  0.2450
 1453TIP3    H125850   3.506   5.719  16.652 -1.8202  1.9534 -2.1243
 1453TIP3    H225851   3.401   5.611  16.662  0.8193 -0.4047  1.2317
 1454TIP3   OH225852   5.810   1.715  14.583  0.0051  0.6073 -0.2656
 1454TIP3    H125853   5.797   1.668  14.665 -0.6241 -0.0979 -0.7674
 1454TIP3    H225854   5.893   1.762  14.595  0.1994  0.0586  0.5533
 1455TIP3   OH225855   0.817   0.921   4.448 -0.6764  0.1823 -0.1838
 1455TIP3    H125856   0.860   0.875   4.520 -0.4454 -1.8742 -1.5982
 1455TIP3    H225857   0.786   0.852   4.390 -0.6725  1.8141 -2.1919
 1456TIP3   OH225858   5.401   4.446  11.415 -0.3753  0.1579  0.2556
 1456TIP3    H125859   5.425   4.371  11.361  1.0935  0.5812  0.3188
 1456TIP3    H225860   5.314   4.472  11.383 -0.0928 -0.4228 -0.9946
 1457TIP3   OH225861   4.347   1.846  14.076 -0.1605  0.1614 -0.0586
 1457TIP3    H125862   4.300   1.812  14.151  0.5791 -0.4540  0.1342
 1457TIP3    H225863   4.397   1.921  14.110  3.5326 -2.6645  1.0845
 1458TIP3   OH225864   0.442   6.526   2.176  0.6103  0.2175 -0.1713
 1458TIP3    H125865   0.527   6.528   2.132  2.4818 -0.2158  3.2070
 1458TIP3    H225866   0.451   6.455   2.241 -1.3757  1.8845  2.0097
 1459TIP3   OH225867   5.463   5.949   0.702  0.2164  0.0792 -0.0574
 1459TIP3    H125868   5.421   6.036   0.703 -0.2904 -0.1517 -0.7774
 1459TIP3    H225869   5.552   5.966   0.669 -0.1712  0.2103 -1.0635
 1460TIP3   OH225870   1.363   2.604   1.825 -0.0296 -0.4581  0.1762
 1460TIP3    H125871   1.268   2.616   1.820  0.0899  1.0818  1.1917
 1460TIP3    H225872   1.375   2.523   1.874 -0.8259 -1.3673 -1.1004
 1461TIP3   OH225873   4.401   2.827  11.421 -0.3957  0.6759  0.2339
 1461TIP3    H125874   4.495   2.826  11.403 -0.7151  0.5823 -1.5054
 1461TIP3    H225875   4.395   2.806  11.515  1.3547  1.7555  0.6200
 1462TIP3   OH225876   3.567   0.214  17.130  0.0946 -0.2381 -0.1375
 1462TIP3    H125877   3.559   0.273  17.205 -0.0392 -0.7382  0.2458
 1462TIP3    H225878   3.523   0.260  17.058  0.2849  0.2718  0.0718
 1463TIP3   OH225879   0.843   3.368  17.087  0.0501  0.2837 -0.0065
 1463TIP3    H125880   0.790   3.441  17.055  0.7091  1.3455  1.2486
 1463TIP3    H225881   0.786   3.320  17.146  0.6554  1.8387  1.9020
 1464TIP3   OH225882   4.445   1.559   0.859  0.1811 -0.0392 -0.0539
 1464TIP3    H125883   4.527   1.597   0.825 -0.3975  0.9313 -0.3860
 1464TIP3    H225884   4.454   1.564   0.954  0.6987 -0.3506 -0.0840
 1465TIP3   OH225885   5.238   4.060   3.028  0.7084 -0.1141  0.2565
 1465TIP3    H125886   5.286   4.021   2.955 -0.4045  1.9080 -1.6276
 1465TIP3    H225887   5.152   4.081   2.991  0.2375  1.2474  2.0677
 1466TIP3   OH225888   5.117   6.327   0.257 -0.0622  0.4783  0.3363
 1466TIP3    H125889   5.134   6.246   0.304  0.4059 -0.3362 -1.2122
 1466TIP3    H225890   5.190   6.336   0.196 -1.7420  0.3818 -1.7609
 1467TIP3   OH225891   4.429   0.597  17.218  0.3519 -0.1717 -0.1557
 1467TIP3    H125892   4.475   0.524  17.174  0.7826 -0.8129  1.3266
 1467TIP3    H225893   4.380   0.555  17.288  0.0857  0.9067  0.3067
 1468TIP3   OH225894   1.429   1.476  11.541  0.6915 -0.4857  0.2418
 1468TIP3    H125895   1.494   1.468  11.472  0.9233  2.4559  0.0854
 1468TIP3    H225896   1.470   1.533  11.606 -0.7045 -0.7750  1.3938
 1469TIP3   OH225897   6.073   5.816   4.867 -0.1609 -0.2739 -0.1258
 1469TIP3    H125898   6.139   5.758   4.905  0.5477  1.5899  1.5998
 1469TIP3    H225899   5.993   5.763   4.864  0.9227 -1.9178 -0.3473
 1470TIP3   OH225900   3.883   1.467   1.552 -0.5004  0.2735 -0.6552
 1470TIP3    H125901   3.833   1.502   1.626 -0.0942  0.6721 -0.5719
 1470TIP3    H225902   3.816   1.435   1.491 -0.8085 -1.1323  0.4107
 1471TIP3   OH225903   4.827   1.955   5.309 -0.1054  0.3076  0.3301
 1471TIP3    H125904   4.853   1.870   5.347 -0.4997 -0.8764 -1.9886
 1471TIP3    H225905   4.734   1.944   5.289 -0.8018  2.1988  2.3114
 1472TIP3   OH225906   1.160   3.700   4.205  0.4949 -0.4278 -0.7675
 1472TIP3    H125907   1.240   3.716   4.156  0.8916  1.8995  0.5966
 1472TIP3    H225908   1.103   3.773   4.182  0.2605  0.0663  1.3196
 1473TIP3   OH225909   5.458   0.383  13.131 -0.0251 -0.1971  1.1065
 1473TIP3    H125910   5.414   0.451  13.182 -1.4726 -1.6973  1.9141
 1473TIP3    H225911   5.387   0.334  13.089  0.9873 -1.1650  0.4888
 1474TIP3   OH225912   0.949   1.564   6.356 -0.4297  0.1401  0.4932
 1474TIP3    H125913   1.025   1.509   6.338  0.0699  1.3538 -1.2777
 1474TIP3    H225914   0.877   1.502   6.369  0.6489 -0.9915  1.2604
 1475TIP3   OH225915   3.530   6.207  11.589  0.6356  0.6677 -0.6854
 1475TIP3    H125916   3.541   6.119  11.625 -0.1352  0.5306 -0.7647
 1475TIP3    H225917   3.470   6.195  11.515  1.6171  1.0550 -1.5574
 1476TIP3   OH225918   0.020   3.848   2.345 -0.3625 -0.6719 -0.5251
 1476TIP3    H125919   0.074   3.776   2.313  0.5286 -0.0276 -0.5123
 1476TIP3    H225920   0.068   3.880   2.422  0.1179  0.9884 -1.5018
 1477TIP3   OH225921   2.058   4.915  13.393 -0.2797 -0.2281  0.8596
 1477TIP3    H125922   2.027   4.936  13.305  1.0964 -0.2871  0.3563
 1477TIP3    H225923   2.012   4.976  13.450 -1.7585 -0.6829  0.1931
 1478TIP3   OH225924   1.469   6.754  11.547  0.4444  0.5845  0.2699
 1478TIP3    H125925   1.451   6.702  11.468 -0.2736  0.1191  0.7404
 1478TIP3    H225926   1.510   6.693  11.607 -0.5772  0.4954  0.8960
 1479TIP3   OH225927   0.551   2.222  14.076 -0.0330 -0.4461  0.3343
 1479TIP3    H125928   0.569   2.252  13.987 -1.5373  0.3081  0.2636
 1479TIP3    H225929   0.618   2.263  14.130  0.8609 -0.8710 -0.4391
 1480TIP3   OH225930   5.201   1.895  11.552  0.2601  0.1281  0.8904
 1480TIP3    H125931   5.183   1.951  11.476 -0.4106 -0.7328  0.4058
 1480TIP3    H225932   5.295   1.906  11.568  0.7804 -1.0087 -1.1709
 1481TIP3   OH225933   3.663   2.592   3.103  0.1474 -0.1235 -0.2371
 1481TIP3    H125934   3.713   2.526   3.055 -1.2511  0.0730 -2.0569
 1481TIP3    H225935   3.575   2.587   3.065 -1.4837 -1.0568  3.4587
 1482TIP3   OH225936   4.838   3.621   0.481 -0.3374  0.3029  0.1562
 1482TIP3    H125937   4.928   3.644   0.500 -0.1204 -2.0341  2.1611
 1482TIP3    H225938   4.786   3.665   0.548 -0.5660  0.4850 -0.1355
 1483TIP3   OH225939   3.473   1.540   3.387 -0.3576 -0.0358 -0.0624
 1483TIP3    H125940   3.455   1.446   3.394 -1.0513  0.0773 -0.2448
 1483TIP3    H225941   3.389   1.578   3.359 -0.3543  0.7609  1.0021
 1484TIP3   OH225942   3.652   5.549  12.713  0.2196  0.1273  0.1035
 1484TIP3    H125943   3.636   5.628  12.765  0.2194 -1.9490  3.3411
 1484TIP3    H225944   3.729   5.571  12.660 -0.7055  2.8136 -0.2290
 1485TIP3   OH225945   0.180   5.262  11.859  0.2667  0.0246 -0.6200
 1485TIP3    H125946   0.179   5.339  11.801  0.2954 -2.2167 -3.7060
 1485TIP3    H225947   0.088   5.243  11.874  0.2600  0.9834  0.6436
 1486TIP3   OH225948   1.950   0.994  15.432 -0.0620  0.2771  0.1760
 1486TIP3    H125949   1.888   0.922  15.440 -0.2941  0.4551 -0.0010
 1486TIP3    H225950   1.895   1.073  15.427  0.1822  0.4504  0.1872
 1487TIP3   OH225951   0.241   3.711   1.903  0.0257  0.2983  0.0625
 1487TIP3    H125952   0.235   3.805   1.888 -0.9770  0.4196  1.1639
 1487TIP3    H225953   0.330   3.696   1.934  0.4860  0.7447 -1.0122
 1488TIP3   OH225954   3.664   1.050   2.608  1.0840 -0.4737  0.4689
 1488TIP3    H125955   3.723   0.975   2.616  1.8485  0.0482 -0.0827
 1488TIP3    H225956   3.669   1.093   2.694  0.1248 -1.4228  1.0002
 1489TIP3   OH225957   2.137   0.033  15.037 -0.0330  0.8970  0.3601
 1489TIP3    H125958   2.169   0.037  15.127  1.9637 -0.9999 -0.2213
 1489TIP3    H225959   2.056  -0.018  15.042 -0.0400  0.9781  1.1003
 1490TIP3   OH225960   0.793   5.085   4.651 -0.3380 -0.7700  0.2481
 1490TIP3    H125961   0.835   5.158   4.606 -0.1805 -0.3663  1.0344
 1490TIP3    H225962   0.816   5.098   4.743 -1.0660 -1.3079  0.5068
 1491TIP3   OH225963   3.813   4.024  16.411 -0.0705 -0.3590 -0.0302
 1491TIP3    H125964   3.855   3.966  16.349 -0.0081  0.4991 -0.8039
 1491TIP3    H225965   3.885   4.061  16.463 -0.1258 -1.1068  0.5932
 1492TIP3   OH225966   3.600   2.516  17.138  0.3125 -0.3786  0.0783
 1492TIP3    H125967   3.552   2.460  17.077 -0.1804 -0.2872  0.3867
 1492TIP3    H225968   3.546   2.594  17.146  0.5006 -0.2861  0.4443
 1493TIP3   OH225969   2.527   6.461   5.334  0.0464  0.0451 -0.1973
 1493TIP3    H125970   2.582   6.403   5.387  0.5215 -0.2643 -1.0154
 1493TIP3    H225971   2.560   6.549   5.353 -0.1831 -0.0109  0.4777
 1494TIP3   OH225972   0.236   4.055  11.832 -0.4471  0.5713 -0.2307
 1494TIP3    H125973   0.206   4.129  11.884 -0.5040  0.4962 -0.1579
 1494TIP3    H225974   0.298   4.009  11.889  0.0145  0.8787 -0.4785
 1495TIP3   OH225975   5.492   3.690  14.868 -0.3500 -0.1407  0.1674
 1495TIP3    H125976   5.535   3.670  14.785  1.0770  3.4295 -0.0665
 1495TIP3    H225977   5.402   3.657  14.858 -0.1886  0.2049 -2.7940
 1496TIP3   OH225978   5.364   5.687  13.319  0.4985  0.3947 -0.5553
 1496TIP3    H125979   5.365   5.660  13.411 -0.7181  1.6855 -0.1645
 1496TIP3    H225980   5.387   5.780  13.320 -1.6031  0.9564 -1.3633
 1497TIP3   OH225981   0.949   5.763   3.794  0.3827 -0.5493  0.1357
 1497TIP3    H125982   0.895   5.802   3.863  1.7130  0.1625  0.7847
 1497TIP3    H225983   0.890   5.702   3.749 -1.1622  0.7340  0.3782
 1498TIP3   OH225984   1.172   0.065  10.251  0.6872  0.2807 -0.5754
 1498TIP3    H125985   1.225  -0.014  10.249  2.5188  1.3868  1.8197
 1498TIP3    H225986   1.121   0.058  10.332 -3.3746 -1.0506 -3.1175
 1499TIP3   OH225987   5.287   0.756  17.036  0.1585  0.0511 -0.4554
 1499TIP3    H125988   5.254   0.679  17.082 -0.5202  0.4245 -0.3204
 1499TIP3    H225989   5.213   0.786  16.983  1.1033 -0.7232 -2.2761
 1500TIP3   OH225990   0.236   2.993   3.216 -0.2665 -0.9475  0.1994
 1500TIP3    H125991   0.171   3.021   3.280 -1.2868 -0.8696 -0.8547
 1500TIP3    H225992   0.185   2.962   3.141  0.8423 -3.7406  0.5094
 1501TIP3   OH225993   2.226   0.100   0.900  0.6212 -0.4120  0.3749
 1501TIP3    H125994   2.215   0.172   0.838 -1.2036 -0.7959  0.2229
 1501TIP3    H225995   2.296   0.129   0.958 -1.8881  2.7508  2.0110
 1502TIP3   OH225996   0.645   4.997  14.382 -0.3181 -0.5957  0.4442
 1502TIP3    H125997   0.566   5.015  14.331 -0.6110 -0.7455  0.8405
 1502TIP3    H225998   0.620   4.923  14.438  0.7631 -2.0184 -0.9248
 1503TIP3   OH225999   0.334   2.228  16.634 -0.2409 -0.0748 -0.7902
 1503TIP3    H126000   0.424   2.205  16.657 -0.8962 -1.2423  0.7230
 1503TIP3    H226001   0.297   2.146  16.600 -0.7932  0.3495 -1.2115
 1504TIP3   OH226002   1.819   3.318  15.288  0.2748 -0.0157  0.6899
 1504TIP3    H126003   1.734   3.342  15.326  0.3573 -1.1578  1.6231
 1504TIP3    H226004   1.846   3.241  15.337  1.3438 -0.3138 -0.3526
 1505TIP3   OH226005   6.759   5.499   4.223 -0.4461  0.1137  0.4219
 1505TIP3    H126006   6.749   5.456   4.137 -1.5581  1.6560 -0.2335
 1505TIP3    H226007   6.810   5.436   4.274  1.5075 -0.2222 -1.8238
 1506TIP3   OH226008   0.814   3.851   3.854  0.2685  0.2669 -0.4484
 1506TIP3    H126009   0.726   3.815   3.842  0.0233  0.6378  0.2138
 1506TIP3    H226010   0.863   3.780   3.895 -0.0297  0.4582  0.2342
 1507TIP3   OH226011   5.776   5.472  14.816 -0.1769  0.0945 -0.2029
 1507TIP3    H126012   5.868   5.500  14.820 -0.3933  0.6053  2.0138
 1507TIP3    H226013   5.781   5.378  14.801  0.7220  0.1497 -0.2905
 1508TIP3   OH226014   6.395   5.147   0.784 -0.4119 -0.1985  0.0682
 1508TIP3    H126015   6.373   5.240   0.783 -0.9359 -0.3226 -1.1874
 1508TIP3    H226016   6.475   5.141   0.732 -0.2443 -0.4184  0.3524
 1509TIP3   OH226017   6.344   2.309   0.595  0.0124 -0.8906  0.2954
 1509TIP3    H126018   6.291   2.302   0.516  1.8411  1.0927 -1.1685
 1509TIP3    H226019   6.379   2.399   0.593  2.1714 -1.6405  1.9911
 1510TIP3   OH226020   4.858   1.494   3.993  0.1650 -0.2577  0.4309
 1510TIP3    H126021   4.858   1.425   3.928  0.8288  0.4261 -0.2989
 1510TIP3    H226022   4.766   1.505   4.017  0.0617 -1.4095  0.5859
 1511TIP3   OH226023   5.298   4.334   1.946 -0.3042 -0.2266  0.0004
 1511TIP3    H126024   5.265   4.244   1.950 -1.2404  0.1258  0.1566
 1511TIP3    H226025   5.313   4.358   2.038  0.3665 -0.3691 -0.0645
 1512TIP3   OH226026   4.793   1.240  15.954  0.1691 -0.0568  0.3995
 1512TIP3    H126027   4.842   1.193  16.022  0.6309 -0.1916 -0.0276
 1512TIP3    H226028   4.706   1.251  15.992  0.4775  0.0335  1.0947
 1513TIP3   OH226029   0.212   5.514  14.147  0.0331 -0.8696 -0.2081
 1513TIP3    H126030   0.306   5.518  14.128  0.3620  0.2105  1.4868
 1513TIP3    H226031   0.170   5.536  14.064  1.3667  2.7853 -0.0269
 1514TIP3   OH226032   3.191   6.072  12.410 -0.5253  0.7229  0.2311
 1514TIP3    H126033   3.158   6.161  12.420 -1.4346  0.4117  0.0899
 1514TIP3    H226034   3.239   6.055  12.491  0.1136  1.5344  0.0191
 1515TIP3   OH226035   6.614   2.311  14.558  0.1805  0.3899  0.2033
 1515TIP3    H126036   6.588   2.403  14.569  0.2092  0.6702 -1.7847
 1515TIP3    H226037   6.540   2.261  14.591 -0.7691  1.1560 -0.7284
 1516TIP3   OH226038   0.667   0.844  14.187 -0.5557  0.2128  0.0249
 1516TIP3    H126039   0.606   0.806  14.125 -0.0236 -1.3118  0.4176
 1516TIP3    H226040   0.693   0.927  14.147 -0.7752 -0.4078 -1.4357
 1517TIP3   OH226041   4.478   4.154  13.172 -0.0662 -0.0953  0.4035
 1517TIP3    H126042   4.560   4.158  13.222  1.7099 -2.6029 -2.1288
 1517TIP3    H226043   4.428   4.083  13.213 -0.2526  0.3208  0.9048
 1518TIP3   OH226044   2.797   4.376   1.331  0.4753 -0.1424 -0.6870
 1518TIP3    H126045   2.868   4.313   1.342 -0.3107 -1.0137 -0.4432
 1518TIP3    H226046   2.726   4.325   1.292 -0.5889  0.3029  0.6184
 1519TIP3   OH226047   1.546   2.552  13.566  0.0432  0.2232 -0.5389
 1519TIP3    H126048   1.602   2.477  13.543 -1.5179 -0.6522 -1.5672
 1519TIP3    H226049   1.461   2.512  13.586 -0.6524  1.6841 -0.5572
 1520TIP3   OH226050   4.364   0.519   0.176 -1.0017 -0.5027  0.4236
 1520TIP3    H126051   4.292   0.492   0.233 -2.7782  1.6907 -0.6553
 1520TIP3    H226052   4.415   0.580   0.229 -0.9712 -0.7198  0.6402
 1521TIP3   OH226053   6.102   3.708  17.098 -0.1011 -0.1771  0.0841
 1521TIP3    H126054   6.187   3.741  17.127  0.1506 -1.1362  0.4599
 1521TIP3    H226055   6.067   3.662  17.174 -0.3091 -1.0096 -0.5095
 1522TIP3   OH226056   4.044   3.692  16.658  0.2174 -0.3692 -0.4579
 1522TIP3    H126057   4.040   3.597  16.667  0.1095 -0.3146  0.0972
 1522TIP3    H226058   4.001   3.725  16.737 -0.3493  0.1311 -0.9707
 1523TIP3   OH226059   2.190   3.115   2.682  0.4509 -1.0086  0.4098
 1523TIP3    H126060   2.256   3.137   2.616 -1.8977 -0.7711 -1.9061
 1523TIP3    H226061   2.195   3.020   2.689  0.0085 -1.1363 -0.8774
 1524TIP3   OH226062   3.484   0.648   4.516  0.0805 -0.2029 -0.0821
 1524TIP3    H126063   3.503   0.702   4.592  1.8857 -2.1490  0.8862
 1524TIP3    H226064   3.504   0.704   4.441  1.8069  0.5175  0.9026
 1525TIP3   OH226065   2.620   3.000  15.772  0.3626  0.3694 -0.4813
 1525TIP3    H126066   2.611   2.921  15.720 -1.2727  0.3205 -0.1662
 1525TIP3    H226067   2.655   2.971  15.856  0.0044  0.0107 -0.4553
 1526TIP3   OH226068   2.295   1.155  11.185 -0.0809 -1.2683  0.0560
 1526TIP3    H126069   2.274   1.240  11.147 -0.0167 -0.9107  0.8224
 1526TIP3    H226070   2.366   1.121  11.131  1.6631  0.2977  1.2992
 1527TIP3   OH226071   4.153   1.518   2.810 -0.2731  0.3253  0.3350
 1527TIP3    H126072   4.115   1.563   2.885 -0.7107  0.6901 -0.1051
 1527TIP3    H226073   4.187   1.588   2.755 -0.1099  0.0663  0.1061
 1528TIP3   OH226074   6.020   0.318   6.336 -0.2708  0.3414 -0.3730
 1528TIP3    H126075   5.989   0.307   6.246 -0.5029 -0.1639 -0.2328
 1528TIP3    H226076   6.021   0.412   6.350 -1.8341  0.3673 -0.3583
 1529TIP3   OH226077   3.995   6.417  13.449  0.1901 -0.1040  0.6516
 1529TIP3    H126078   4.017   6.335  13.493 -0.3585 -2.9600 -4.0271
 1529TIP3    H226079   3.899   6.415  13.442 -0.0050  2.0397  2.4298
 1530TIP3   OH226080   2.621   4.241   3.370 -0.4587 -0.4790 -0.0573
 1530TIP3    H126081   2.541   4.272   3.327 -0.4937  0.0289  0.3615
 1530TIP3    H226082   2.661   4.321   3.405 -1.0345 -1.0194  1.8754
 1531TIP3   OH226083   6.608   5.714  13.470  0.2522 -0.0894 -0.3085
 1531TIP3    H126084   6.693   5.699  13.430  0.1805  0.6309 -0.7511
 1531TIP3    H226085   6.599   5.809  13.472 -1.2312 -0.1786 -1.7782
 1532TIP3   OH226086   2.399   1.612   0.437  0.4159  0.4192  0.2203
 1532TIP3    H126087   2.476   1.657   0.473  0.3180  0.9213 -0.1923
 1532TIP3    H226088   2.424   1.520   0.435  0.7920  0.5092  0.6394
 1533TIP3   OH226089   3.038   5.442   2.976 -0.1279 -0.1030  0.3673
 1533TIP3    H126090   3.023   5.433   3.070  0.4446 -0.2109  0.4493
 1533TIP3    H226091   2.995   5.524   2.952 -0.5770 -0.2534  0.6562
 1534TIP3   OH226092   1.841   5.860  11.353  0.2956 -0.4660  0.1206
 1534TIP3    H126093   1.934   5.862  11.330 -0.0082 -0.5785 -1.1792
 1534TIP3    H226094   1.835   5.793  11.421  0.7177 -2.8468 -2.0846
 1535TIP3   OH226095   6.057   2.992   1.032 -0.2938  0.0925  0.0360
 1535TIP3    H126096   6.149   3.016   1.041 -0.3835  0.6126 -0.4194
 1535TIP3    H226097   6.057   2.896   1.035  0.2575  0.0906  0.0598
 1536TIP3   OH226098   0.764   2.267  11.125  0.6261  0.0330  0.0420
 1536TIP3    H126099   0.727   2.296  11.042  2.2520  0.7552 -0.4455
 1536TIP3    H226100   0.704   2.302  11.191 -0.5031 -0.2913 -0.7942
 1537TIP3   OH226101   5.598   2.349   1.973 -0.0561  0.4550  0.3745
 1537TIP3    H126102   5.531   2.332   2.039  0.0455  0.1551  0.4014
 1537TIP3    H226103   5.592   2.443   1.956 -0.0766  0.5353  0.8172
 1538TIP3   OH226104   4.995   5.939   3.263  0.1444 -0.5312  0.3914
 1538TIP3    H126105   5.063   5.963   3.326  0.9765 -1.3319 -0.1845
 1538TIP3    H226106   4.950   6.021   3.243  1.6499  0.2020 -0.0503
 1539TIP3   OH226107   0.028   6.313  15.024 -0.0510 -0.9183  0.4460
 1539TIP3    H126108   0.107   6.351  15.062 -0.0076  0.9730 -1.4293
 1539TIP3    H226109  -0.044   6.363  15.063 -0.2548 -1.6091  0.9793
 1540TIP3   OH226110   1.900   0.319   0.145  0.3554 -0.0544  0.4103
 1540TIP3    H126111   1.915   0.407   0.110 -0.3421  0.2911  0.9490
 1540TIP3    H226112   1.954   0.316   0.225  0.4747 -0.1564  0.3249
 1541TIP3   OH226113   0.622   5.067  13.389  0.8161 -0.0672  0.5187
 1541TIP3    H126114   0.708   5.049  13.427  0.1595 -2.3856  0.9897
 1541TIP3    H226115   0.562   5.009  13.437 -0.4973 -0.8396 -1.9826
 1542TIP3   OH226116   6.032   2.190  15.559  0.4700  0.3418 -0.2774
 1542TIP3    H126117   6.065   2.120  15.616  0.6711 -1.0539 -2.0836
 1542TIP3    H226118   6.110   2.238  15.532  0.3487  1.1919  0.8101
 1543TIP3   OH226119   4.721   4.708   2.745  0.4070 -0.1623  0.1513
 1543TIP3    H126120   4.784   4.706   2.816  0.3020  1.0071  0.2850
 1543TIP3    H226121   4.655   4.643   2.770 -0.0492  0.8140  1.5153
 1544TIP3   OH226122   3.065   3.010  12.818 -0.1998 -0.0877  0.2753
 1544TIP3    H126123   2.998   3.076  12.803 -0.3688  0.0085  1.4831
 1544TIP3    H226124   3.124   3.019  12.743 -1.0854  0.3670 -0.3699
 1545TIP3   OH226125   3.896   4.297   4.703  0.0039 -0.0833  0.2052
 1545TIP3    H126126   3.923   4.334   4.787 -0.7265  1.0394 -0.0476
 1545TIP3    H226127   3.960   4.227   4.687  0.6006  0.1790  1.3279
 1546TIP3   OH226128   0.866   3.563   3.296  0.6436 -0.5385 -0.3459
 1546TIP3    H126129   0.961   3.568   3.307  0.5876  0.1794 -0.1446
 1546TIP3    H226130   0.838   3.494   3.356  0.7107  1.2067  1.7665
 1547TIP3   OH226131   3.931   0.162   0.296 -0.5701  0.2363 -0.4432
 1547TIP3    H126132   3.972   0.248   0.285  1.0659 -0.2235  1.6017
 1547TIP3    H226133   3.837   0.180   0.301 -0.3672  1.6950 -1.8775
 1548TIP3   OH226134   3.277   1.685  17.130 -0.7978 -0.2561  0.0063
 1548TIP3    H126135   3.346   1.656  17.189  0.4894 -1.3363 -1.9709
 1548TIP3    H226136   3.222   1.607  17.117  0.6433 -0.9133 -2.5219
 1549TIP3   OH226137   1.623   5.437   4.122 -0.1151  0.2530  0.0346
 1549TIP3    H126138   1.642   5.514   4.069  2.3917  0.5933  1.3333
 1549TIP3    H226139   1.670   5.453   4.204 -1.5478 -1.5671  1.2556
 1550TIP3   OH226140   1.935   2.869  12.744 -0.2494 -0.0995  0.1543
 1550TIP3    H126141   1.872   2.825  12.687 -0.2213 -1.6353  1.2718
 1550TIP3    H226142   1.919   2.832  12.831  1.4538  0.2914  0.6519
 1551TIP3   OH226143   3.339   1.370   6.562  0.0743  0.7900 -0.3850
 1551TIP3    H126144   3.423   1.327   6.578 -1.4603 -3.0001 -1.9538
 1551TIP3    H226145   3.289   1.355   6.642  0.1942  1.4003 -0.1903
 1552TIP3   OH226146   2.798   0.428  16.726 -0.2330 -0.0590  0.5085
 1552TIP3    H126147   2.855   0.502  16.703  1.4613 -1.8824 -1.2858
 1552TIP3    H226148   2.819   0.410  16.818  0.2976  0.8601  0.5781
 1553TIP3   OH226149   5.816   4.659   4.233  0.5766  0.4335  0.0192
 1553TIP3    H126150   5.905   4.650   4.197  0.5928 -0.7996  0.3580
 1553TIP3    H226151   5.815   4.747   4.270  1.5962  0.5359 -0.1649
 1554TIP3   OH226152   5.858   5.959   6.314 -0.1767 -0.0834 -0.3711
 1554TIP3    H126153   5.850   5.912   6.231  0.5713 -1.6750  0.4270
 1554TIP3    H226154   5.767   5.976   6.341 -0.4119  1.0360 -1.8242
 1555TIP3   OH226155   1.910   4.994   4.790  0.0377  0.0142  0.3393
 1555TIP3    H126156   1.844   4.926   4.807  0.2125  0.0274  1.1094
 1555TIP3    H226157   1.874   5.073   4.830 -0.0830  0.3296 -0.4005
 1556TIP3   OH226158   4.035   0.475  15.405  0.3303 -0.4469 -0.9747
 1556TIP3    H126159   3.992   0.560  15.408  1.1291 -0.0478 -0.1961
 1556TIP3    H226160   3.971   0.414  15.442  0.8149  0.3244  1.2333
 1557TIP3   OH226161   2.337   2.457   0.117  0.0938 -0.1067 -0.3342
 1557TIP3    H126162   2.242   2.460   0.118  0.0638 -0.7091 -1.2519
 1557TIP3    H226163   2.361   2.460   0.024  0.9240 -1.3082 -0.1731
 1558TIP3   OH226164   4.178   6.760  17.203 -0.0257  0.2128 -0.0369
 1558TIP3    H126165   4.110   6.693  17.198  2.4589 -2.4027  0.0725
 1558TIP3    H226166   4.200   6.766  17.296  2.9439 -2.1847 -0.5375
 1559TIP3   OH226167   4.929   0.839   2.213  0.1110  0.1505 -0.1870
 1559TIP3    H126168   4.920   0.838   2.308  3.0600 -0.4790  0.1256
 1559TIP3    H226169   4.975   0.758   2.191 -2.1004 -0.5790 -2.3521
 1560TIP3   OH226170   6.761   2.215   4.615  0.2529 -0.3320  0.0003
 1560TIP3    H126171   6.722   2.218   4.703 -0.4398 -1.8637 -0.2279
 1560TIP3    H226172   6.853   2.194   4.631  0.2830  0.0943  0.3941
 1561TIP3   OH226173   4.033   6.691   4.506 -0.5822  0.2499 -0.1091
 1561TIP3    H126174   3.943   6.684   4.538 -1.0814 -1.3125 -1.7582
 1561TIP3    H226175   4.040   6.779   4.471 -1.4769  0.3700  0.0081
 1562TIP3   OH226176   4.982   2.777  11.983 -0.3852 -0.4036 -0.3987
 1562TIP3    H126177   5.067   2.801  12.019 -1.1979  2.7265 -0.4161
 1562TIP3    H226178   4.995   2.773  11.889 -0.3360  0.4776 -0.4335
 1563TIP3   OH226179   4.386   6.333   6.119 -0.1395  0.2991 -0.5200
 1563TIP3    H126180   4.348   6.421   6.110 -0.6098  0.3065  1.4119
 1563TIP3    H226181   4.317   6.281   6.159  0.1545 -0.9556 -1.6364
 1564TIP3   OH226182   1.963   4.290  15.465 -0.2232 -0.0801  0.0814
 1564TIP3    H126183   2.011   4.290  15.548  1.3480 -1.9213 -0.8095
 1564TIP3    H226184   1.925   4.203  15.458 -1.1541  0.3710 -0.6997
 1565TIP3   OH226185   1.050   1.171  16.390  0.3622 -0.1078  0.4747
 1565TIP3    H126186   0.987   1.239  16.365  0.5117 -0.5005 -1.0356
 1565TIP3    H226187   1.024   1.146  16.479 -1.0953  0.3351  0.1888
 1566TIP3   OH226188   6.504   0.372   6.063  0.4082 -0.2320  0.4262
 1566TIP3    H126189   6.541   0.461   6.063 -1.1787  0.4593  1.0671
 1566TIP3    H226190   6.429   0.378   6.123 -1.1018 -1.4139 -1.2913
 1567TIP3   OH226191   0.219   2.505   1.986  0.2731  0.0358 -0.4139
 1567TIP3    H126192   0.265   2.422   1.981  0.4217  0.2356 -3.0646
 1567TIP3    H226193   0.142   2.494   1.930 -1.2101  0.7678  1.4267
 1568TIP3   OH226194   4.391   1.190  11.868 -0.0805  0.3562  0.3620
 1568TIP3    H126195   4.420   1.135  11.794 -1.1619 -1.2711  1.1126
 1568TIP3    H226196   4.388   1.279  11.832  1.6915 -0.0629 -0.8931
 1569TIP3   OH226197   3.454   5.442   1.698 -0.2815  0.0938 -0.0888
 1569TIP3    H126198   3.451   5.537   1.683  0.5558  0.0642 -0.4770
 1569TIP3    H226199   3.367   5.411   1.673 -0.8362  0.8738  0.8380
 1570TIP3   OH226200   2.100   5.027  11.610 -0.2736 -0.2114  0.4076
 1570TIP3    H126201   2.079   5.085  11.536  0.2806 -0.1224  0.3228
 1570TIP3    H226202   2.132   5.086  11.678 -0.3738 -0.3436  0.5705
 1571TIP3   OH226203   1.575   1.215   5.745  0.0545  0.5252 -0.8001
 1571TIP3    H126204   1.635   1.182   5.812 -0.7215 -0.8661 -0.7657
 1571TIP3    H226205   1.520   1.278   5.791 -1.6704 -1.7518  0.3305
 1572TIP3   OH226206   4.454   3.441   1.853  0.5957  0.4258 -0.4002
 1572TIP3    H126207   4.368   3.419   1.888 -0.0045  1.4912 -1.1935
 1572TIP3    H226208   4.441   3.448   1.758  1.7964 -0.5273 -0.6559
 1573TIP3   OH226209   4.027   0.694   7.007 -0.1657 -0.2313 -0.1080
 1573TIP3    H126210   4.084   0.728   6.938  1.1253  1.7007  1.8554
 1573TIP3    H226211   4.069   0.612   7.034  0.4488  0.0476 -0.2158
 1574TIP3   OH226212   1.173   2.325  14.172 -0.2829  0.1227  0.9635
 1574TIP3    H126213   1.178   2.259  14.241 -0.4357 -1.5984 -0.6588
 1574TIP3    H226214   1.086   2.314  14.134  1.1061 -1.4160 -1.9122
 1575TIP3   OH226215   0.779   1.085  10.849 -0.4105  0.7841  0.4562
 1575TIP3    H126216   0.810   1.082  10.939 -0.3050  2.1963  0.4859
 1575TIP3    H226217   0.838   1.146  10.805 -0.1958 -0.2226 -0.6782
 1576TIP3   OH226218   2.606   2.075  11.344 -0.1867  0.1606 -0.1079
 1576TIP3    H126219   2.571   2.145  11.289 -0.3724 -0.6013 -0.9703
 1576TIP3    H226220   2.687   2.048  11.300 -1.1423 -1.5078 -0.8644
 1577TIP3   OH226221   0.509   3.762   5.592 -0.2959  0.1271 -0.2542
 1577TIP3    H126222   0.571   3.691   5.609 -0.7380 -0.6157 -1.6553
 1577TIP3    H226223   0.481   3.791   5.678  3.5302  1.8501  0.4736
 1578TIP3   OH226224   4.626   4.522   0.680 -0.2271 -0.0051 -0.0151
 1578TIP3    H126225   4.656   4.462   0.748  1.0691 -0.2054 -0.7636
 1578TIP3    H226226   4.540   4.551   0.711  0.0160 -0.6767  1.3377
 1579TIP3   OH226227   0.595   0.915   4.759 -0.3773  0.1482  0.0573
 1579TIP3    H126228   0.575   0.976   4.688 -2.3341 -0.3511  0.1554
 1579TIP3    H226229   0.686   0.892   4.745 -0.5181  0.6384 -1.8560
 1580TIP3   OH226230   5.513   3.471  12.722  0.2275 -0.1937 -0.4150
 1580TIP3    H126231   5.568   3.402  12.761  2.1941  1.8259  0.5331
 1580TIP3    H226232   5.565   3.504  12.649 -1.5809 -1.0234 -2.1248
 1581TIP3   OH226233   4.832   0.840   1.939  0.1424 -0.0587 -0.2568
 1581TIP3    H126234   4.898   0.851   2.007  0.9938  1.3309 -1.2870
 1581TIP3    H226235   4.881   0.814   1.861 -0.8170 -1.5795 -0.3795
 1582TIP3   OH226236   2.296   3.209  10.685  0.0290 -0.2462 -0.2057
 1582TIP3    H126237   2.353   3.145  10.641 -0.4175 -0.3319 -0.6580
 1582TIP3    H226238   2.348   3.289  10.686  1.0727 -0.9120  1.4307
 1583TIP3   OH226239   2.147   1.909  11.904 -0.4999  0.3250 -0.5085
 1583TIP3    H126240   2.125   1.901  11.997  0.4547  0.1932 -0.2900
 1583TIP3    H226241   2.062   1.914  11.860 -0.9581  0.5497  0.3807
 1584TIP3   OH226242   0.341   1.022  17.102 -0.1474 -0.4903 -0.7634
 1584TIP3    H126243   0.267   0.972  17.138 -0.7907 -0.2684 -1.7374
 1584TIP3    H226244   0.408   1.019  17.170 -1.9191  1.2793  1.1110
 1585TIP3   OH226245   3.990   3.916  12.733  0.3358 -0.1685 -0.2009
 1585TIP3    H126246   4.030   3.959  12.809 -1.1545  0.1158  0.4299
 1585TIP3    H226247   3.973   3.827  12.762  0.7464 -0.3674 -0.5605
 1586TIP3   OH226248   4.610   0.675  13.992  0.0148 -0.4801 -0.0831
 1586TIP3    H126249   4.541   0.742  13.997  0.1737 -0.4514  3.1213
 1586TIP3    H226250   4.563   0.592  13.984 -0.2972 -0.2664 -0.4848
 1587TIP3   OH226251   4.424   0.847  12.353 -0.7328 -0.0459 -0.3803
 1587TIP3    H126252   4.330   0.849  12.371 -0.2077 -0.4812  2.7271
 1587TIP3    H226253   4.452   0.761  12.385  0.7904  0.2334 -0.9408
 1588TIP3   OH226254   3.718   0.922  12.286  0.2955  0.2512 -0.1787
 1588TIP3    H126255   3.762   0.954  12.207  2.2568  3.1253  1.9931
 1588TIP3    H226256   3.788   0.884  12.339 -0.8717 -0.7870  0.6534
 1589TIP3   OH226257   5.912   0.755  16.345 -0.9807  0.3851  0.0608
 1589TIP3    H126258   5.991   0.806  16.327  0.1165 -1.3898 -0.2623
 1589TIP3    H226259   5.942   0.681  16.397 -2.4736 -0.1804  0.1560
 1590TIP3   OH226260   1.687   2.279  10.895  0.0662 -0.6006 -0.1268
 1590TIP3    H126261   1.713   2.261  10.986 -2.0123 -0.2863  0.5487
 1590TIP3    H226262   1.619   2.346  10.903  1.0151  0.6362 -2.0436
 1591TIP3   OH226263   5.610   3.460   4.233  0.0842  0.3255 -0.0482
 1591TIP3    H126264   5.573   3.503   4.155 -2.6407  1.8851  2.0189
 1591TIP3    H226265   5.679   3.519   4.262 -0.4353  0.9115  0.0176
 1592TIP3   OH226266   3.699   2.970   3.153  0.5425  0.2517 -0.0656
 1592TIP3    H126267   3.755   3.031   3.106  0.8739 -0.4920 -0.6384
 1592TIP3    H226268   3.728   2.977   3.244 -1.2103  2.9115  0.3504
 1593TIP3   OH226269   6.222   6.474   2.849  0.8228 -0.1346  0.5374
 1593TIP3    H126270   6.287   6.497   2.915  2.2999 -0.4935 -0.7746
 1593TIP3    H226271   6.238   6.382   2.830 -0.3128 -0.3246  0.4616
 1594TIP3   OH226272   2.263   5.490  12.291 -0.4437  0.1391 -0.0637
 1594TIP3    H126273   2.313   5.424  12.244  0.4027  2.7462 -2.9682
 1594TIP3    H226274   2.328   5.554  12.319 -1.4973  0.7735  1.0173
 1595TIP3   OH226275   2.556   6.416  17.042  0.0096  0.1703  0.6217
 1595TIP3    H126276   2.465   6.387  17.040  0.1905 -0.3787  0.2302
 1595TIP3    H226277   2.552   6.506  17.075 -0.8912  0.9941 -1.6688
 1596TIP3   OH226278   5.842   3.254  14.923 -0.1635  0.4962 -0.0980
 1596TIP3    H126279   5.903   3.181  14.909  0.8329  1.4201 -0.7411
 1596TIP3    H226280   5.760   3.213  14.950 -0.0540 -0.9617 -1.8799
 1597TIP3   OH226281   0.489   2.272   2.157 -0.0263 -0.8340 -0.1822
 1597TIP3    H126282   0.398   2.290   2.181  0.0282 -1.0798  0.2332
 1597TIP3    H226283   0.535   2.353   2.175  0.2046 -1.3158  1.5919
 1598TIP3   OH226284   6.368   6.230   4.354 -0.3429 -0.3423 -0.2295
 1598TIP3    H126285   6.446   6.223   4.299  1.4023  0.1110  2.0971
 1598TIP3    H226286   6.380   6.163   4.421 -1.9683 -0.2793  0.1427
 1599TIP3   OH226287   1.272   4.023   1.492 -0.1750  0.5066  0.0822
 1599TIP3    H126288   1.358   3.992   1.463  0.6055  1.2239  1.5486
 1599TIP3    H226289   1.231   4.058   1.413  1.0955  0.6402 -0.5355
 1600TIP3   OH226290   4.432   4.611   2.491 -0.1530  0.0532 -0.1352
 1600TIP3    H126291   4.525   4.610   2.514 -0.6150  1.6977  1.9169
 1600TIP3    H226292   4.405   4.520   2.503  1.3190 -0.5707 -1.3600
 1601TIP3   OH226293   2.279   0.251  14.124  0.7133 -0.4511  0.2912
 1601TIP3    H126294   2.311   0.223  14.209 -0.8414 -1.1602  0.6577
 1601TIP3    H226295   2.263   0.169  14.076  0.9713 -0.0755 -0.4458
 1602TIP3   OH226296   0.625   4.966  14.724 -0.1396  0.3090  0.9706
 1602TIP3    H126297   0.537   4.980  14.691  0.2512 -0.5036 -0.4667
 1602TIP3    H226298   0.641   5.041  14.782 -1.1581  1.3285 -0.0370
 1603TIP3   OH226299   0.652   6.815   0.060  0.4533  0.4699  0.0307
 1603TIP3    H126300   0.620   6.742   0.007  0.6418  1.3762 -1.3293
 1603TIP3    H226301   0.628   6.791   0.150  2.0981 -2.1438 -0.1711
 1604TIP3   OH226302   0.394   4.947   4.118 -0.4132  0.5851 -0.3364
 1604TIP3    H126303   0.480   4.988   4.127 -0.6838  1.3811 -1.3070
 1604TIP3    H226304   0.412   4.864   4.074 -0.0599  0.3784  0.1787
 1605TIP3   OH226305   5.528   6.681  10.851 -0.0040  0.7316  0.3153
 1605TIP3    H126306   5.609   6.724  10.877 -0.9297  2.3077  0.7279
 1605TIP3    H226307   5.479   6.749  10.804 -2.0537  0.5757  2.0919
 1606TIP3   OH226308   2.268   6.788  12.302  0.5124  0.0414 -0.0350
 1606TIP3    H126309   2.207   6.854  12.268 -0.9063 -1.4768 -0.5239
 1606TIP3    H226310   2.303   6.827  12.382 -0.2757  1.4054 -0.3303
 1607TIP3   OH226311   1.366   4.550   2.129 -0.2487  0.8131  0.2723
 1607TIP3    H126312   1.397   4.460   2.135 -0.3545  0.8188  0.9119
 1607TIP3    H226313   1.341   4.561   2.037 -1.7184 -0.3039  0.5204
 1608TIP3   OH226314   3.734   2.464   4.332 -0.0714  0.3929  0.1259
 1608TIP3    H126315   3.812   2.415   4.359 -0.0501  0.4268  0.1252
 1608TIP3    H226316   3.754   2.555   4.353 -0.6275  0.2424  1.3212
 1609TIP3   OH226317   6.428   0.464   2.378 -0.2599 -0.1257 -0.0791
 1609TIP3    H126318   6.471   0.402   2.438 -2.1684 -2.4336 -1.0303
 1609TIP3    H226319   6.481   0.461   2.299 -1.2969 -1.8948 -0.7382
 1610TIP3   OH226320   2.434   0.586   4.951  0.3077 -0.0071  0.5210
 1610TIP3    H126321   2.446   0.630   5.035 -1.8091  0.2778  0.7004
 1610TIP3    H226322   2.344   0.606   4.926  0.6783 -0.6990 -1.4714
 1611TIP3   OH226323   1.317   0.513  12.539 -0.1572  0.1438  0.1620
 1611TIP3    H126324   1.403   0.486  12.506  0.3925  1.8399  0.1542
 1611TIP3    H226325   1.316   0.487  12.631  0.2363 -0.1657  0.0783
 1612TIP3   OH226326   4.902   5.999   5.328 -0.4861 -0.1826  0.0890
 1612TIP3    H126327   4.956   5.981   5.404 -1.3418  1.0151  1.0093
 1612TIP3    H226328   4.837   6.062   5.359 -1.4740 -0.4468 -1.3715
 1613TIP3   OH226329   2.070   4.923  16.076 -0.1277  0.0347  0.5379
 1613TIP3    H126330   2.150   4.935  16.127 -0.0868  1.6649  0.1162
 1613TIP3    H226331   2.085   4.841  16.028  1.3632  0.4140  0.3236
 1614TIP3   OH226332   1.503   3.881   1.492  0.3064 -0.5959  0.2872
 1614TIP3    H126333   1.519   3.813   1.427 -0.1483 -0.0803 -0.3753
 1614TIP3    H226334   1.569   3.866   1.560  1.0197 -0.9274 -0.4688
 1615TIP3   OH226335   4.985   1.982  13.777 -0.0076 -0.1395 -0.3744
 1615TIP3    H126336   4.967   1.929  13.699 -0.0088 -0.5662 -0.0860
 1615TIP3    H226337   4.984   1.920  13.849 -3.0052  0.7089  0.3703
 1616TIP3   OH226338   5.107   6.094  16.784  0.1329 -0.0547 -0.0052
 1616TIP3    H126339   5.087   6.019  16.841  0.3270 -1.0883 -1.2784
 1616TIP3    H226340   5.203   6.101  16.789  0.1546 -0.1828 -0.2502
 1617TIP3   OH226341   3.881   5.459   5.847 -0.0801  0.1089 -0.5235
 1617TIP3    H126342   3.906   5.396   5.779 -2.2044  0.5598 -1.7782
 1617TIP3    H226343   3.927   5.539   5.823 -1.5601  0.5458 -2.0329
 1618TIP3   OH226344   2.841   2.342   0.864 -0.4173 -0.1616 -0.5708
 1618TIP3    H126345   2.763   2.289   0.883 -0.9596  1.0332  0.6508
 1618TIP3    H226346   2.891   2.340   0.946 -0.2013  0.7774 -0.6704
 1619TIP3   OH226347   1.692   1.864  15.046  0.0249  0.1460  0.1660
 1619TIP3    H126348   1.710   1.886  14.955 -2.3617 -0.6913 -0.5406
 1619TIP3    H226349   1.720   1.772  15.054  2.9238  1.0650  1.0871
 1620TIP3   OH226350   2.349   4.078   1.259  0.2228  0.4124  0.0205
 1620TIP3    H126351   2.281   4.013   1.269  0.7691 -0.1788 -0.0616
 1620TIP3    H226352   2.313   4.141   1.197 -0.8916  1.0015  1.2443
 1621TIP3   OH226353   0.818   1.380   3.198 -0.1593  0.8598  0.6437
 1621TIP3    H126354   0.828   1.441   3.125 -0.0773 -1.3223 -1.1983
 1621TIP3    H226355   0.738   1.331   3.177  0.2434 -0.2512  1.6735
 1622TIP3   OH226356   5.488   5.450   1.882 -0.0917  0.0844  0.3137
 1622TIP3    H126357   5.456   5.497   1.805  3.0062  2.8211  0.6381
 1622TIP3    H226358   5.550   5.386   1.848 -1.4478 -1.2512  0.2573
 1623TIP3   OH226359   5.937   3.529  13.143  0.4286 -0.3499 -0.2414
 1623TIP3    H126360   5.853   3.497  13.109  0.6383 -0.7049 -0.4337
 1623TIP3    H226361   5.954   3.609  13.093  0.9515 -1.1061 -1.3070
 1624TIP3   OH226362   6.352   3.696   6.197  0.4216 -0.5219  0.4336
 1624TIP3    H126363   6.350   3.603   6.175  0.4129 -0.5729  0.6490
 1624TIP3    H226364   6.265   3.715   6.231 -0.5280  0.2184 -2.2613
 1625TIP3   OH226365   3.534   0.357   4.172 -0.2936 -0.4271  0.6857
 1625TIP3    H126366   3.496   0.389   4.253 -1.4297 -0.5070  0.1900
 1625TIP3    H226367   3.496   0.412   4.104 -1.8271 -2.3994 -0.1266
 1626TIP3   OH226368   5.622   1.124  16.842  0.1071  0.5872  0.6082
 1626TIP3    H126369   5.705   1.076  16.842 -0.5003 -0.5307 -1.3472
 1626TIP3    H226370   5.593   1.122  16.933  2.1819  0.9164  1.2887
 1627TIP3   OH226371   5.508   2.282  15.524 -0.3892 -0.5474 -0.3976
 1627TIP3    H126372   5.581   2.340  15.503 -0.8875  0.1411 -0.2848
 1627TIP3    H226373   5.471   2.258  15.439 -0.3124 -0.5262 -0.4370
 1628TIP3   OH226374   1.872   4.977  15.875  0.0019  0.0351  0.1989
 1628TIP3    H126375   1.937   5.047  15.878  0.5597 -0.5017  0.8517
 1628TIP3    H226376   1.910   4.907  15.928 -0.6456 -0.6796 -0.2665
 1629TIP3   OH226377   0.306   0.145   3.002 -0.3989  0.1495  0.5925
 1629TIP3    H126378   0.341   0.196   3.075 -0.5943 -0.3086  1.0045
 1629TIP3    H226379   0.313   0.054   3.030 -3.2128  0.1010  1.2403
 1630TIP3   OH226380   1.872   5.981   3.049 -0.1981  0.4845 -0.1555
 1630TIP3    H126381   1.781   5.957   3.033 -0.1170  0.1922 -0.1873
 1630TIP3    H226382   1.890   5.948   3.137  0.1005 -0.1218 -0.4449
 1631TIP3   OH226383   4.699   2.590  17.093 -0.6130  0.7205  0.7055
 1631TIP3    H126384   4.626   2.576  17.032  0.3690  1.8968 -0.7883
 1631TIP3    H226385   4.772   2.616  17.037  1.1636 -1.1011  2.1129
 1632TIP3   OH226386   2.460   5.415  15.392  0.5028  0.5403  0.6564
 1632TIP3    H126387   2.512   5.341  15.423  0.0341 -2.1771 -4.5712
 1632TIP3    H226388   2.371   5.394  15.420  0.8572  0.8835  2.1036
 1633TIP3   OH226389   5.643   2.197   0.560  0.7872  0.0397 -0.0748
 1633TIP3    H126390   5.612   2.263   0.622  0.6329  0.2699 -0.3965
 1633TIP3    H226391   5.682   2.129   0.615 -0.3297 -0.2730  0.3393
 1634TIP3   OH226392   5.580   5.585   0.488  0.2191 -0.1484 -0.3010
 1634TIP3    H126393   5.638   5.656   0.461  1.4350  0.3529  3.3597
 1634TIP3    H226394   5.517   5.627   0.546 -0.9501 -1.5438 -0.5245
 1635TIP3   OH226395   1.945   3.810  12.294  0.0884 -0.3137 -0.1967
 1635TIP3    H126396   1.889   3.858  12.354  1.5509  0.5644  0.5020
 1635TIP3    H226397   2.031   3.852  12.302  0.1475  0.3695 -3.5169
 1636TIP3   OH226398   1.239   1.773  11.736  0.0359  0.3154 -0.5753
 1636TIP3    H126399   1.181   1.740  11.805  2.4302  0.6520  1.6663
 1636TIP3    H226400   1.212   1.726  11.657 -0.2005 -3.0241  1.4053
 1637TIP3   OH226401   6.693   3.932   2.737 -0.5515  0.8372  0.6221
 1637TIP3    H126402   6.622   3.926   2.673  1.7286 -1.2901 -1.8360
 1637TIP3    H226403   6.700   3.844   2.774  2.2033  0.3872 -0.8173
 1638TIP3   OH226404   2.780   1.317   4.405 -0.6556 -0.2794  0.0022
 1638TIP3    H126405   2.864   1.347   4.369 -1.4688  0.7265 -1.1168
 1638TIP3    H226406   2.730   1.291   4.328 -1.8002  0.2336  0.5735
 1639TIP3   OH226407   5.912   6.228   2.384 -0.2813 -0.0160 -0.1961
 1639TIP3    H126408   5.938   6.139   2.359  0.0782  0.2189 -0.6729
 1639TIP3    H226409   5.900   6.224   2.479  1.4716 -0.1334  0.0230
 1640TIP3   OH226410   2.014   5.705   0.309  0.3116  0.0828  0.3358
 1640TIP3    H126411   2.093   5.682   0.359 -0.6609  0.0556  1.8931
 1640TIP3    H226412   1.966   5.622   0.301  0.3160  0.1473 -0.4108
 1641TIP3   OH226413   2.395   6.206   1.707  0.7866 -0.6310  0.7608
 1641TIP3    H126414   2.341   6.133   1.738 -2.1411  0.2151 -2.0016
 1641TIP3    H226415   2.437   6.172   1.628 -0.5306  0.5888 -0.4918
 1642TIP3   OH226416   6.446   2.622  14.453  0.3449  0.4939  0.1848
 1642TIP3    H126417   6.539   2.618  14.429  0.5835  1.6384  0.8657
 1642TIP3    H226418   6.439   2.567  14.531 -0.1045 -1.8706 -1.4883
 1643TIP3   OH226419   6.699   3.437  11.889 -0.0644 -0.1020  0.1948
 1643TIP3    H126420   6.705   3.417  11.796 -1.0769 -0.2924  0.1649
 1643TIP3    H226421   6.776   3.492  11.907  0.9155 -1.2559 -0.4315
 1644TIP3   OH226422   4.551   6.643  11.311 -0.1265 -0.1293  0.2080
 1644TIP3    H126423   4.603   6.650  11.390 -1.3271 -2.3097  1.2477
 1644TIP3    H226424   4.578   6.560  11.272 -0.6886  0.1598 -0.8187
 1645TIP3   OH226425   1.476   2.824  13.250  0.0594 -0.1984 -0.1370
 1645TIP3    H126426   1.499   2.810  13.158  3.8813  0.4487  0.6204
 1645TIP3    H226427   1.438   2.912  13.253  3.7328  1.4884 -0.5727
 1646TIP3   OH226428   1.060   4.746  14.784  0.2514  0.4712  0.1719
 1646TIP3    H126429   1.101   4.670  14.743  1.0117  0.9375  0.0609
 1646TIP3    H226430   0.987   4.768  14.726  0.5283  0.3263 -0.2327
 1647TIP3   OH226431   6.465   1.959   4.273  0.1775 -0.2011 -0.0663
 1647TIP3    H126432   6.559   1.939   4.267  0.0497 -0.9651  0.5031
 1647TIP3    H226433   6.456   2.011   4.352  0.2440  0.5836 -0.5750
 1648TIP3   OH226434   1.603   3.148   3.740 -0.9682  0.5864 -0.6480
 1648TIP3    H126435   1.675   3.139   3.676  1.0418 -0.4140  1.6536
 1648TIP3    H226436   1.579   3.058   3.761 -0.8207  0.8892  0.8517
 1649TIP3   OH226437   5.747   2.806  16.826 -0.5457  0.0090  0.1978
 1649TIP3    H126438   5.807   2.790  16.898  0.0036 -0.5490 -0.3719
 1649TIP3    H226439   5.753   2.728  16.772 -0.8421  0.4789 -0.5289
 1650TIP3   OH226440   1.404   1.300  15.819  0.0938 -0.1760 -0.3235
 1650TIP3    H126441   1.342   1.232  15.793  0.2230 -0.5083  0.2183
 1650TIP3    H226442   1.363   1.341  15.895  0.7747 -0.7479  0.3658
 1651TIP3   OH226443   3.658   1.284   1.690  0.5132  0.3674 -1.1215
 1651TIP3    H126444   3.744   1.242   1.686  0.2762 -0.1987 -0.4760
 1651TIP3    H226445   3.618   1.247   1.768  0.3355  1.8955 -0.4831
 1652TIP3   OH226446   2.932   1.360  14.381  0.4550  0.4806  0.4513
 1652TIP3    H126447   2.906   1.395  14.467 -0.0512 -0.5841  0.7430
 1652TIP3    H226448   2.913   1.266  14.387  1.4757  0.2164 -0.4398
 1653TIP3   OH226449   3.745   2.145  16.489 -0.1522  0.7627 -0.2259
 1653TIP3    H126450   3.777   2.196  16.564 -0.1040 -0.1378  0.3654
 1653TIP3    H226451   3.815   2.154  16.424  1.0956 -0.7197  0.8553
 1654TIP3   OH226452   3.728   0.870  13.008  0.3202 -0.0416 -0.4618
 1654TIP3    H126453   3.815   0.834  12.994  0.0070 -1.1562  0.4647
 1654TIP3    H226454   3.668   0.801  12.980 -0.2869  0.8043 -1.3185
 1655TIP3   OH226455   3.620   4.395  13.778 -0.3567  0.0742  0.0265
 1655TIP3    H126456   3.635   4.455  13.705 -0.7715  0.3256  0.1488
 1655TIP3    H226457   3.578   4.448  13.845  0.9961  0.1089  0.8731
 1656TIP3   OH226458   0.631   5.577   3.207  0.6602  0.1723  0.0595
 1656TIP3    H126459   0.574   5.564   3.131 -0.6491  0.7761  0.9232
 1656TIP3    H226460   0.719   5.582   3.170  0.1656 -0.8288 -1.2928
 1657TIP3   OH226461   2.389   1.144  12.877  0.0179  0.4345 -0.2037
 1657TIP3    H126462   2.416   1.080  12.810 -0.8972 -2.3259  1.9604
 1657TIP3    H226463   2.468   1.160  12.928 -0.6029 -2.0947  1.6741
 1658TIP3   OH226464   1.724   2.287   3.549 -0.1424  0.3746 -0.0450
 1658TIP3    H126465   1.717   2.215   3.486  1.4555 -2.9377  3.3189
 1658TIP3    H226466   1.681   2.253   3.628  1.0554  2.9525  1.7748
 1659TIP3   OH226467   1.769   1.583  13.759  0.5039 -0.1745 -0.5219
 1659TIP3    H126468   1.682   1.623  13.765  0.5673 -0.1747  0.3707
 1659TIP3    H226469   1.779   1.534  13.840  1.3261 -0.2125 -0.6403
 1660TIP3   OH226470   3.571   3.240   0.903 -0.2650 -0.0966 -0.7855
 1660TIP3    H126471   3.661   3.228   0.874 -0.2281  1.1721 -1.2416
 1660TIP3    H226472   3.561   3.335   0.912 -1.4646 -0.2444 -0.4575
 1661TIP3   OH226473   1.690   5.434   0.952  0.0008  0.7112 -0.0736
 1661TIP3    H126474   1.742   5.514   0.954 -0.5073  1.0385  0.1319
 1661TIP3    H226475   1.687   5.405   1.044  1.5036 -0.4122 -0.3428
 1662TIP3   OH226476   2.061   5.172  15.872  0.3086 -0.2731  0.0590
 1662TIP3    H126477   2.146   5.130  15.884  0.5588 -0.5385 -2.2786
 1662TIP3    H226478   2.077   5.265  15.887  0.7939 -0.4424  0.6003
 1663TIP3   OH226479   6.676   4.409  14.995  0.3745  0.3206  0.8288
 1663TIP3    H126480   6.657   4.495  15.034 -1.8481 -0.5329  1.6774
 1663TIP3    H226481   6.596   4.386  14.949  0.8484 -1.4467  0.8794
 1664TIP3   OH226482   3.878   6.797   1.898  0.1814  0.4226  0.2129
 1664TIP3    H126483   3.828   6.717   1.888  0.0547  0.4542  0.5894
 1664TIP3    H226484   3.813   6.864   1.918  0.3811  0.4411  0.8223
 1665TIP3   OH226485   3.404   3.254   2.174  0.4682  0.0575 -0.3234
 1665TIP3    H126486   3.318   3.213   2.184  0.4987  0.1040  0.1254
 1665TIP3    H226487   3.427   3.284   2.262  0.6808  0.5695 -0.5489
 1666TIP3   OH226488   0.034   4.055   5.234  0.4253 -0.0557 -0.3365
 1666TIP3    H126489  -0.009   4.079   5.153  2.4002 -0.5661 -1.5698
 1666TIP3    H226490  -0.036   4.019   5.289 -1.3149  2.2387 -0.9804
 1667TIP3   OH226491   1.375   3.465  15.393  0.5072 -0.5340  0.4122
 1667TIP3    H126492   1.441   3.533  15.385  0.7083 -0.5402  1.8564
 1667TIP3    H226493   1.325   3.471  15.312  0.2078  1.6632  0.7186
 1668TIP3   OH226494   3.342   1.958   1.963 -0.6302 -0.0672 -0.2352
 1668TIP3    H126495   3.412   1.996   1.909  0.8617 -1.7871  0.4128
 1668TIP3    H226496   3.264   2.007   1.940  0.4772  0.8318 -2.1783
 1669TIP3   OH226497   1.125   5.114   0.707 -0.5088  0.6115  0.2385
 1669TIP3    H126498   1.202   5.171   0.709 -1.2543  1.5927  1.4189
 1669TIP3    H226499   1.161   5.026   0.720  0.5259  0.9331 -0.3980
 1670TIP3   OH226500   2.446   0.931  13.116  0.2276  0.1079  0.0246
 1670TIP3    H126501   2.483   0.990  13.181  2.4442  0.3936 -1.4062
 1670TIP3    H226502   2.395   0.987  13.058 -1.0484 -0.0174  1.0303
 1671TIP3   OH226503   1.325   6.572   4.280  0.3749 -0.5500  0.3744
 1671TIP3    H126504   1.303   6.483   4.252  0.2272 -0.9797  1.8395
 1671TIP3    H226505   1.420   6.573   4.284  0.4325 -0.2512 -0.8898
 1672TIP3   OH226506   5.729   3.107  14.444 -0.0918 -0.3116 -0.2324
 1672TIP3    H126507   5.803   3.048  14.428  0.1034  0.7174 -3.3102
 1672TIP3    H226508   5.768   3.189  14.472 -0.2945 -0.9660  2.1288
 1673TIP3   OH226509   6.355   2.402   5.252 -0.0199  0.5559 -0.1226
 1673TIP3    H126510   6.342   2.362   5.166  0.7697  2.1362 -1.0027
 1673TIP3    H226511   6.348   2.496   5.235 -0.0662  0.8720  1.5924
 1674TIP3   OH226512   4.969   6.702  14.557  0.0184 -0.0138  0.1545
 1674TIP3    H126513   4.982   6.609  14.577 -1.5885 -0.4075 -0.4921
 1674TIP3    H226514   4.881   6.721  14.590 -0.0769  1.0091 -0.6708
 1675TIP3   OH226515   3.914   4.958   0.333 -0.0250 -0.0691  0.5358
 1675TIP3    H126516   3.934   4.905   0.411  0.5935 -0.1217  0.3432
 1675TIP3    H226517   3.839   5.012   0.360 -0.5462 -0.9024  0.7985
 1676TIP3   OH226518   4.327   2.671   4.579  0.4149  0.2543  0.2998
 1676TIP3    H126519   4.383   2.686   4.655  0.1230  2.6847  0.0813
 1676TIP3    H226520   4.326   2.576   4.568  2.6858  0.0379  1.6563
 1677TIP3   OH226521   6.713   2.399  13.652  0.1265 -0.0327 -0.0752
 1677TIP3    H126522   6.784   2.457  13.679  0.0039 -1.5168  3.7063
 1677TIP3    H226523   6.635   2.434  13.695 -0.3026 -1.7920  0.6440
 1678TIP3   OH226524   0.619   5.898  12.610  0.3819 -0.0746 -0.1403
 1678TIP3    H126525   0.573   5.977  12.639  1.7943  0.6663  0.1585
 1678TIP3    H226526   0.564   5.826  12.639 -0.4375  0.7868  0.4776
 1679TIP3   OH226527   4.555   1.859   5.277  0.2963 -0.6310 -0.5456
 1679TIP3    H126528   4.589   1.775   5.308 -0.2396 -0.6386  0.0418
 1679TIP3    H226529   4.524   1.841   5.188  1.5565 -0.6883 -0.9887
 1680TIP3   OH226530   4.378   2.924   1.339 -0.3122 -0.3938 -0.1817
 1680TIP3    H126531   4.437   2.990   1.377 -0.6447 -0.1372 -0.1057
 1680TIP3    H226532   4.292   2.966   1.340 -0.3913 -0.5214 -0.8750
 1681TIP3   OH226533   6.431   4.406   6.006  0.1216  0.1782 -0.2376
 1681TIP3    H126534   6.456   4.353   6.082  2.2433 -0.1177 -1.1231
 1681TIP3    H226535   6.436   4.496   6.037 -1.8659 -0.0228  0.7850
 1682TIP3   OH226536   5.741   0.689  13.220 -0.0116  0.1522 -0.0523
 1682TIP3    H126537   5.746   0.611  13.276  0.5852  0.9637  1.0539
 1682TIP3    H226538   5.799   0.753  13.263 -1.7513  1.7626 -0.0414
 1683TIP3   OH226539   2.888   4.741  14.615  0.6107 -0.3812 -0.0588
 1683TIP3    H126540   2.918   4.829  14.639  0.6288 -0.9081  1.9454
 1683TIP3    H226541   2.815   4.756  14.555  0.4690  1.0109  0.4383
 1684TIP3   OH226542   5.846   0.236  12.755 -0.1424 -0.4784 -0.1458
 1684TIP3    H126543   5.800   0.216  12.674 -1.4665  0.1034  0.4548
 1684TIP3    H226544   5.777   0.249  12.820  0.8662  0.0953  0.8361
 1685TIP3   OH226545   6.407   3.905   1.042 -0.0882 -0.1927  0.0831
 1685TIP3    H126546   6.398   3.868   1.130  2.3943  1.4926  1.0986
 1685TIP3    H226547   6.465   3.843   0.997 -0.9436 -0.7869 -0.2035
 1686TIP3   OH226548   5.567   4.770  12.951  0.1913  0.1517 -0.3256
 1686TIP3    H126549   5.572   4.722  12.868 -1.2985 -1.9546  0.7506
 1686TIP3    H226550   5.484   4.817  12.947 -0.9504 -1.7158  0.8574
 1687TIP3   OH226551   3.753   4.105  15.368  0.2172  0.2850  0.3087
 1687TIP3    H126552   3.815   4.119  15.296 -1.3314 -0.2085 -1.1599
 1687TIP3    H226553   3.676   4.067  15.326 -1.0706  0.8333  2.1047
 1688TIP3   OH226554   5.779   0.452   5.648 -0.2197  0.4696  0.0476
 1688TIP3    H126555   5.796   0.502   5.727  0.8992  0.2816 -0.0669
 1688TIP3    H226556   5.823   0.368   5.663 -1.2657 -0.1281 -0.1553
 1689TIP3   OH226557   2.595   5.574   4.038  1.0247  0.6254  0.0911
 1689TIP3    H126558   2.607   5.605   4.128  1.7714 -2.3745  1.0999
 1689TIP3    H226559   2.561   5.650   3.990 -0.6782  1.9278  3.1991
 1690TIP3   OH226560   3.867   4.342   3.696  0.1506  0.0504 -0.3115
 1690TIP3    H126561   3.813   4.349   3.617 -0.4247  1.4189  0.1810
 1690TIP3    H226562   3.844   4.257   3.734 -1.1165  0.2968 -0.5148
 1691TIP3   OH226563   3.460   3.626   1.452  0.2435 -0.3269  0.3447
 1691TIP3    H126564   3.554   3.630   1.435  0.2269 -0.3875  0.2398
 1691TIP3    H226565   3.451   3.564   1.525  0.2874 -0.2991  0.3733
 1692TIP3   OH226566   0.830   2.933   4.909 -0.1879  0.1597  0.3021
 1692TIP3    H126567   0.851   2.953   5.000  3.4795  3.8513 -1.1929
 1692TIP3    H226568   0.858   3.011   4.861 -0.7014 -2.2746 -4.1763
 1693TIP3   OH226569   0.293   4.589  11.856 -0.2922  0.4301 -0.4756
 1693TIP3    H126570   0.333   4.606  11.771 -1.2355 -0.0441 -1.0235
 1693TIP3    H226571   0.358   4.618  11.920  0.0773  1.5802 -1.3577
 1694TIP3   OH226572   2.239   6.020   1.017 -0.0997  0.2177 -0.1223
 1694TIP3    H126573   2.154   6.001   1.057 -0.0322 -1.7592 -0.8662
 1694TIP3    H226574   2.217   6.072   0.939 -0.6035 -0.0518 -0.1639
 1695TIP3   OH226575   5.166   0.126  14.625  0.7393 -0.2077  0.5903
 1695TIP3    H126576   5.083   0.079  14.611  1.3446 -1.0359 -0.2403
 1695TIP3    H226577   5.227   0.058  14.653  0.9357  0.5437  2.0152
 1696TIP3   OH226578   6.582   2.277  11.831  1.3517 -0.2895 -0.5820
 1696TIP3    H126579   6.659   2.241  11.787  1.2356 -0.2816 -0.7913
 1696TIP3    H226580   6.519   2.291  11.761  1.2652 -0.0198 -0.4493
 1697TIP3   OH226581   3.547   2.277   0.476  0.3871  0.1978 -0.2489
 1697TIP3    H126582   3.640   2.254   0.468  0.2235 -0.1876 -1.0825
 1697TIP3    H226583   3.513   2.215   0.541  0.6442  0.1334 -0.1728
 1698TIP3   OH226584   2.028   1.712   2.037  0.3964 -0.2366  0.0025
 1698TIP3    H126585   2.096   1.752   2.091 -1.6143  1.3927  1.4250
 1698TIP3    H226586   2.041   1.618   2.046  2.3501  0.0513  0.3604
 1699TIP3   OH226587   1.522   3.621  12.581 -0.2822  0.1995  0.1595
 1699TIP3    H126588   1.572   3.562  12.525  0.4121 -0.7394  1.7151
 1699TIP3    H226589   1.490   3.565  12.652 -0.6613  1.4614  1.0136
 1700TIP3   OH226590   0.015   3.874  10.709 -0.2915 -0.1718 -0.1081
 1700TIP3    H126591  -0.027   3.960  10.699 -2.0510 -1.1625 -1.4517
 1700TIP3    H226592   0.076   3.869  10.635 -2.8148 -1.5249 -2.1807
 1701TIP3   OH226593   3.114   1.234   1.250  0.2792 -0.3558  0.1223
 1701TIP3    H126594   3.147   1.253   1.338  1.1389 -0.7369 -0.1152
 1701TIP3    H226595   3.178   1.276   1.191 -0.4875  0.2165 -0.3179
 1702TIP3   OH226596   4.832   0.993  17.040  0.4611  0.0321 -0.2474
 1702TIP3    H126597   4.748   1.014  17.079  0.3530  0.1821 -0.5628
 1702TIP3    H226598   4.897   1.037  17.096  0.1910  2.0786 -1.4816
 1703TIP3   OH226599   6.417   1.840  12.516  0.4740 -0.2253  0.2762
 1703TIP3    H126600   6.344   1.854  12.456 -0.3507 -0.3116  1.2284
 1703TIP3    H226601   6.378   1.849  12.603  1.8107  0.7535  0.8002
 1704TIP3   OH226602   2.215   3.024   4.605 -0.1653  0.4275 -0.4484
 1704TIP3    H126603   2.309   3.016   4.620  0.0418 -1.7639 -2.4352
 1704TIP3    H226604   2.208   3.076   4.525 -0.7366  2.0029  0.6034
 1705TIP3   OH226605   1.765   6.514  11.201 -0.3346  0.3859  0.6184
 1705TIP3    H126606   1.718   6.554  11.129 -2.6016 -2.2708  0.5280
 1705TIP3    H226607   1.766   6.581  11.270 -2.6034  1.1815 -0.0835
 1706TIP3   OH226608   0.636   3.002  12.769 -0.0064 -0.4900  0.4896
 1706TIP3    H126609   0.588   2.973  12.692 -0.2345 -0.9229  0.7957
 1706TIP3    H226610   0.569   3.024  12.833  0.1960 -1.1928  0.9542
 1707TIP3   OH226611   2.613   5.140  14.688 -0.0623 -0.3346  0.2405
 1707TIP3    H126612   2.603   5.063  14.631  0.2301  0.6378 -1.1494
 1707TIP3    H226613   2.541   5.133  14.751  1.7823 -3.4141  2.1046
 1708TIP3   OH226614   0.024   1.516  15.517 -0.5481 -0.3699 -0.3642
 1708TIP3    H126615  -0.031   1.504  15.595 -0.8100 -0.4218 -0.5565
 1708TIP3    H226616   0.068   1.600  15.532  2.7107 -2.3490  1.8549
 1709TIP3   OH226617   2.135   4.617   4.058  0.2667  0.0592 -0.4141
 1709TIP3    H126618   2.134   4.527   4.025 -1.2070 -0.3061  0.5734
 1709TIP3    H226619   2.211   4.657   4.016  0.1290 -1.2388 -1.9583
 1710TIP3   OH226620   1.423   1.361  12.145  0.0536 -0.6443  0.5549
 1710TIP3    H126621   1.421   1.453  12.170  0.1454 -0.0825 -1.3981
 1710TIP3    H226622   1.340   1.325  12.177 -1.0471  0.6961 -0.7060
 1711TIP3   OH226623   1.516   6.103   4.506  0.2699 -0.0471  1.1567
 1711TIP3    H126624   1.558   6.146   4.431  0.4869 -0.8029  0.8439
 1711TIP3    H226625   1.480   6.175   4.557  0.6311  0.5148  0.6316
 1712TIP3   OH226626   4.513   1.404   6.139 -0.3003  0.4946  0.2478
 1712TIP3    H126627   4.462   1.331   6.175  0.1500  0.2069  0.3085
 1712TIP3    H226628   4.585   1.416   6.202 -0.7503  1.4288  0.5942
 1713TIP3   OH226629   5.985   6.044  15.072  0.6470 -0.1090  0.5025
 1713TIP3    H126630   6.044   6.111  15.037  0.5894 -0.3115  0.0088
 1713TIP3    H226631   5.897   6.074  15.047  0.3264  1.4115  3.2593
 1714TIP3   OH226632   5.090   3.912   6.210  0.5368  0.1968 -0.0577
 1714TIP3    H126633   5.176   3.891   6.175  0.3325 -0.2439 -0.2991
 1714TIP3    H226634   5.108   3.956   6.293  1.0033  0.6438 -0.3979
 1715TIP3   OH226635   2.115   2.348   3.147 -0.4664 -0.3351  0.0246
 1715TIP3    H126636   2.087   2.256   3.152 -0.4896 -0.3948 -1.0657
 1715TIP3    H226637   2.037   2.398   3.169 -0.8610 -0.5513 -0.8595
 1716TIP3   OH226638   4.242   1.998   2.729  0.2263  0.2019 -0.3617
 1716TIP3    H126639   4.214   1.947   2.805  1.0767  0.5580  0.1966
 1716TIP3    H226640   4.316   1.948   2.693  0.3819  0.4859 -0.4358
 1717TIP3   OH226641   1.936   0.086   3.516  0.1088  0.0157  0.4484
 1717TIP3    H126642   2.001   0.061   3.450 -0.6445 -0.2524 -0.2102
 1717TIP3    H226643   1.853   0.088   3.468 -0.2760  0.9822  1.1312
 1718TIP3   OH226644   0.268   3.874  12.095 -0.3440 -0.7308  0.2497
 1718TIP3    H126645   0.219   3.803  12.055 -0.0821 -0.0025 -1.4134
 1718TIP3    H226646   0.213   3.904  12.168 -1.3819 -1.3083 -0.2969
 1719TIP3   OH226647   4.205   2.539   1.760 -0.3440 -0.0259  0.6259
 1719TIP3    H126648   4.227   2.607   1.823 -0.5461  0.5168  0.1129
 1719TIP3    H226649   4.171   2.586   1.684  0.5384 -0.6459 -0.1603
 1720TIP3   OH226650   2.067   3.360  15.934  0.3517  0.4359 -0.2386
 1720TIP3    H126651   2.062   3.404  16.019 -2.4942  2.2085 -1.2524
 1720TIP3    H226652   2.147   3.393  15.894  1.1258  0.4320  1.2693
 1721TIP3   OH226653   4.537   5.148   4.920  0.2425  0.1348  0.0589
 1721TIP3    H126654   4.507   5.169   5.009  2.0061  0.0309  0.6968
 1721TIP3    H226655   4.584   5.066   4.930 -0.4562 -0.4243 -1.1820
 1722TIP3   OH226656   2.447   3.585  15.559 -0.5735  1.2665  0.0246
 1722TIP3    H126657   2.453   3.671  15.518 -0.2271  1.3679  0.2813
 1722TIP3    H226658   2.537   3.551  15.556 -0.2309  1.9175  2.0769
 1723TIP3   OH226659   3.118   5.616   0.922  0.0920 -0.5080  0.3601
 1723TIP3    H126660   3.107   5.534   0.970  0.6269 -0.6933  0.1707
 1723TIP3    H226661   3.202   5.606   0.877  0.2069  0.1879  0.4224
 1724TIP3   OH226662   5.292   3.278   4.952  0.8119 -0.0805 -0.5976
 1724TIP3    H126663   5.342   3.359   4.943 -1.3599  1.3474 -0.1636
 1724TIP3    H226664   5.241   3.272   4.871  1.2834 -1.2664 -0.8225
 1725TIP3   OH226665   1.084   0.534   1.962 -0.4635  0.0722  0.7170
 1725TIP3    H126666   1.168   0.496   1.936 -0.6866  0.1293 -0.1023
 1725TIP3    H226667   1.047   0.470   2.023  0.1267 -0.0038  1.0012
 1726TIP3   OH226668   3.101   5.229  12.649  0.0715 -0.0651  0.1503
 1726TIP3    H126669   3.063   5.196  12.730 -0.7530 -1.0619 -0.6256
 1726TIP3    H226670   3.195   5.231  12.666 -0.1370  0.2246  1.3045
 1727TIP3   OH226671   0.524   5.067  12.995 -0.0724  0.4787 -0.5687
 1727TIP3    H126672   0.578   5.081  12.917 -0.8169  0.6593 -1.0516
 1727TIP3    H226673   0.439   5.105  12.973 -0.5103 -0.1337  0.0539
 1728TIP3   OH226674   3.429   1.288   2.141  0.9902  0.8442  0.2578
 1728TIP3    H126675   3.410   1.196   2.127  2.5085  0.3461  1.3122
 1728TIP3    H226676   3.523   1.296   2.125  0.9425  2.1239  0.5405
 1729TIP3   OH226677   4.494   1.122  11.365  0.0738  0.1422 -0.6787
 1729TIP3    H126678   4.519   1.103  11.275 -0.0235  0.3106 -0.7428
 1729TIP3    H226679   4.505   1.217  11.373  0.3460  0.0876 -0.4326
 1730TIP3   OH226680   2.114   0.523   5.145  0.3498  0.1210  0.3435
 1730TIP3    H126681   2.108   0.618   5.153 -0.8916 -0.1091  2.5974
 1730TIP3    H226682   2.023   0.493   5.139  0.6793 -0.9718  0.5515
 1731TIP3   OH226683   4.993   4.795  17.102  0.5068 -0.2662  0.2763
 1731TIP3    H126684   5.031   4.707  17.105 -1.0549 -0.9703  0.4176
 1731TIP3    H226685   4.994   4.825  17.192  1.4061  0.0161  0.1718
 1732TIP3   OH226686   1.652   6.661  11.763  0.3243  0.0575 -0.4740
 1732TIP3    H126687   1.604   6.727  11.814  1.7180  0.3789  0.4826
 1732TIP3    H226688   1.644   6.581  11.814  0.4228  0.0076 -0.5381
 1733TIP3   OH226689   3.451   3.575   1.932 -0.4859 -0.3353 -0.1641
 1733TIP3    H126690   3.520   3.641   1.921 -1.4699  0.6928 -0.2972
 1733TIP3    H226691   3.495   3.492   1.914  0.7612  0.2851 -0.0708
 1734TIP3   OH226692   6.273   2.461   3.536 -0.2107  0.4213 -0.7314
 1734TIP3    H126693   6.317   2.376   3.532 -2.8570 -1.1241  1.5829
 1734TIP3    H226694   6.345   2.524   3.541  1.7801 -1.8157  0.0794
 1735TIP3   OH226695   2.070   6.014   0.555 -0.0005  0.1218  0.1194
 1735TIP3    H126696   2.020   5.999   0.475  2.2090 -0.1274 -1.2612
 1735TIP3    H226697   2.022   6.083   0.601 -2.5508 -1.3231 -0.2886
 1736TIP3   OH226698   3.587   1.409   0.714  0.2732  0.4942 -0.6202
 1736TIP3    H126699   3.498   1.399   0.680 -0.2788 -0.6597  1.0659
 1736TIP3    H226700   3.637   1.341   0.670 -0.3184 -0.6406  0.4072
 1737TIP3   OH226701   3.449   6.289  12.246  0.6473  0.4098 -0.6653
 1737TIP3    H126702   3.485   6.280  12.158 -1.3674  2.7971 -1.8158
 1737TIP3    H226703   3.480   6.374  12.276  3.4490 -1.4799  2.0348
 1738TIP3   OH226704   6.186   5.423  14.113 -0.1528  0.3171 -0.4151
 1738TIP3    H126705   6.190   5.443  14.019 -0.6824  1.3430 -0.2275
 1738TIP3    H226706   6.190   5.509  14.156  0.3014 -0.1622  0.5067
 1739TIP3   OH226707   5.853   6.264   2.696 -0.1160 -0.4496  0.7498
 1739TIP3    H126708   5.883   6.347   2.733 -1.1458  0.4195 -0.3235
 1739TIP3    H226709   5.775   6.242   2.748  0.0500 -0.6477  0.9153
 1740TIP3   OH226710   0.095   6.643   6.037 -0.3323  0.2540 -0.1118
 1740TIP3    H126711   0.022   6.606   5.987  0.3640 -0.9404 -0.2489
 1740TIP3    H226712   0.106   6.584   6.111  0.5165  0.4380 -0.0939
 1741TIP3   OH226713   0.663   3.735   3.628 -0.6030 -0.3925  0.5099
 1741TIP3    H126714   0.664   3.661   3.567  0.3929  0.3778 -0.4244
 1741TIP3    H226715   0.755   3.750   3.650 -0.5576  1.9315 -1.0117
 1742TIP3   OH226716   1.522   1.242  17.025 -1.1075  0.6719  0.1519
 1742TIP3    H126717   1.496   1.246  17.117 -0.2946  1.1008  0.3667
 1742TIP3    H226718   1.523   1.333  16.997  1.4624  0.7987  0.5274
 1743TIP3   OH226719   1.979   1.214   4.695  0.4351  0.0149 -0.3560
 1743TIP3    H126720   1.964   1.120   4.705 -1.4032  0.3129 -0.1309
 1743TIP3    H226721   2.060   1.220   4.643  0.8979 -1.6683  0.1324
 1744TIP3   OH226722   1.271   2.185   0.652  0.1649 -0.4940 -0.1078
 1744TIP3    H126723   1.343   2.160   0.711  0.5301 -1.2750 -0.8727
 1744TIP3    H226724   1.196   2.136   0.685 -0.2967  1.1517  1.3543
 1745TIP3   OH226725   1.733   5.542   2.492 -0.0419 -0.2081  0.2187
 1745TIP3    H126726   1.804   5.598   2.460 -1.1530  1.5127  0.6863
 1745TIP3    H226727   1.738   5.549   2.588  1.0327 -2.5036  0.3666
 1746TIP3   OH226728   1.218   0.693   3.830  0.3410  0.2344 -0.1007
 1746TIP3    H126729   1.287   0.637   3.795  0.1440 -0.5777  0.7897
 1746TIP3    H226730   1.241   0.704   3.923  0.6109  1.9812 -0.3513
 1747TIP3   OH226731   6.810   0.906   5.364 -0.1096 -0.4349  0.0360
 1747TIP3    H126732   6.822   0.968   5.292  4.0407 -0.8598  0.2342
 1747TIP3    H226733   6.794   0.961   5.441  1.8526  0.3640 -0.0969
 1748TIP3   OH226734   5.498   2.886   2.623  0.3472 -0.6686 -0.3937
 1748TIP3    H126735   5.528   2.857   2.709  0.5009 -1.0955 -0.5887
 1748TIP3    H226736   5.405   2.903   2.635  0.4273 -0.4521 -0.0718
 1749TIP3   OH226737   1.829   3.161  15.612 -0.4544 -0.3008  0.0724
 1749TIP3    H126738   1.808   3.090  15.550 -1.5823 -1.6488  1.9568
 1749TIP3    H226739   1.878   3.118  15.682  1.1706  1.2906 -0.0466
 1750TIP3   OH226740   2.656   1.178  13.051 -0.0851  0.5813  0.2548
 1750TIP3    H126741   2.611   1.241  13.108 -2.3883 -0.4283 -0.3899
 1750TIP3    H226742   2.679   1.106  13.110 -0.0013  0.7597  0.4427
 1751TIP3   OH226743   0.934   2.677  11.646  0.9639 -0.4135 -0.7341
 1751TIP3    H126744   0.873   2.604  11.647 -0.5790  0.8427 -0.7941
 1751TIP3    H226745   1.019   2.638  11.624  0.0375 -2.0540 -1.4422
 1752TIP3   OH226746   4.111   5.533  11.279 -0.7944 -0.4059  0.4169
 1752TIP3    H126747   4.074   5.446  11.293 -0.0914 -0.7499  0.1575
 1752TIP3    H226748   4.133   5.535  11.186  2.3996 -1.2114  1.1181
 1753TIP3   OH226749   4.367   1.292   2.124  0.0793  0.0425  0.0717
 1753TIP3    H126750   4.360   1.373   2.175 -0.2884 -0.1289  0.2967
 1753TIP3    H226751   4.456   1.293   2.089 -0.2452  1.0434 -0.7629
 1754TIP3   OH226752   0.707   5.182   5.546 -0.2977  0.3849  0.4140
 1754TIP3    H126753   0.730   5.209   5.635 -1.9456  0.8994  0.6895
 1754TIP3    H226754   0.621   5.142   5.554  0.3407 -1.2874 -0.6633
 1755TIP3   OH226755   0.217   4.398   2.691  0.1218  0.0526  0.5693
 1755TIP3    H126756   0.256   4.485   2.681  0.5900 -0.4832 -2.8198
 1755TIP3    H226757   0.291   4.338   2.691 -0.4045 -0.6328 -1.2822
 1756TIP3   OH226758   2.036   6.079   4.897 -0.4746 -0.6071 -0.6134
 1756TIP3    H126759   1.993   5.993   4.902  0.5320 -0.9863  2.3970
 1756TIP3    H226760   2.121   6.060   4.856 -0.2073 -1.0924  0.1471
 1757TIP3   OH226761   5.404   2.950  15.154 -0.3536 -0.0087 -0.1867
 1757TIP3    H126762   5.402   2.973  15.247 -1.1126 -2.5459  0.4631
 1757TIP3    H226763   5.314   2.922  15.135 -0.1013  0.1087 -1.5890
 1758TIP3   OH226764   5.741   4.742   2.352 -0.3106  0.3549 -0.2354
 1758TIP3    H126765   5.787   4.744   2.436 -0.6733 -0.3333 -0.0155
 1758TIP3    H226766   5.809   4.721   2.288 -0.5047 -1.7399  0.2288
 1759TIP3   OH226767   3.879   0.791   3.328  0.2232  0.2839 -0.2907
 1759TIP3    H126768   3.855   0.777   3.236  1.7606 -1.3061 -0.4620
 1759TIP3    H226769   3.843   0.878   3.349 -0.9828  0.2448 -2.0964
 1760TIP3   OH226770   3.625   1.233  11.437 -0.1348 -0.8564 -0.3074
 1760TIP3    H126771   3.590   1.154  11.396  0.0488 -0.9669 -0.2537
 1760TIP3    H226772   3.720   1.222  11.432 -0.1038 -1.7752  1.8573
 1761TIP3   OH226773   0.499   1.293  13.429 -0.0037 -0.2820  0.5606
 1761TIP3    H126774   0.528   1.361  13.368 -0.1637 -0.5717  0.1612
 1761TIP3    H226775   0.411   1.270  13.399  0.0479 -0.6621  0.6933
 1762TIP3   OH226776   3.145   2.619   3.179  0.6382 -0.2077 -0.0144
 1762TIP3    H126777   3.118   2.685   3.115  1.7156  0.4420  0.1751
 1762TIP3    H226778   3.097   2.540   3.155 -0.7880  0.6865 -0.1565
 1763TIP3   OH226779   0.980   3.042   1.447  0.0779 -0.4850 -0.1448
 1763TIP3    H126780   0.989   3.129   1.485  1.6018  0.0251 -1.5896
 1763TIP3    H226781   1.018   2.983   1.512  1.5737  0.2483 -0.3242
 1764TIP3   OH226782   4.934   1.921  10.600 -0.1504  0.6896 -0.4409
 1764TIP3    H126783   4.857   1.943  10.547 -1.4802 -0.7274  0.8336
 1764TIP3    H226784   4.945   1.827  10.588 -0.0890  0.4593  1.2618
 1765TIP3   OH226785   4.019   1.784  16.099  0.1843  0.2882  0.0270
 1765TIP3    H126786   4.029   1.787  16.003  1.0919 -0.0754  0.0989
 1765TIP3    H226787   3.930   1.753  16.113  1.0526 -2.7616 -0.7344
 1766TIP3   OH226788   0.347   1.402   5.303 -0.1476 -0.6228 -0.2937
 1766TIP3    H126789   0.293   1.383   5.226 -0.9305  0.1965  0.0529
 1766TIP3    H226790   0.285   1.429   5.370  0.7889  1.5484 -0.2768
 1767TIP3   OH226791   2.023   6.616   3.733 -0.3608 -0.2150 -0.1184
 1767TIP3    H126792   2.098   6.674   3.737  0.1914 -0.5604 -3.7082
 1767TIP3    H226793   2.060   6.527   3.736 -0.5558 -0.3889 -2.1395
 1768TIP3   OH226794   0.490   6.128  13.820 -0.4037  0.6872  0.6888
 1768TIP3    H126795   0.570   6.077  13.809  0.2247  1.6425  0.7568
 1768TIP3    H226796   0.421   6.074  13.782  0.4542  0.3386 -0.3914
 1769TIP3   OH226797   6.754   2.009  16.102 -0.0694  0.7858 -0.6404
 1769TIP3    H126798   6.848   2.025  16.095  0.0910 -0.1261 -0.5807
 1769TIP3    H226799   6.730   2.048  16.187  0.1950  1.2812 -0.7891
 1770TIP3   OH226800   1.836   1.085   2.181  0.0022 -1.0077 -0.4735
 1770TIP3    H126801   1.781   1.159   2.156 -0.6668 -1.6685 -0.9994
 1770TIP3    H226802   1.867   1.049   2.099  2.5978  0.3418 -0.1327
 1771TIP3   OH226803   1.605   5.799   1.136  0.4334  0.1067  0.1333
 1771TIP3    H126804   1.524   5.830   1.095  1.4499 -0.1173 -2.1201
 1771TIP3    H226805   1.623   5.863   1.204 -1.2947  0.5179  0.2327
 1772TIP3   OH226806   4.219   4.327  12.778 -0.0426  0.2522 -0.2184
 1772TIP3    H126807   4.213   4.316  12.683 -3.8420 -0.7964  0.0750
 1772TIP3    H226808   4.290   4.269  12.805 -0.6713 -1.4500 -2.1256
 1773TIP3   OH226809   0.275   1.675   0.545  0.1129 -0.0691  0.0760
 1773TIP3    H126810   0.369   1.692   0.539  0.0867  0.2868  0.7009
 1773TIP3    H226811   0.261   1.598   0.490  0.4725  1.0237 -1.5938
 1774TIP3   OH226812   0.553   1.033  12.680 -0.0333  0.2870 -0.1165
 1774TIP3    H126813   0.642   0.997  12.676  0.6915  2.1454 -1.4598
 1774TIP3    H226814   0.560   1.119  12.639 -2.6440  0.0940 -1.0935
 1775TIP3   OH226815   4.008   4.162  15.837 -0.3512 -0.1773 -0.0886
 1775TIP3    H126816   4.044   4.086  15.884 -0.1362 -0.0763 -0.0917
 1775TIP3    H226817   4.057   4.237  15.871 -2.3948  0.3061  1.8822
 1776TIP3   OH226818   3.871   2.775  15.787 -0.3632  0.3485  0.4400
 1776TIP3    H126819   3.949   2.769  15.731  0.1837 -0.1848  1.2534
 1776TIP3    H226820   3.837   2.686  15.790 -1.4677  0.7298 -0.5570
 1777TIP3   OH226821   5.734   5.432   0.679 -0.1168 -1.1415 -0.3399
 1777TIP3    H126822   5.701   5.508   0.631 -1.0033 -0.6353  1.0434
 1777TIP3    H226823   5.758   5.369   0.610  0.3017  0.2453 -1.4793
 1778TIP3   OH226824   5.017   4.093   3.496 -0.9975  0.6248  0.3139
 1778TIP3    H126825   5.093   4.116   3.443 -1.0974  1.3888  0.5071
 1778TIP3    H226826   5.005   4.167   3.555 -1.8652  0.4874  0.3163
 1779TIP3   OH226827   1.438   3.679   5.507 -0.4151 -0.0423  0.4649
 1779TIP3    H126828   1.427   3.728   5.425 -1.3260 -0.6130  0.2306
 1779TIP3    H226829   1.529   3.649   5.505  0.3794  2.2847  0.9903
 1780TIP3   OH226830   3.737   2.441  11.419  0.0845  0.1048  0.0576
 1780TIP3    H126831   3.650   2.409  11.397  0.0739 -0.1163  0.4258
 1780TIP3    H226832   3.761   2.497  11.345  0.2014 -0.9305 -0.6975
 1781TIP3   OH226833   6.749   5.067  11.640  0.1044 -0.3693 -0.2361
 1781TIP3    H126834   6.709   5.070  11.554  0.0387  0.1872 -0.1858
 1781TIP3    H226835   6.676   5.063  11.701  0.1661 -2.4764 -0.2666
 1782TIP3   OH226836   6.121   6.052  14.370  0.1791  0.5620 -0.0661
 1782TIP3    H126837   6.171   6.064  14.451  1.9495 -1.8925 -0.7483
 1782TIP3    H226838   6.180   6.081  14.301  0.0346 -0.7520 -0.7542
 1783TIP3   OH226839   2.520   3.899   1.370 -0.6097 -0.1019 -0.5885
 1783TIP3    H126840   2.599   3.950   1.356 -1.1728  1.9965  3.0986
 1783TIP3    H226841   2.448   3.955   1.342 -1.0505  0.0305  0.7284
 1784TIP3   OH226842   3.984   3.593  11.159  0.2555 -0.3172 -0.3710
 1784TIP3    H126843   4.034   3.653  11.214  0.8896 -1.9625  0.9123
 1784TIP3    H226844   3.894   3.598  11.194  0.1869  0.3351 -0.6530
 1785TIP3   OH226845   0.292   1.001   2.842 -0.6817  0.0896  0.3097
 1785TIP3    H126846   0.235   1.036   2.911 -2.6738 -0.3372 -1.0739
 1785TIP3    H226847   0.275   0.906   2.843 -0.1517 -0.0128 -0.2337
 1786TIP3   OH226848   6.112   2.201  12.362 -0.1674  0.0918  0.1785
 1786TIP3    H126849   6.061   2.252  12.300  0.8241 -1.9767 -2.4228
 1786TIP3    H226850   6.052   2.132  12.391  0.1172 -0.3926 -0.3728
 1787TIP3   OH226851   0.762   5.284   3.981  0.2294 -0.9523  0.3807
 1787TIP3    H126852   0.712   5.309   4.058 -0.2251 -0.3910 -0.0871
 1787TIP3    H226853   0.708   5.313   3.907  0.3606 -2.0495 -0.1530
 1788TIP3   OH226854   5.382   5.018   4.147 -0.1760 -0.3187  0.4491
 1788TIP3    H126855   5.391   4.934   4.194 -0.9274  0.3764  1.8714
 1788TIP3    H226856   5.305   5.059   4.186  1.0780  1.7352  0.8365
 1789TIP3   OH226857   6.744   0.473   4.362  0.2075  0.3830 -0.2036
 1789TIP3    H126858   6.665   0.431   4.396  1.3230  0.1303  2.1544
 1789TIP3    H226859   6.776   0.413   4.295  1.1008 -1.9653  2.2697
 1790TIP3   OH226860   3.281   3.244  15.213 -0.0202 -0.3871 -0.1850
 1790TIP3    H126861   3.344   3.210  15.149 -0.6379  0.7791 -1.4474
 1790TIP3    H226862   3.196   3.222  15.175 -0.3911 -1.0719  1.0233
 1791TIP3   OH226863   6.679   1.180   4.060 -0.0809  0.1999 -0.2047
 1791TIP3    H126864   6.643   1.091   4.062 -0.0248  0.1873  0.6190
 1791TIP3    H226865   6.602   1.237   4.050 -0.2767  0.1284  0.7573
 1792TIP3   OH226866   5.261   1.565   2.655  0.0796 -0.2183  0.3732
 1792TIP3    H126867   5.332   1.613   2.697  0.6623  0.0185 -0.8697
 1792TIP3    H226868   5.258   1.599   2.566  1.6139 -3.5846 -1.0698
 1793TIP3   OH226869   5.596   5.501  10.331 -0.2090  0.2782  0.4602
 1793TIP3    H126870   5.629   5.423  10.287  0.2749 -0.4157  2.0264
 1793TIP3    H226871   5.508   5.477  10.361  0.1768  0.1297  1.4766
 1794TIP3   OH226872   4.292   3.031  10.814 -0.1724  0.1413 -0.4659
 1794TIP3    H126873   4.332   3.086  10.747 -0.5287 -0.6038 -1.3063
 1794TIP3    H226874   4.206   3.070  10.829  0.3463  0.9649  0.3719
 1795TIP3   OH226875   0.438   0.717   2.543  0.2074 -0.0434 -0.8669
 1795TIP3    H126876   0.420   0.673   2.626 -1.1328  2.3194  0.1472
 1795TIP3    H226877   0.533   0.731   2.542  0.2073  0.0720  0.3646
 1796TIP3   OH226878   1.242   2.542   4.543  0.3028 -0.1676  0.4290
 1796TIP3    H126879   1.166   2.483   4.539  1.6802 -1.9392  0.0513
 1796TIP3    H226880   1.259   2.553   4.637 -1.2446  1.3403  0.5572
 1797TIP3   OH226881   0.543   4.942   4.629  0.0602  0.0484  0.0368
 1797TIP3    H126882   0.639   4.943   4.638  0.1117 -1.1598 -0.2744
 1797TIP3    H226883   0.527   4.985   4.545  0.3447  0.0702 -0.0068
 1798TIP3   OH226884   1.316   5.342   0.772  0.2813  0.3757  0.2287
 1798TIP3    H126885   1.393   5.295   0.740  0.2515  0.0125  0.6898
 1798TIP3    H226886   1.335   5.359   0.865  0.0736  0.8303  0.1911
 1799TIP3   OH226887   4.256   0.683   4.899 -0.0936 -0.5324  0.4038
 1799TIP3    H126888   4.209   0.723   4.972  1.2175 -1.8160  1.9901
 1799TIP3    H226889   4.348   0.697   4.919  0.2612  0.4189 -1.7883
 1800TIP3   OH226890   6.244   0.075  16.095  0.0639 -0.1298 -0.6100
 1800TIP3    H126891   6.268   0.148  16.038  0.6101  2.2613  2.6036
 1800TIP3    H226892   6.152   0.058  16.075  0.2720  0.5991 -2.2607
 1801TIP3   OH226893   3.702   4.684  14.700  0.2558  0.3694  0.1108
 1801TIP3    H126894   3.658   4.610  14.659 -1.1845 -0.2998  2.7721
 1801TIP3    H226895   3.795   4.668  14.685 -0.1771 -0.5753 -1.6207
 1802TIP3   OH226896   4.796   1.348  16.870  0.3492  0.5268 -0.9797
 1802TIP3    H126897   4.788   1.323  16.962 -1.5670 -0.1770 -1.3112
 1802TIP3    H226898   4.889   1.335  16.850  0.0842 -3.1158 -0.1887
 1803TIP3   OH226899   0.912   2.598   3.368 -0.2237  0.7173  0.0589
 1803TIP3    H126900   0.920   2.522   3.425  0.0035  0.4049 -0.3871
 1803TIP3    H226901   0.944   2.671   3.422  2.3290  0.0417 -0.4760
 1804TIP3   OH226902   5.985   6.557  13.092 -0.2884 -0.6050  0.2059
 1804TIP3    H126903   6.027   6.601  13.167 -0.4071 -1.4800  0.7947
 1804TIP3    H226904   6.001   6.616  13.018 -0.8769  0.6851  1.0702
 1805TIP3   OH226905   4.766   2.058   2.584  0.2595  0.5214 -0.0312
 1805TIP3    H126906   4.778   2.091   2.495  0.9585  0.1475 -0.0786
 1805TIP3    H226907   4.803   1.970   2.582 -0.4384  0.2142  0.4279
 1806TIP3   OH226908   2.533   1.956  14.356  0.0781 -0.7261 -0.3252
 1806TIP3    H126909   2.595   1.886  14.379 -1.4592 -2.2421 -0.6992
 1806TIP3    H226910   2.503   1.989  14.441  0.0720 -1.1817 -0.1475
 1807TIP3   OH226911   1.588   5.389  16.525  0.4613 -0.0698 -0.4249
 1807TIP3    H126912   1.512   5.354  16.480 -0.8582  3.4451 -1.0866
 1807TIP3    H226913   1.552   5.445  16.594  2.4266  1.0187 -0.2362
 1808TIP3   OH226914   6.066   2.239   0.154  0.2678 -0.2798  0.1876
 1808TIP3    H126915   5.997   2.292   0.113  0.7135 -0.7972 -1.2741
 1808TIP3    H226916   6.020   2.182   0.215 -0.5672 -0.4069 -0.5521
 1809TIP3   OH226917   1.426   3.330  16.582  0.6972 -0.4363  0.0606
 1809TIP3    H126918   1.463   3.356  16.497 -0.6673  1.0802 -0.0973
 1809TIP3    H226919   1.332   3.324  16.566  0.5235 -1.0471  1.2526
 1810TIP3   OH226920   4.754   2.743   6.121  0.2647 -0.4127 -0.3218
 1810TIP3    H126921   4.778   2.836   6.125 -0.1463 -0.3024 -0.3648
 1810TIP3    H226922   4.837   2.697   6.110  0.9830 -0.3254  3.8200
 1811TIP3   OH226923   5.142   3.895  11.567  0.2550 -0.0813  0.3820
 1811TIP3    H126924   5.193   3.976  11.559 -0.7962  0.5407 -0.3004
 1811TIP3    H226925   5.171   3.856  11.648  1.0769  0.7913  0.5155
 1812TIP3   OH226926   4.022   1.936   5.693 -0.8244 -0.1774 -0.4354
 1812TIP3    H126927   3.987   2.021   5.664 -2.9749 -1.0342 -0.4850
 1812TIP3    H226928   3.954   1.901   5.751  1.0283 -0.9015  1.3494
 1813TIP3   OH226929   4.687   1.331   2.183  0.1454  0.2032  0.1424
 1813TIP3    H126930   4.635   1.320   2.263  0.9668  1.9053  0.9163
 1813TIP3    H226931   4.706   1.241   2.155 -3.3036 -0.4846 -0.2490
 1814TIP3   OH226932   3.960   0.742   1.945  0.2822 -0.1887  0.4000
 1814TIP3    H126933   3.923   0.730   1.857  0.7564  2.1447 -0.1509
 1814TIP3    H226934   3.971   0.654   1.979 -1.5918 -1.0730 -1.1962
 1815TIP3   OH226935   2.377   0.522   4.444 -0.2984 -0.0524 -1.0827
 1815TIP3    H126936   2.303   0.515   4.505  0.0645 -0.2916 -0.6626
 1815TIP3    H226937   2.454   0.507   4.499  0.0199 -0.4857 -1.6427
 1816TIP3   OH226938   2.289   4.818  14.142  0.0103 -1.2434  0.1567
 1816TIP3    H126939   2.205   4.773  14.133  0.6141 -2.5753  1.0653
 1816TIP3    H226940   2.269   4.910  14.126 -1.4709 -1.6731 -0.4653
 1817TIP3   OH226941   4.498   1.916  15.627 -0.2672  0.1916  0.5072
 1817TIP3    H126942   4.523   1.840  15.575 -2.1305  0.5493 -0.9676
 1817TIP3    H226943   4.538   1.991  15.581  0.2520  0.2667  1.0718
 1818TIP3   OH226944   0.337   4.089  15.301 -0.1191  0.3909 -0.7821
 1818TIP3    H126945   0.266   4.121  15.356 -0.7673 -1.3645 -0.5822
 1818TIP3    H226946   0.312   4.113  15.212 -0.3424  0.8715 -0.5938
 1819TIP3   OH226947   5.300   2.728   4.177  0.0778 -0.4239  0.0164
 1819TIP3    H126948   5.307   2.817   4.212  0.2362 -1.0094  1.5116
 1819TIP3    H226949   5.284   2.674   4.254 -0.8878 -1.5848 -1.0004
 1820TIP3   OH226950   6.153   0.433   1.508 -0.1735 -0.5228  0.2414
 1820TIP3    H126951   6.221   0.366   1.516 -0.9326 -1.2095  1.0802
 1820TIP3    H226952   6.197   0.507   1.466 -0.0490 -2.5559 -3.3444
 1821TIP3   OH226953   2.750   1.337  14.127 -0.3623  0.3442  0.3575
 1821TIP3    H126954   2.753   1.393  14.049 -0.1382 -0.6387 -0.3441
 1821TIP3    H226955   2.839   1.302  14.135 -0.7372 -0.6532  0.2472
 1822TIP3   OH226956   2.656   2.823   5.035  0.3536 -0.5121 -0.1707
 1822TIP3    H126957   2.744   2.832   4.999  0.5657  2.0282  0.8927
 1822TIP3    H226958   2.653   2.885   5.108 -2.2664 -0.6719 -0.0813
 1823TIP3   OH226959   0.061   5.291   2.471 -0.0434 -0.1186 -0.1026
 1823TIP3    H126960   0.133   5.230   2.486  2.0631  2.4381  0.5027
 1823TIP3    H226961   0.030   5.270   2.382  2.3075 -0.4033 -0.8825
 1824TIP3   OH226962   2.463   1.401  14.436  0.2489 -0.0847 -0.3192
 1824TIP3    H126963   2.493   1.424  14.524  1.7696 -1.8356 -0.3640
 1824TIP3    H226964   2.390   1.460  14.420  0.4130  0.7462  1.8354
 1825TIP3   OH226965   6.671   0.882   6.545 -0.0622  0.4056 -0.1477
 1825TIP3    H126966   6.637   0.816   6.485  1.1695 -0.0108 -0.4040
 1825TIP3    H226967   6.611   0.879   6.620 -0.0237 -1.0138 -0.1528
 1826TIP3   OH226968   1.365   3.902   3.211 -0.0397  0.6246  0.3516
 1826TIP3    H126969   1.311   3.846   3.156  2.1283  0.9325 -2.1676
 1826TIP3    H226970   1.449   3.856   3.217  0.7722  2.1406  0.7651
 1827TIP3   OH226971   6.138   5.123   0.877 -0.6225 -0.6690  0.4305
 1827TIP3    H126972   6.228   5.124   0.845 -0.4303 -0.3421  0.9833
 1827TIP3    H226973   6.090   5.072   0.812  0.0949 -1.4123  0.4767
 1828TIP3   OH226974   3.216   4.725   0.296 -0.2756 -0.7585 -0.0793
 1828TIP3    H126975   3.192   4.677   0.216 -2.3741 -0.1380  0.1380
 1828TIP3    H226976   3.205   4.661   0.366 -1.2907 -0.5071  0.0075
 1829TIP3   OH226977   6.140   1.497   0.942 -0.3255 -0.0276 -0.0814
 1829TIP3    H126978   6.171   1.406   0.946 -1.1032 -0.2757  0.3565
 1829TIP3    H226979   6.086   1.500   0.863 -2.0913 -0.5175  1.0855
 1830TIP3   OH226980   6.137   5.658  11.227 -0.1364  0.0359  0.0379
 1830TIP3    H126981   6.212   5.663  11.167  1.1246 -1.3507  1.4362
 1830TIP3    H226982   6.099   5.572  11.210  0.9461 -0.8768  1.9910
 1831TIP3   OH226983   0.446   6.254   5.710  0.6308  0.7963  0.0169
 1831TIP3    H126984   0.416   6.163   5.706  2.3573  0.2139  0.2674
 1831TIP3    H226985   0.451   6.273   5.804  1.8137  0.6410 -0.0175
 1832TIP3   OH226986   4.626   1.527  16.191 -0.4411 -0.1660  0.3828
 1832TIP3    H126987   4.720   1.513  16.182 -0.3202  0.5327  0.5469
 1832TIP3    H226988   4.606   1.499  16.280 -0.4579 -0.6896  0.2141
 1833TIP3   OH226989   3.265   5.864   4.518 -0.0739 -0.3592 -0.0151
 1833TIP3    H126990   3.208   5.878   4.593  0.1124  1.6272 -0.2015
 1833TIP3    H226991   3.353   5.866   4.554 -0.0737 -2.0778  0.0855
 1834TIP3   OH226992   0.690   1.691   3.230 -0.6122 -0.0574  0.5903
 1834TIP3    H126993   0.628   1.762   3.244 -1.4411 -0.7227  0.2986
 1834TIP3    H226994   0.774   1.727   3.258 -1.0916  0.9114  0.7928
 1835TIP3   OH226995   5.640   3.039   6.032 -0.5279 -0.1533  0.0625
 1835TIP3    H126996   5.633   2.983   5.954 -0.2503 -1.7904  1.1949
 1835TIP3    H226997   5.550   3.051   6.061 -0.5945  0.0824 -0.2310
 1836TIP3   OH226998   4.092   1.994   2.264  0.2124 -0.2372 -0.0742
 1836TIP3    H126999   4.078   2.060   2.196  0.7516  0.5703  0.6016
 1836TIP3    H227000   4.149   2.036   2.328 -0.2269 -1.0231  0.8470
 1837TIP3   OH227001   0.751   6.719  11.650 -0.3510 -0.0270 -0.1591
 1837TIP3    H127002   0.688   6.653  11.623  0.4433 -0.7576 -0.2496
 1837TIP3    H227003   0.706   6.802  11.637 -2.3360 -0.6317  2.5109
 1838TIP3   OH227004   4.966   1.217   4.624 -0.6154 -0.2167 -0.6587
 1838TIP3    H127005   5.052   1.176   4.633 -1.5956 -2.5217 -1.5913
 1838TIP3    H227006   4.984   1.299   4.579  0.8737 -1.6394 -2.7611
 1839TIP3   OH227007   4.017   3.313  17.266  0.0474 -0.0241 -0.1639
 1839TIP3    H127008   4.013   3.299  17.171  1.5450 -2.9476  0.1416
 1839TIP3    H227009   4.105   3.346  17.282 -0.0633  0.0767  0.2401
 1840TIP3   OH227010   4.981   0.465   4.234 -0.3871 -0.0494 -0.4266
 1840TIP3    H127011   5.043   0.537   4.215  0.8985 -0.8762  0.5250
 1840TIP3    H227012   4.994   0.403   4.162 -0.3741 -0.0481 -0.4257
 1841TIP3   OH227013   2.586   6.183   6.516 -0.5059 -0.5407  0.0123
 1841TIP3    H127014   2.611   6.243   6.587  1.8361 -1.1456 -0.2462
 1841TIP3    H227015   2.561   6.103   6.561 -1.3279 -0.1518  0.2546
 1842TIP3   OH227016   5.634   2.347  15.224 -0.4666  0.0293 -0.0381
 1842TIP3    H127017   5.703   2.378  15.283 -0.0876 -1.7439  0.4808
 1842TIP3    H227018   5.580   2.424  15.208  0.4601  0.9636  1.1829
 1843TIP3   OH227019   4.528   3.549  13.001 -0.0817 -0.2132 -0.0276
 1843TIP3    H127020   4.518   3.524  13.093  1.9878 -0.8560  0.0579
 1843TIP3    H227021   4.567   3.636  13.005 -2.0339  0.6857 -0.3167
 1844TIP3   OH227022   1.869   5.883   1.353  0.2770  0.0349 -0.3724
 1844TIP3    H127023   1.895   5.889   1.445  1.5021 -0.0934 -0.6949
 1844TIP3    H227024   1.850   5.791   1.339  2.7526 -0.4302 -0.9171
 1845TIP3   OH227025   2.202   5.223  13.161  0.4256  0.2402  0.6819
 1845TIP3    H127026   2.138   5.291  13.138  0.8214  0.2242 -0.4753
 1845TIP3    H227027   2.264   5.267  13.220  0.8858  0.9875 -0.3541
 1846TIP3   OH227028   0.751   4.429  10.903  0.0951  0.8387 -0.4023
 1846TIP3    H127029   0.694   4.505  10.915  0.6368  1.4191 -1.4216
 1846TIP3    H227030   0.838   4.460  10.927 -0.0805 -0.2152  1.7091
 1847TIP3   OH227031   2.404   4.789   3.499  0.0676  0.1022  0.2793
 1847TIP3    H127032   2.463   4.738   3.442  2.6177 -1.1694  3.8769
 1847TIP3    H227033   2.429   4.880   3.483 -0.1129 -0.1299 -1.5010
 1848TIP3   OH227034   3.479   3.093   3.489  0.6284 -0.1786 -0.2725
 1848TIP3    H127035   3.524   3.164   3.443 -0.7245 -0.5554 -2.2590
 1848TIP3    H227036   3.478   3.021   3.426 -2.7563 -0.1644 -0.3462
 1849TIP3   OH227037   2.535   0.117   3.967 -0.3476  0.2945 -0.3526
 1849TIP3    H127038   2.565   0.204   3.994 -0.6233  0.3379 -0.1856
 1849TIP3    H227039   2.549   0.115   3.872  1.5312 -0.2048 -0.0897
 1850TIP3   OH227040   0.385   0.069   4.449  0.3074  0.4392  0.1873
 1850TIP3    H127041   0.340   0.090   4.531 -1.4354  1.4525 -0.9934
 1850TIP3    H227042   0.398  -0.026   4.453 -1.9642  0.1150  0.5755
 1851TIP3   OH227043   3.741   0.163   4.592 -0.0063 -0.1397  0.3531
 1851TIP3    H127044   3.660   0.202   4.559  1.7720  2.3861 -1.1956
 1851TIP3    H227045   3.755   0.205   4.676 -1.0054 -1.6265  1.2886
 1852TIP3   OH227046   4.631   4.597  15.075  0.2702 -0.3068 -0.5058
 1852TIP3    H127047   4.661   4.676  15.030  0.3335 -1.1380 -1.9384
 1852TIP3    H227048   4.698   4.579  15.141  0.7564  0.2664 -0.8415
 1853TIP3   OH227049   3.900   1.191  15.318  0.0931 -0.1195  0.2582
 1853TIP3    H127050   3.833   1.196  15.387  0.9053 -0.6099  1.0929
 1853TIP3    H227051   3.963   1.127  15.350  0.6675 -0.0946 -0.7925
 1854TIP3   OH227052   0.097   1.178  16.994  0.5519  0.1310 -0.3672
 1854TIP3    H127053   0.193   1.176  16.985  0.5800  0.6907 -0.1990
 1854TIP3    H227054   0.078   1.266  17.027 -0.1051  0.4340 -1.4999
 1855TIP3   OH227055   2.903   2.794   2.254  0.3502  0.3941 -0.3846
 1855TIP3    H127056   2.816   2.764   2.227  0.8153 -1.3120 -0.0943
 1855TIP3    H227057   2.933   2.851   2.183 -0.9310  0.8565 -0.5600
 1856TIP3   OH227058   3.243   1.908  14.375  0.2594  0.2158 -0.2372
 1856TIP3    H127059   3.232   1.968  14.450 -0.1888 -1.0432  0.7281
 1856TIP3    H227060   3.256   1.966  14.300 -0.4386  1.5313  0.6304
 1857TIP3   OH227061   0.459   5.505   1.752  0.2300  0.0007 -0.0118
 1857TIP3    H127062   0.482   5.567   1.682 -1.5810  0.9998  0.2697
 1857TIP3    H227063   0.411   5.435   1.707 -1.7423  1.1051  0.3676
 1858TIP3   OH227064   3.897   5.238   0.094 -0.1093  0.0295  0.4120
 1858TIP3    H127065   3.822   5.178   0.095 -0.3342  0.2973 -0.6257
 1858TIP3    H227066   3.963   5.194   0.148 -0.2730 -1.1531 -0.3317
 1859TIP3   OH227067   2.891   1.749   1.933  0.0237  0.5569  0.3758
 1859TIP3    H127068   2.916   1.824   1.878 -0.6111  0.5886  0.1309
 1859TIP3    H227069   2.965   1.688   1.926  1.5194  2.0584  2.2481
 1860TIP3   OH227070   4.460   1.386  16.450 -0.4533  0.1681 -0.4030
 1860TIP3    H127071   4.411   1.313  16.413 -1.7105 -0.2182  1.9123
 1860TIP3    H227072   4.493   1.353  16.534  2.4902  0.9221 -1.2062
 1861TIP3   OH227073   6.321   6.711   1.502  0.4309  0.3741  0.2651
 1861TIP3    H127074   6.358   6.641   1.556  0.2343 -0.9310 -1.2681
 1861TIP3    H227075   6.227   6.705   1.517  0.3080 -0.5056 -0.8193
 1862TIP3   OH227076   5.969   3.682  14.062  0.0992  0.8252  0.0667
 1862TIP3    H127077   5.913   3.659  13.988 -1.3533  1.3219  0.9877
 1862TIP3    H227078   6.059   3.671  14.030 -0.5341  0.0831 -1.4456
 1863TIP3   OH227079   0.687   4.321  12.345 -0.4230  0.5139  0.0780
 1863TIP3    H127080   0.624   4.317  12.274  1.1393  0.7454 -1.3566
 1863TIP3    H227081   0.748   4.389  12.318  0.9414 -0.3194  1.0173
 1864TIP3   OH227082   5.605   1.472   1.422 -0.0461  0.2905 -0.0781
 1864TIP3    H127083   5.513   1.491   1.404 -0.2997 -0.1704  0.7082
 1864TIP3    H227084   5.650   1.556   1.411 -0.5856  0.5481 -0.2997
 1865TIP3   OH227085   4.657   5.640   6.147  0.8240  0.0657  0.1219
 1865TIP3    H127086   4.688   5.635   6.238  1.0299  0.7642  0.0892
 1865TIP3    H227087   4.579   5.585   6.145  0.5793  0.3868  0.8242
 1866TIP3   OH227088   5.571   5.111  11.263  0.5819 -0.2807 -1.3581
 1866TIP3    H127089   5.524   5.051  11.204  3.5435 -2.7323 -1.3718
 1866TIP3    H227090   5.563   5.070  11.349  2.4292 -0.6093 -1.3227
 1867TIP3   OH227091   4.871   5.633  13.786  0.0805 -0.2865  0.0352
 1867TIP3    H127092   4.956   5.649  13.745 -0.3545  2.1832  0.0166
 1867TIP3    H227093   4.808   5.643  13.715 -0.2446 -2.4633 -0.0261
 1868TIP3   OH227094   5.833   2.538  16.699  0.3097  0.3069  0.5249
 1868TIP3    H127095   5.928   2.549  16.689  0.3300  0.0678  0.4307
 1868TIP3    H227096   5.796   2.570  16.617  0.3279  0.1577  0.4574
 1869TIP3   OH227097   5.898   0.143   0.580  0.2577 -0.7123 -0.0199
 1869TIP3    H127098   5.979   0.105   0.614  0.0079 -0.1310  1.2506
 1869TIP3    H227099   5.840   0.068   0.566 -0.0655 -0.8701  2.0220
 1870TIP3   OH227100   5.508   6.501  16.864 -0.6269 -0.4448 -0.0439
 1870TIP3    H127101   5.565   6.480  16.790 -0.0435 -2.7060  1.0070
 1870TIP3    H227102   5.568   6.522  16.935 -1.1845  1.2469 -0.0472
 1871TIP3   OH227103   5.761   0.770  13.812 -0.2541 -0.0070 -0.1897
 1871TIP3    H127104   5.746   0.863  13.826  0.7736  0.2486 -0.7236
 1871TIP3    H227105   5.843   0.752  13.859 -0.9836 -0.8700  0.7801
 1872TIP3   OH227106   0.726   6.029  16.178  0.1707  0.4301 -0.5713
 1872TIP3    H127107   0.719   6.045  16.273  1.5801  0.6661 -0.4906
 1872TIP3    H227108   0.636   6.031  16.147 -0.3407  0.0238  0.8223
 1873TIP3   OH227109   3.970   1.610   1.877 -0.0687  0.6591 -0.3779
 1873TIP3    H127110   3.877   1.634   1.878 -0.5018 -0.9137 -1.5212
 1873TIP3    H227111   3.970   1.515   1.883  1.4956  0.6628 -0.1585
 1874TIP3   OH227112   5.659   4.857  10.846  0.2802 -0.1756  0.1308
 1874TIP3    H127113   5.669   4.762  10.842  0.7115 -0.2995  2.9678
 1874TIP3    H227114   5.575   4.869  10.890 -0.4671  0.7785 -1.5370
 1875TIP3   OH227115   0.090   1.535  14.715  0.8423  0.0337 -0.9925
 1875TIP3    H127116   0.009   1.492  14.690  0.0356  1.5061 -0.9922
 1875TIP3    H227117   0.142   1.538  14.635  0.5967 -0.2857 -1.1619
 1876TIP3   OH227118   0.578   2.769  15.581  0.1256  0.0398  0.0662
 1876TIP3    H127119   0.586   2.864  15.572  1.6153 -0.1972 -1.3232
 1876TIP3    H227120   0.561   2.738  15.492 -2.8338 -0.8059  0.8674
 1877TIP3   OH227121   4.268   2.068  16.016  0.5572  0.1303 -0.2744
 1877TIP3    H127122   4.261   1.992  15.958  0.8471  0.1234 -0.3019
 1877TIP3    H227123   4.185   2.068  16.065  0.6046 -0.2814 -0.1829
 1878TIP3   OH227124   1.161   0.143  12.486 -0.4366 -0.0734 -0.8658
 1878TIP3    H127125   1.126   0.194  12.413  0.4028  0.1193 -1.1364
 1878TIP3    H227126   1.210   0.072  12.445  1.1900  0.8180 -0.5120
 1879TIP3   OH227127   4.114   4.315   2.713 -0.0158 -0.5177 -0.4142
 1879TIP3    H127128   4.063   4.358   2.781  1.4375 -0.5517  0.7179
 1879TIP3    H227129   4.094   4.365   2.633  0.3849  1.2654  0.5598
 1880TIP3   OH227130   2.467   6.126   4.446 -0.3225  0.0923  0.2613
 1880TIP3    H127131   2.534   6.082   4.394  0.6946 -0.9507  2.3805
 1880TIP3    H227132   2.515   6.187   4.502 -1.2095 -0.0493  1.2102
 1881TIP3   OH227133   5.908   5.776  10.786  0.1411  0.0280  0.0775
 1881TIP3    H127134   5.989   5.769  10.836  0.3298 -1.1393 -0.3895
 1881TIP3    H227135   5.919   5.715  10.713 -0.8171  0.4807 -0.4565
 1882TIP3   OH227136   2.089   2.308   4.543 -0.0774 -0.1300  0.2036
 1882TIP3    H127137   2.001   2.274   4.524 -0.6395  0.6463  1.3412
 1882TIP3    H227138   2.145   2.230   4.542 -0.9176 -0.7504  0.2849
 1883TIP3   OH227139   2.738   2.640  14.910  0.1847 -0.1961  0.2525
 1883TIP3    H127140   2.761   2.688  14.830 -0.0242 -0.7993 -0.1716
 1883TIP3    H227141   2.665   2.584  14.884  0.8831 -1.2593  0.5637
 1884TIP3   OH227142   2.243   5.292  12.840 -0.3341  0.2782  0.7790
 1884TIP3    H127143   2.191   5.263  12.764  1.6609  0.8812 -0.8448
 1884TIP3    H227144   2.276   5.211  12.878  0.5582  0.0715 -0.3929
 1885TIP3   OH227145   4.845   1.452   4.444 -0.2503 -0.5156  0.2783
 1885TIP3    H127146   4.907   1.465   4.373 -0.7270  0.2355 -0.0041
 1885TIP3    H227147   4.841   1.536   4.489 -2.1700 -0.1109 -0.6010
 1886TIP3   OH227148   4.452   0.478  15.595 -0.6762 -0.8242 -0.1194
 1886TIP3    H127149   4.436   0.455  15.503 -0.9360 -2.1085  0.2390
 1886TIP3    H227150   4.369   0.515  15.626 -0.8071 -1.0546 -0.1985
 1887TIP3   OH227151   4.058   6.435  14.127  0.3004 -0.5608 -0.4385
 1887TIP3    H127152   4.118   6.498  14.086  0.3757 -1.1205 -1.2130
 1887TIP3    H227153   4.089   6.428  14.217 -1.0604  2.1558  0.2923
 1888TIP3   OH227154   5.108   5.215   0.679  0.0419 -0.0175 -0.1426
 1888TIP3    H127155   5.132   5.284   0.617  0.3981  0.7214  0.8048
 1888TIP3    H227156   5.187   5.201   0.731 -0.0446 -1.1078 -0.2983
 1889TIP3   OH227157   1.288   4.192   4.555 -0.0287 -0.1895  0.6225
 1889TIP3    H127158   1.324   4.128   4.616 -1.1056 -0.2043  1.2619
 1889TIP3    H227159   1.363   4.222   4.503  0.9754  0.1414  2.2344
 1890TIP3   OH227160   0.599   3.262  12.320 -0.0846  0.9802 -0.0433
 1890TIP3    H127161   0.619   3.278  12.413 -0.9973  0.1807  0.2988
 1890TIP3    H227162   0.684   3.261  12.277  0.3994  0.5676  0.9168
 1891TIP3   OH227163   0.725   0.756  12.266 -0.4552 -0.2314 -0.8254
 1891TIP3    H127164   0.746   0.753  12.359 -0.5541  1.2333 -0.7445
 1891TIP3    H227165   0.684   0.671  12.248 -0.9203 -0.3154  0.5806
 1892TIP3   OH227166   5.463   4.940   1.833 -0.0158 -0.0643  0.1967
 1892TIP3    H127167   5.368   4.948   1.828  0.0544  0.0701 -1.2293
 1892TIP3    H227168   5.492   4.943   1.742  1.3007 -0.7869  0.5767
 1893TIP3   OH227169   0.089   3.458  16.493 -0.2718  0.3350  0.1456
 1893TIP3    H127170   0.101   3.452  16.588 -1.5842  0.5364  0.3256
 1893TIP3    H227171   0.013   3.514  16.482 -1.2459 -1.1688 -0.9681
 1894TIP3   OH227172   0.673   6.339  17.091  0.1077  0.7548 -0.8800
 1894TIP3    H127173   0.726   6.375  17.020 -2.0403  2.9880 -1.4218
 1894TIP3    H227174   0.597   6.301  17.048  0.6295 -1.3307 -0.0270
 1895TIP3   OH227175   2.413   0.349  13.558 -0.0565 -0.3966 -0.6862
 1895TIP3    H127176   2.355   0.380  13.628  1.9152  0.2499  0.7056
 1895TIP3    H227177   2.372   0.269  13.526 -1.5393 -0.1190  0.4945
 1896TIP3   OH227178   4.894   2.919   0.410  0.6147 -0.3235  0.1277
 1896TIP3    H127179   4.834   2.985   0.373 -1.1173 -1.9921 -0.1107
 1896TIP3    H227180   4.851   2.835   0.392  2.2209 -1.4525  1.4788
 1897TIP3   OH227181   4.860   6.760   3.194 -0.1209  0.1813 -0.0087
 1897TIP3    H127182   4.905   6.679   3.219 -0.1010  0.2809  0.2867
 1897TIP3    H227183   4.769   6.735   3.182  0.2978 -0.3751 -2.3117
 1898TIP3   OH227184   5.992   3.049   1.739  0.4141  0.3773 -0.1674
 1898TIP3    H127185   5.977   3.053   1.645  0.6821  0.8783 -0.1925
 1898TIP3    H227186   5.980   3.139   1.768  2.1322  0.5695  0.0059
 1899TIP3   OH227187   6.344   3.815  17.184  0.6990 -0.2637  0.4314
 1899TIP3    H127188   6.402   3.779  17.117  0.4064 -0.2604  0.1724
 1899TIP3    H227189   6.375   3.905  17.196  0.3758 -0.0778 -0.1298
 1900TIP3   OH227190   0.246   1.959   1.713  0.1292 -0.5472 -0.2891
 1900TIP3    H127191   0.207   1.892   1.769 -2.2034  0.9063 -0.0675
 1900TIP3    H227192   0.234   2.040   1.763  0.0800  0.4510 -1.9018
 1901TIP3   OH227193   6.106   1.151  13.186  0.0413  0.3086  0.7172
 1901TIP3    H127194   6.072   1.217  13.125  0.6823  0.3317  0.3820
 1901TIP3    H227195   6.060   1.071  13.162 -0.8135  0.6470  1.1879
 1902TIP3   OH227196   1.541   5.845   5.546 -0.2622  0.0044  0.0495
 1902TIP3    H127197   1.482   5.872   5.617 -0.8423 -1.8731  0.3187
 1902TIP3    H227198   1.496   5.870   5.466 -0.7841 -0.1493  0.2910
 1903TIP3   OH227199   2.710   3.803  12.335 -0.2437 -0.4141 -0.3131
 1903TIP3    H127200   2.686   3.801  12.242 -1.1484  1.4675 -0.1431
 1903TIP3    H227201   2.725   3.712  12.358 -0.9261 -0.9910 -2.0857
 1904TIP3   OH227202   2.919   3.794  13.857  0.2860  0.0605  0.4173
 1904TIP3    H127203   3.008   3.788  13.893 -0.1862  0.2436  1.6744
 1904TIP3    H227204   2.863   3.808  13.934 -0.7768  0.4578 -0.4018
 1905TIP3   OH227205   1.541   0.103   0.307 -0.1373  0.2779 -0.5081
 1905TIP3    H127206   1.562   0.011   0.294  1.2603  0.4257  0.5854
 1905TIP3    H227207   1.446   0.107   0.300 -0.1668 -1.1745 -1.0123
 1906TIP3   OH227208   5.701   6.086   0.392  0.2265 -0.1595  0.4980
 1906TIP3    H127209   5.650   6.074   0.311 -0.8318  0.5336  1.0509
 1906TIP3    H227210   5.792   6.094   0.362 -0.0912 -0.5258 -0.5771
 1907TIP3   OH227211   5.135   3.488  17.120 -0.2716 -0.2635 -0.2409
 1907TIP3    H127212   5.191   3.507  17.045 -0.1765 -0.3202 -0.1866
 1907TIP3    H227213   5.193   3.444  17.182 -0.4886 -0.7324 -0.3690
 1908TIP3   OH227214   5.528   6.735   4.875  0.3949  0.1119  0.3765
 1908TIP3    H127215   5.481   6.773   4.801  0.4338 -0.0628  0.2638
 1908TIP3    H227216   5.604   6.692   4.836 -0.2551 -1.0654  0.3907
 1909TIP3   OH227217   4.450   3.948   1.179  0.3822  0.2217 -0.3156
 1909TIP3    H127218   4.375   3.890   1.167  1.4288 -1.2127  0.0370
 1909TIP3    H227219   4.457   3.959   1.274  1.0456 -0.2157 -0.3128
 1910TIP3   OH227220   5.047   5.871  15.748 -0.2737  0.5175  0.2182
 1910TIP3    H127221   4.953   5.858  15.738 -0.2486  0.7111 -0.2628
 1910TIP3    H227222   5.071   5.932  15.679  0.1735  0.6214  0.4594
 1911TIP3   OH227223   5.027   5.564   2.958 -0.5551  0.1074 -0.2923
 1911TIP3    H127224   4.937   5.532   2.955 -0.0696 -1.2274 -0.9953
 1911TIP3    H227225   5.066   5.531   2.877  1.3523 -1.6602  1.3307
 1912TIP3   OH227226   2.683   3.572   3.472  0.2229 -0.5193  0.3566
 1912TIP3    H127227   2.736   3.650   3.489 -1.3806  0.6891 -0.1118
 1912TIP3    H227228   2.624   3.598   3.401 -2.1072 -1.3023  1.9587
 1913TIP3   OH227229   3.405   4.828  15.096 -0.4779 -0.4834 -0.1929
 1913TIP3    H127230   3.440   4.798  15.012 -1.5663 -3.1328  0.2707
 1913TIP3    H227231   3.314   4.852  15.078 -0.4683 -0.2396  0.0699
 1914TIP3   OH227232   0.142   3.164  11.653 -0.0845  0.4238 -0.1342
 1914TIP3    H127233   0.168   3.084  11.698  1.7919  1.0835 -0.0052
 1914TIP3    H227234   0.081   3.135  11.585 -2.7322 -0.6199  2.5912
 1915TIP3   OH227235   1.939   4.874  16.891  0.0583 -0.4202 -0.2520
 1915TIP3    H127236   1.926   4.948  16.950 -1.8637 -0.4787 -0.5589
 1915TIP3    H227237   1.911   4.798  16.942  0.1056 -0.6881 -0.6245
 1916TIP3   OH227238   2.091   3.051  11.367 -0.3621 -0.1275  0.0583
 1916TIP3    H127239   2.040   3.054  11.448  0.3534 -1.0653  0.5501
 1916TIP3    H227240   2.038   2.997  11.308 -2.0239  2.4841 -0.9292
 1917TIP3   OH227241   2.197   2.617   1.327  0.6279  0.6356  0.1447
 1917TIP3    H127242   2.178   2.546   1.389 -1.5371  0.6203 -0.5174
 1917TIP3    H227243   2.292   2.611   1.313  0.8389 -0.6097  1.9269
 1918TIP3   OH227244   1.068   6.012  12.488  0.2749 -0.0941  0.4592
 1918TIP3    H127245   0.981   5.981  12.515  0.1947  0.1157  0.4414
 1918TIP3    H227246   1.070   5.998  12.394  0.1574  0.1570  0.4201
 1919TIP3   OH227247   6.181   1.521   3.968 -0.0417 -0.2838 -0.0396
 1919TIP3    H127248   6.204   1.447   4.024 -1.9683 -0.4825  0.5358
 1919TIP3    H227249   6.232   1.509   3.888  3.2557  0.3562  1.8876
 1920TIP3   OH227250   1.837   4.382   4.244 -0.0091 -0.0164 -0.0259
 1920TIP3    H127251   1.930   4.371   4.225 -0.0075  0.3040 -0.2171
 1920TIP3    H227252   1.817   4.315   4.309  1.1068  2.0283  2.4833
 1921TIP3   OH227253   1.196   6.346   0.898  0.1789 -0.2149  0.0669
 1921TIP3    H127254   1.170   6.420   0.844  0.2598  0.4924  0.9865
 1921TIP3    H227255   1.142   6.352   0.977  0.3971 -0.9536  0.2843
 1922TIP3   OH227256   4.341   4.253   0.285  0.4236  0.3380  0.1157
 1922TIP3    H127257   4.357   4.259   0.379 -0.2276  2.0488  0.1259
 1922TIP3    H227258   4.391   4.176   0.257  0.2524 -0.4418  1.9262
 1923TIP3   OH227259   1.387   1.577   5.656 -0.6490 -0.4119  0.1113
 1923TIP3    H127260   1.322   1.570   5.586 -0.8725  1.5493  0.1049
 1923TIP3    H227261   1.464   1.531   5.621 -1.4298 -1.1990 -0.5937
 1924TIP3   OH227262   0.291   3.475  11.117 -0.0386 -0.0925 -0.2203
 1924TIP3    H127263   0.336   3.555  11.142  0.7784 -1.0241  1.3328
 1924TIP3    H227264   0.334   3.405  11.167 -2.5308 -1.1464  0.5895
 1925TIP3   OH227265   6.057   0.488   3.605 -0.2022  0.0624  0.5698
 1925TIP3    H127266   6.050   0.448   3.518  0.3309  0.6125  0.2594
 1925TIP3    H227267   6.109   0.568   3.589 -0.7412  0.5521  1.2685
 1926TIP3   OH227268   1.146   5.033  16.071  0.4927  0.3768 -0.1103
 1926TIP3    H127269   1.081   5.091  16.112 -0.5557 -1.0273  0.2502
 1926TIP3    H227270   1.124   5.035  15.978 -0.1906 -0.2330  0.0339
 1927TIP3   OH227271   0.598   0.724  12.814 -0.2118  0.2342 -0.2635
 1927TIP3    H127272   0.646   0.786  12.868  0.7863 -0.4954 -0.3038
 1927TIP3    H227273   0.651   0.715  12.735 -1.2757  0.7132 -1.0463
 1928TIP3   OH227274   4.079   2.545   5.823 -0.2661  0.0935 -0.6892
 1928TIP3    H127275   4.138   2.617   5.843 -1.1844  0.4798  0.7225
 1928TIP3    H227276   4.094   2.481   5.892 -0.3627 -0.5088 -1.2196
 1929TIP3   OH227277   3.295   4.850   5.318 -0.1548 -0.8074  0.1713
 1929TIP3    H127278   3.375   4.893   5.287 -1.4485  1.0712 -0.7037
 1929TIP3    H227279   3.275   4.895   5.401 -0.1827 -1.4209  0.4962
 1930TIP3   OH227280   2.158   4.639   3.591  0.2552 -0.1792 -0.2964
 1930TIP3    H127281   2.216   4.714   3.605  2.9036 -2.4534  1.4043
 1930TIP3    H227282   2.193   4.595   3.514 -2.3852  1.2643 -2.3976
 1931TIP3   OH227283   3.011   2.860  14.843  0.2258 -0.1832  0.5471
 1931TIP3    H127284   3.092   2.896  14.880  0.6334  0.3668 -0.8252
 1931TIP3    H227285   3.025   2.864  14.748 -0.2537 -2.7786  0.3380
 1932TIP3   OH227286   0.911   3.906   2.705 -0.3416  0.2541  0.1802
 1932TIP3    H127287   0.873   3.969   2.645  0.2420  1.3622  0.9559
 1932TIP3    H227288   1.003   3.901   2.680 -0.3965 -0.3477  0.0787
 1933TIP3   OH227289   5.172   2.413   5.240  0.0304 -0.1753  0.4930
 1933TIP3    H127290   5.080   2.418   5.267  0.4680  1.1240  1.8275
 1933TIP3    H227291   5.218   2.471   5.301  1.4241  0.8930 -1.5087
 1934TIP3   OH227292   2.128   4.184  17.043  0.4040 -0.4706  1.1529
 1934TIP3    H127293   2.168   4.102  17.014 -0.6135 -0.6995  0.3755
 1934TIP3    H227294   2.194   4.223  17.100  0.7893 -1.9634  1.7646
 1935TIP3   OH227295   6.494   2.558  15.784  0.0878 -0.1613  0.8887
 1935TIP3    H127296   6.455   2.635  15.826  0.9919 -0.6643  2.6955
 1935TIP3    H227297   6.433   2.535  15.714 -0.5446  1.7788  0.7720
 1936TIP3   OH227298   6.340   5.810   3.042  0.2087 -0.0737  0.4172
 1936TIP3    H127299   6.319   5.811   3.136 -2.0832 -1.4318 -0.0585
 1936TIP3    H227300   6.398   5.735   3.031 -0.6193 -0.7328  0.5295
 1937TIP3   OH227301   2.418   6.043   1.218 -0.1131 -0.0954  0.0324
 1937TIP3    H127302   2.369   5.972   1.260  0.4525  0.1061  1.0665
 1937TIP3    H227303   2.368   6.064   1.140 -0.1816 -1.7688 -0.4013
 1938TIP3   OH227304   5.930   2.032  11.710 -0.6263 -0.3558  0.2944
 1938TIP3    H127305   5.886   2.115  11.730 -1.5988 -0.6226 -0.6726
 1938TIP3    H227306   6.007   2.058  11.660  0.2548  0.1026  1.8362
 1939TIP3   OH227307   0.894   1.192   5.129 -0.1692  0.2285 -0.2867
 1939TIP3    H127308   0.804   1.161   5.143 -0.1523 -0.1238 -0.9627
 1939TIP3    H227309   0.948   1.138   5.187 -0.2794 -0.2193 -0.5988
 1940TIP3   OH227310   4.254   0.840  16.317  0.3181 -0.3082 -0.4223
 1940TIP3    H127311   4.288   0.751  16.333  0.1339 -0.3849 -0.4586
 1940TIP3    H227312   4.330   0.889  16.285  0.3390 -0.5480 -0.7460
 1941TIP3   OH227313   6.135   6.645  14.575  0.3023 -0.0544 -0.2157
 1941TIP3    H127314   6.211   6.615  14.525 -0.1677 -0.2787 -0.8037
 1941TIP3    H227315   6.061   6.631  14.516 -0.2170 -0.0152  0.4270
 1942TIP3   OH227316   0.170   3.315   1.767 -0.2537 -0.3827 -0.0300
 1942TIP3    H127317   0.135   3.237   1.810 -0.2604 -0.5898 -0.4084
 1942TIP3    H227318   0.166   3.295   1.673  2.4539 -1.1150 -0.0482
 1943TIP3   OH227319   3.788   0.423   6.012 -0.2006  0.1797 -0.5179
 1943TIP3    H127320   3.708   0.463   6.044 -0.2968 -0.6300  0.2898
 1943TIP3    H227321   3.822   0.375   6.088  0.7673  0.0957 -1.0021
 1944TIP3   OH227322   5.183   1.826   5.102  0.0875  0.3426 -0.1887
 1944TIP3    H127323   5.272   1.858   5.087 -0.2879  0.5393 -2.0578
 1944TIP3    H227324   5.137   1.901   5.140  0.4163  0.5834 -0.2634
 1945TIP3   OH227325   1.248   6.786   5.202  0.5171  0.0987  0.4528
 1945TIP3    H127326   1.155   6.774   5.182  0.4238 -0.4448  1.2027
 1945TIP3    H227327   1.293   6.756   5.123 -0.0334  3.5442 -1.2713
 1946TIP3   OH227328   3.082   1.606   5.191 -0.4786  0.0871  0.2119
 1946TIP3    H127329   3.169   1.604   5.152 -0.4690  1.2493  0.1777
 1946TIP3    H227330   3.027   1.558   5.129 -0.3823  1.5969 -1.0682
 1947TIP3   OH227331   5.438   4.749   0.509 -0.4586 -0.0079  0.3671
 1947TIP3    H127332   5.500   4.726   0.578 -0.0405 -0.5669 -0.1879
 1947TIP3    H227333   5.352   4.746   0.553 -0.1326  0.4205  1.0488
 1948TIP3   OH227334   6.384   6.092  13.069 -0.1995 -0.5622 -0.5952
 1948TIP3    H127335   6.335   6.173  13.060  0.5981  0.6675  4.4257
 1948TIP3    H227336   6.320   6.029  13.101  0.1817 -0.6162  0.0665
 1949TIP3   OH227337   5.467   1.478   0.131 -0.4577  0.1988  0.0569
 1949TIP3    H127338   5.449   1.451   0.221 -1.4723  0.8785  0.0631
 1949TIP3    H227339   5.478   1.396   0.083  0.4715 -0.1631  0.8740
 1950TIP3   OH227340   2.666   6.262  14.327 -0.5046 -0.2805  0.0580
 1950TIP3    H127341   2.655   6.333  14.391 -0.0449  1.0144 -1.2714
 1950TIP3    H227342   2.660   6.305  14.242 -0.3994 -1.8801 -0.7801
 1951TIP3   OH227343   3.648   1.701  15.763  0.2740  0.0157 -0.1925
 1951TIP3    H127344   3.622   1.793  15.768  2.8507  0.7133  1.6185
 1951TIP3    H227345   3.734   1.702  15.720 -0.4614 -1.7294 -1.7607
 1952TIP3   OH227346   2.469   0.449   3.385  0.1087 -0.5920 -0.3638
 1952TIP3    H127347   2.554   0.406   3.390 -0.2115 -1.1816 -0.0193
 1952TIP3    H227348   2.434   0.425   3.300 -0.4372 -1.7054  0.1640
 1953TIP3   OH227349   3.902   6.295  15.263 -0.3812 -0.7564 -0.8005
 1953TIP3    H127350   3.857   6.277  15.345  0.5638 -0.6601 -0.2522
 1953TIP3    H227351   3.939   6.383  15.274 -0.5312 -0.6116 -1.4491
 1954TIP3   OH227352   1.781   5.670   5.575 -0.0781 -0.4237 -0.3489
 1954TIP3    H127353   1.693   5.680   5.612 -0.8078 -1.6884 -1.6733
 1954TIP3    H227354   1.821   5.599   5.625  0.8979  1.3771  1.4855
 1955TIP3   OH227355   0.278   6.592  14.027 -0.6439 -0.0547 -0.5195
 1955TIP3    H127356   0.338   6.631  13.963  1.3852 -0.0927  1.3025
 1955TIP3    H227357   0.291   6.498  14.018  0.0831 -0.0423  0.3372
 1956TIP3   OH227358   5.235   0.830   4.056 -0.3507  0.2753 -1.2105
 1956TIP3    H127359   5.271   0.915   4.081  1.8886 -0.3657 -2.1168
 1956TIP3    H227360   5.204   0.841   3.967 -1.3181  0.5041 -0.8483
 1957TIP3   OH227361   1.890   2.452   3.293 -0.3019  0.6163 -0.3878
 1957TIP3    H127362   1.849   2.508   3.359  0.8379  0.3989  0.5116
 1957TIP3    H227363   1.817   2.413   3.246 -1.1351  0.2106  1.2173
 1958TIP3   OH227364   1.195   1.868   1.342 -0.2494 -0.3223 -0.4197
 1958TIP3    H127365   1.148   1.942   1.380  0.9626  1.1099 -1.6409
 1958TIP3    H227366   1.288   1.888   1.356  0.0989 -1.5234 -0.8930
 1959TIP3   OH227367   1.439   3.015  14.534 -0.5409 -0.6330 -0.3328
 1959TIP3    H127368   1.401   3.075  14.469 -0.7316  1.7821  1.9225
 1959TIP3    H227369   1.406   3.047  14.618  2.1089 -1.8217  1.2262
 1960TIP3   OH227370   4.369   4.955   5.257  0.0258 -0.2204 -0.5984
 1960TIP3    H127371   4.465   4.954   5.258  0.0691  1.0906 -1.2387
 1960TIP3    H227372   4.347   5.048   5.248 -1.3062 -0.5140 -0.4333
 1961TIP3   OH227373   0.053   6.731   4.970  0.0100 -0.0413 -0.0412
 1961TIP3    H127374   0.107   6.801   5.006  1.3438 -1.7744  1.4478
 1961TIP3    H227375   0.004   6.697   5.045  0.0617 -1.2960 -0.5560
 1962TIP3   OH227376   5.044   5.835   5.540  0.1352  0.2876 -0.0393
 1962TIP3    H127377   4.960   5.819   5.583 -0.0951  0.1794 -0.5235
 1962TIP3    H227378   5.109   5.825   5.609 -0.3254  1.3492  0.5444
 1963TIP3   OH227379   1.842   1.613  14.619 -0.2163  0.4651 -0.1268
 1963TIP3    H127380   1.810   1.580  14.535 -1.5551  0.6530  0.3066
 1963TIP3    H227381   1.806   1.554  14.684 -0.9613  1.5920  0.4927
 1964TIP3   OH227382   5.007   1.694  16.893  0.1366  0.3565 -0.4111
 1964TIP3    H127383   5.001   1.708  16.798 -0.6878 -0.8528 -0.5444
 1964TIP3    H227384   5.093   1.653  16.905 -0.7291 -1.7266 -0.9458
 1965TIP3   OH227385   2.604   4.803   6.680  0.0053  0.0278 -0.0634
 1965TIP3    H127386   2.515   4.811   6.715  0.0207 -0.1655  0.0214
 1965TIP3    H227387   2.610   4.712   6.651 -0.4677  0.5245 -1.8076
 1966TIP3   OH227388   3.369   6.741  14.591  0.3197  0.2838  0.8842
 1966TIP3    H127389   3.419   6.735  14.673  0.4763  3.0281  1.0205
 1966TIP3    H227390   3.315   6.662  14.591  1.6645 -0.6892  2.7275
 1967TIP3   OH227391   3.552   5.422  15.476  0.1031 -0.2316  0.0208
 1967TIP3    H127392   3.488   5.350  15.473 -0.9623  0.7120 -0.1877
 1967TIP3    H227393   3.561   5.450  15.385  1.8941 -1.2621 -0.1598
 1968TIP3   OH227394   4.791   4.597  14.162  0.0501 -0.1282 -0.1705
 1968TIP3    H127395   4.769   4.678  14.206 -1.3899  0.0769 -1.2475
 1968TIP3    H227396   4.711   4.545  14.164 -0.0046 -0.1631 -2.4287
 1969TIP3   OH227397   6.053   3.509   4.336 -0.5938 -0.3608 -0.0191
 1969TIP3    H127398   6.027   3.419   4.354 -1.8711  0.0665  0.3131
 1969TIP3    H227399   5.971   3.559   4.336 -0.0877  0.5269 -1.8383
 1970TIP3   OH227400   4.430   2.303  16.727 -0.1981  0.2051  0.0819
 1970TIP3    H127401   4.502   2.242  16.711 -1.0028 -0.6399 -0.3774
 1970TIP3    H227402   4.372   2.256  16.786  0.1233  1.2803  1.2576
 1971TIP3   OH227403   2.099   1.215   4.085 -0.3002  0.1463 -0.2244
 1971TIP3    H127404   2.167   1.269   4.044 -2.0054  1.5699 -1.2560
 1971TIP3    H227405   2.075   1.262   4.164 -1.4764  0.6902 -0.8938
 1972TIP3   OH227406   1.900   1.582   0.673  0.0577 -0.5025 -0.2010
 1972TIP3    H127407   1.889   1.512   0.736  1.3617 -1.1743 -0.7033
 1972TIP3    H227408   1.902   1.662   0.725  0.8005 -1.0267  0.5710
 1973TIP3   OH227409   5.545   1.573  14.147 -0.3703  0.0675  0.3055
 1973TIP3    H127410   5.551   1.640  14.215 -0.4826 -0.1385  0.5201
 1973TIP3    H227411   5.621   1.588  14.091 -1.0407  1.1346 -0.3403
 1974TIP3   OH227412   6.437   6.695  15.685 -0.0521 -0.1672  0.3426
 1974TIP3    H127413   6.390   6.714  15.766 -0.3250  0.6801 -0.0186
 1974TIP3    H227414   6.375   6.645  15.632 -0.3081  0.3430  0.1557
 1975TIP3   OH227415   2.622   3.468  11.071 -0.0858  0.1593 -0.2869
 1975TIP3    H127416   2.680   3.496  11.001  0.2674  1.5543  0.5389
 1975TIP3    H227417   2.620   3.373  11.065  1.8322  0.1305 -0.6923
 1976TIP3   OH227418   1.188   0.802  16.853 -0.0777  0.5975 -0.0361
 1976TIP3    H127419   1.195   0.895  16.832  0.5436  0.3921 -0.7751
 1976TIP3    H227420   1.177   0.800  16.948 -1.0002  1.4597 -0.1114
 1977TIP3   OH227421   5.368   6.266   1.425 -0.6406  0.7845 -0.1129
 1977TIP3    H127422   5.446   6.233   1.382 -2.2933 -0.3793 -2.3164
 1977TIP3    H227423   5.332   6.330   1.364 -2.1883  0.2136  0.1666
 1978TIP3   OH227424   1.384   2.810   0.434 -0.5446 -0.3514  0.1213
 1978TIP3    H127425   1.447   2.789   0.502  1.0461  0.1051 -1.1834
 1978TIP3    H227426   1.422   2.886   0.389 -1.1811 -1.1345 -1.7725
 1979TIP3   OH227427   1.777   2.567   0.115 -0.4611  0.3046  0.0645
 1979TIP3    H127428   1.682   2.577   0.109 -0.7275 -1.5473  0.7543
 1979TIP3    H227429   1.811   2.609   0.036 -1.7969  1.6490  0.1912
 1980TIP3   OH227430   3.210   5.864   3.506  0.1154  0.3918  0.3150
 1980TIP3    H127431   3.282   5.828   3.454 -0.4814  0.6894 -0.7226
 1980TIP3    H227432   3.167   5.787   3.544 -1.0321 -0.0081 -1.7302
 1981TIP3   OH227433   4.048   5.690   5.744  0.3510 -0.3556  0.4173
 1981TIP3    H127434   4.118   5.680   5.809  1.9643 -1.1836 -1.3840
 1981TIP3    H227435   4.094   5.695   5.660 -1.7845 -1.6580 -0.8863
 1982TIP3   OH227436   5.597   0.220   0.864 -0.1317  0.0710  0.3697
 1982TIP3    H127437   5.526   0.258   0.916  1.0894  2.3010  0.4643
 1982TIP3    H227438   5.625   0.144   0.915 -1.3525  0.1203  1.1536
 1983TIP3   OH227439   2.664   1.362   6.094  0.5291 -0.2654  0.1348
 1983TIP3    H127440   2.757   1.385   6.094  0.5698 -0.3858 -1.2829
 1983TIP3    H227441   2.626   1.414   6.165  1.0973  2.2180 -1.3067
 1984TIP3   OH227442   2.158   3.102  16.781  0.1813 -0.6439  0.2686
 1984TIP3    H127443   2.239   3.151  16.794 -1.1977  1.2618  2.1194
 1984TIP3    H227444   2.103   3.161  16.728 -1.1872 -0.4775  1.8245
 1985TIP3   OH227445   1.009   1.881   3.037  0.5167 -0.2568  0.3903
 1985TIP3    H127446   0.980   1.894   3.128 -0.5672  1.8228 -0.2246
 1985TIP3    H227447   0.993   1.965   2.995 -2.5230 -2.2502 -2.6757
 1986TIP3   OH227448   3.793   0.424  16.090  0.4601 -1.0368  0.0597
 1986TIP3    H127449   3.782   0.346  16.145  2.0502 -1.4107 -0.1118
 1986TIP3    H227450   3.728   0.486  16.123  0.8590 -1.5307  1.8619
 1987TIP3   OH227451   5.005   2.472   0.789 -0.3838 -0.1830 -0.4433
 1987TIP3    H127452   4.946   2.542   0.818 -0.3668 -0.9044  1.4081
 1987TIP3    H227453   5.020   2.491   0.697  0.0921  2.6168  0.1447
 1988TIP3   OH227454   0.398   0.070  10.909  0.0666 -0.2419 -0.5425
 1988TIP3    H127455   0.342   0.049  10.835 -1.5896 -0.7104  0.7959
 1988TIP3    H227456   0.462   0.133  10.875 -1.1769  0.1861 -2.1381
 1989TIP3   OH227457   2.274   4.162  11.481  0.2469 -0.6903 -0.7940
 1989TIP3    H127458   2.351   4.115  11.514 -0.0965 -1.1038 -0.5745
 1989TIP3    H227459   2.299   4.255  11.483  1.0791 -0.8929 -1.6387
 1990TIP3   OH227460   3.894   1.047  11.398  0.2762 -0.6019  0.3211
 1990TIP3    H127461   3.841   0.969  11.413  1.0058 -1.2846 -0.5817
 1990TIP3    H227462   3.983   1.015  11.391  0.4576  0.1746 -1.1578
 1991TIP3   OH227463   0.904   0.274   5.013  0.1519  0.0868 -0.2422
 1991TIP3    H127464   0.882   0.331   4.939  2.0431  0.1599 -0.7739
 1991TIP3    H227465   0.849   0.197   5.001  1.0041 -0.2502 -2.1938
 1992TIP3   OH227466   4.636   3.491   6.386 -0.2307  0.2888 -0.0471
 1992TIP3    H127467   4.550   3.519   6.352 -0.8425  0.2196  1.4094
 1992TIP3    H227468   4.647   3.402   6.354  0.0057  0.8540 -1.5541
 1993TIP3   OH227469   2.977   0.122   5.380  0.2961  0.0061 -0.2496
 1993TIP3    H127470   2.904   0.097   5.324 -1.0986  0.1094  1.5069
 1993TIP3    H227471   2.983   0.217   5.372 -0.6365  0.1420  0.6712
 1994TIP3   OH227472   1.418   1.193   2.677  0.2453  0.1217  0.1912
 1994TIP3    H127473   1.325   1.172   2.684  0.3516  0.1130  1.7867
 1994TIP3    H227474   1.447   1.145   2.600 -1.3615  1.2127 -1.1282
 1995TIP3   OH227475   4.719   2.509  16.066 -0.2674  0.1864 -0.2095
 1995TIP3    H127476   4.798   2.515  16.120  0.3037 -1.7901 -0.7839
 1995TIP3    H227477   4.743   2.549  15.983  0.1479 -0.4412 -0.3944
 1996TIP3   OH227478   1.178   2.244   4.794 -0.1754  0.3240 -0.8466
 1996TIP3    H127479   1.239   2.212   4.727  0.2936  1.6897 -1.0968
 1996TIP3    H227480   1.157   2.167   4.846  3.5259  0.2247  0.6360
 1997TIP3   OH227481   5.732   3.022  15.861 -0.2407 -0.2981 -0.0007
 1997TIP3    H127482   5.753   3.106  15.819 -1.1198 -0.8662 -1.6074
 1997TIP3    H227483   5.639   3.028  15.880 -0.4934 -1.2408 -0.9105
 1998TIP3   OH227484   4.755   1.077  14.604  0.0450 -0.1597 -0.0736
 1998TIP3    H127485   4.839   1.057  14.643 -0.9785 -1.9168  1.2845
 1998TIP3    H227486   4.692   1.026  14.654 -1.8382  1.1249 -1.0612
 1999TIP3   OH227487   1.887   4.385   3.152 -0.1876 -0.6582 -0.3272
 1999TIP3    H127488   1.847   4.303   3.182  1.0059 -0.6554  1.3250
 1999TIP3    H227489   1.813   4.445   3.140 -0.6629 -0.2022  4.0365
 2000TIP3   OH227490   3.598   3.984  12.441  0.0295  0.9610  0.5202
 2000TIP3    H127491   3.599   3.995  12.536 -2.7804  1.8282  0.4776
 2000TIP3    H227492   3.611   4.072  12.407  3.0493  0.3860  0.0377
 2001TIP3   OH227493   4.944   3.480   5.393 -0.1351 -0.6519  0.0901
 2001TIP3    H127494   4.898   3.538   5.332  0.1828 -0.1165  0.3585
 2001TIP3    H227495   4.875   3.425   5.430 -0.7612  1.0158  1.4542
 2002TIP3   OH227496   5.313   1.203   1.079 -0.1473  0.1837  0.1997
 2002TIP3    H127497   5.237   1.239   1.035  0.7299 -1.0690 -2.4620
 2002TIP3    H227498   5.278   1.137   1.138 -1.1555 -0.2553 -0.8760
 2003TIP3   OH227499   0.446   3.473  13.195 -0.4833 -0.7723  0.6867
 2003TIP3    H127500   0.526   3.525  13.189 -0.2334 -1.3441 -1.2525
 2003TIP3    H227501   0.476   3.388  13.228 -0.3453 -0.8511  0.3635
 2004TIP3   OH227502   5.926   2.974  12.996  0.4472 -0.1744  0.5746
 2004TIP3    H127503   5.992   2.988  13.064 -0.1478 -0.7011  1.2736
 2004TIP3    H227504   5.855   3.034  13.019 -0.9366 -2.2889  2.0148
 2005TIP3   OH227505   6.550   1.512   4.019 -0.2128  0.6949 -0.1525
 2005TIP3    H127506   6.544   1.474   3.931 -3.2780  2.3099 -0.7070
 2005TIP3    H227507   6.499   1.453   4.074 -0.4967  1.1144  0.0345
 2006TIP3   OH227508   2.822   3.584  14.969 -0.0071  0.3504  0.3432
 2006TIP3    H127509   2.790   3.643  14.901 -0.2066 -0.1312  0.0190
 2006TIP3    H227510   2.812   3.496  14.932 -1.0675  0.0194  1.3705
 2007TIP3   OH227511   3.363   6.665  12.730 -0.0648 -0.8069 -0.1214
 2007TIP3    H127512   3.270   6.680  12.749  0.5731  1.9739  1.2134
 2007TIP3    H227513   3.382   6.580  12.768 -1.7469 -0.7584  0.8840
 2008TIP3   OH227514   5.625   1.393  16.294 -0.4988 -0.4033  0.5264
 2008TIP3    H127515   5.683   1.422  16.224 -0.4921  1.3241  1.2024
 2008TIP3    H227516   5.670   1.420  16.375 -1.0396 -1.3296  1.1472
 2009TIP3   OH227517   4.842   1.228   1.820  0.0155  0.5217 -0.2059
 2009TIP3    H127518   4.895   1.295   1.863  1.1948  0.2423 -1.1880
 2009TIP3    H227519   4.876   1.145   1.853  1.2503  0.2904 -2.0200
 2010TIP3   OH227520   4.570   1.499   2.681 -0.0197 -0.2655  0.2733
 2010TIP3    H127521   4.561   1.583   2.725 -0.4791  0.5259 -1.3398
 2010TIP3    H227522   4.596   1.520   2.592 -0.0997 -1.8329 -0.1429
 2011TIP3   OH227523   3.852   2.122   4.971  0.0460 -0.5880 -0.5100
 2011TIP3    H127524   3.790   2.077   5.029  0.0893  0.0348  0.0273
 2011TIP3    H227525   3.861   2.064   4.895 -2.0125 -0.1833 -1.0877
 2012TIP3   OH227526   2.038   5.770   2.322 -0.3066  0.3313  0.6096
 2012TIP3    H127527   2.042   5.866   2.329 -0.0520  0.2670  1.3093
 2012TIP3    H227528   2.113   5.739   2.371  0.2306 -0.1924 -0.5209
 2013TIP3   OH227529   1.091   1.937   5.891  0.0114  0.4911 -0.2766
 2013TIP3    H127530   1.125   1.942   5.980  0.8105  0.4256 -0.5801
 2013TIP3    H227531   1.149   1.993   5.839  1.4882 -1.9484 -1.3451
 2014TIP3   OH227532   4.631   0.740   1.772  0.2606  0.1254 -0.2517
 2014TIP3    H127533   4.714   0.748   1.819  1.4636  1.3298 -2.5140
 2014TIP3    H227534   4.589   0.826   1.781  0.6705  0.4887 -1.6529
 2015TIP3   OH227535   6.696   1.407   3.145 -0.0592 -0.0455  0.6222
 2015TIP3    H127536   6.692   1.382   3.052 -0.9863  1.7017  0.1752
 2015TIP3    H227537   6.680   1.325   3.192 -0.3956 -0.8033 -0.7720
 2016TIP3   OH227538   6.336   5.219  11.523  0.1628  0.1654  0.1820
 2016TIP3    H127539   6.396   5.245  11.592 -0.3592 -0.0578  0.7220
 2016TIP3    H227540   6.278   5.295  11.512  0.4885  0.3493 -0.2816
 2017TIP3   OH227541   3.004   1.373   0.637  0.9971  0.0878 -0.4024
 2017TIP3    H127542   3.067   1.304   0.618  1.5449  0.2590  0.7554
 2017TIP3    H227543   3.055   1.454   0.631  1.0567  0.1823  1.2330
 2018TIP3   OH227544   1.704   1.060  12.894  0.3770  0.5492  1.2127
 2018TIP3    H127545   1.783   1.114  12.895  0.7925 -0.0244  0.4135
 2018TIP3    H227546   1.687   1.039  12.986  0.5665  1.5148  1.4733
 2019TIP3   OH227547   4.531   0.326  17.197  0.4987 -0.3128 -0.0762
 2019TIP3    H127548   4.576   0.250  17.161  0.9217  0.0589 -0.3447
 2019TIP3    H227549   4.602   0.381  17.231  0.1923 -0.0699  0.1742
 2020TIP3   OH227550   1.528   3.634   3.228  0.3896  0.0134 -0.0560
 2020TIP3    H127551   1.617   3.623   3.194  0.5568 -0.3568  0.4862
 2020TIP3    H227552   1.481   3.556   3.198 -0.1690  0.9255 -1.6147
 2021TIP3   OH227553   3.918   3.936   5.124 -0.2838  0.2523 -0.7657
 2021TIP3    H127554   3.858   3.899   5.188  1.0320  1.1132  1.0175
 2021TIP3    H227555   4.005   3.908   5.153  0.4915  2.3036 -1.0126
 2022TIP3   OH227556   0.671   6.224   5.959 -0.2916 -0.1127 -0.6290
 2022TIP3    H127557   0.577   6.217   5.973  0.0464  0.8381  2.7753
 2022TIP3    H227558   0.684   6.312   5.924 -0.6119  0.1050 -0.2043
 2023TIP3   OH227559   0.083   2.383  11.584  0.2128 -0.3603 -0.2696
 2023TIP3    H127560   0.104   2.391  11.677 -0.1240  0.6551 -0.2711
 2023TIP3    H227561   0.163   2.409  11.538 -0.6595  2.5431 -0.2676
 2024TIP3   OH227562   4.527   6.173  12.708  0.1745  0.0692 -0.4539
 2024TIP3    H127563   4.561   6.208  12.625 -0.2100  2.2165  0.2772
 2024TIP3    H227564   4.598   6.187  12.771  0.1473 -0.7985 -0.2209
 2025TIP3   OH227565   5.855   4.894   2.592  0.3043  0.0448  0.7008
 2025TIP3    H127566   5.820   4.825   2.648  1.1689 -1.5911 -0.7372
 2025TIP3    H227567   5.788   4.962   2.594 -0.4849 -0.7386  2.2894
 2026TIP3   OH227568   0.342   3.200   4.302  0.2312  0.1936 -0.3779
 2026TIP3    H127569   0.372   3.113   4.329 -0.6920 -0.7437 -2.3123
 2026TIP3    H227570   0.415   3.237   4.252  0.8698  0.8105  0.9832
 2027TIP3   OH227571   2.065   2.013   5.023  0.7113 -0.2202  0.0509
 2027TIP3    H127572   2.149   2.040   5.061  0.8084 -1.0389  0.4408
 2027TIP3    H227573   2.005   2.085   5.044  0.8312 -0.5283  1.5324
 2028TIP3   OH227574   5.588   4.535  15.347 -0.2813 -0.1835  0.2480
 2028TIP3    H127575   5.682   4.520  15.337 -0.5480 -1.8845  0.1474
 2028TIP3    H227576   5.551   4.448  15.364 -1.9048  0.3864 -0.2204
 2029TIP3   OH227577   2.693   5.609  13.091 -0.1544 -0.1269 -0.2948
 2029TIP3    H127578   2.672   5.650  13.175 -0.3187 -0.4428 -0.1808
 2029TIP3    H227579   2.635   5.651  13.029 -0.7074 -0.5666 -0.0841
 2030TIP3   OH227580   6.540   1.060   2.104 -0.0377  0.0090  0.3451
 2030TIP3    H127581   6.616   1.090   2.054  0.8947 -2.1422  0.4289
 2030TIP3    H227582   6.536   1.120   2.179 -0.0556  1.7991 -1.0351
 2031TIP3   OH227583   4.164   2.409  11.631  0.1747 -0.4329  0.1202
 2031TIP3    H127584   4.077   2.392  11.666  0.7648  0.1131  1.9166
 2031TIP3    H227585   4.151   2.418  11.536 -2.1422  2.3817  0.6427
 2032TIP3   OH227586   5.434   2.030   5.843  0.1434  0.0408 -0.6189
 2032TIP3    H127587   5.491   1.980   5.784 -1.0625 -2.1009 -0.0195
 2032TIP3    H227588   5.427   1.975   5.921 -0.5027  1.5834  0.4237
 2033TIP3   OH227589   4.819   0.471   2.294  0.3719  0.4492 -0.5376
 2033TIP3    H127590   4.818   0.392   2.240  2.3422  0.5259 -0.7248
 2033TIP3    H227591   4.758   0.530   2.250  0.8119 -0.0332 -1.8324
 2034TIP3   OH227592   6.639   3.378   5.025  0.2963  0.4136  0.3197
 2034TIP3    H127593   6.608   3.306   5.079  1.3029 -1.3070 -1.3123
 2034TIP3    H227594   6.563   3.404   4.973  0.2604 -0.4595 -0.0924
 2035TIP3   OH227595   1.405   6.575  10.465  0.3785 -0.0565 -0.3736
 2035TIP3    H127596   1.399   6.585  10.370  1.5918  1.4028 -0.3151
 2035TIP3    H227597   1.352   6.498  10.485  0.4098 -0.5864 -2.2789
 2036TIP3   OH227598   3.883   1.152   2.209  0.0512 -0.3709 -0.5571
 2036TIP3    H127599   3.954   1.180   2.266 -0.1239 -0.3604 -0.3447
 2036TIP3    H227600   3.887   1.056   2.210 -0.2821 -0.3807 -0.1120
 2037TIP3   OH227601   1.849   1.806   0.873  0.2283  0.2144  0.8242
 2037TIP3    H127602   1.842   1.886   0.821 -0.4334 -1.4968 -1.8341
 2037TIP3    H227603   1.929   1.818   0.925 -0.0427  2.7180  0.7284
 2038TIP3   OH227604   4.307   0.389  13.285 -0.4732 -0.0668  0.5829
 2038TIP3    H127605   4.388   0.436  13.269 -1.2510  0.9768 -0.3943
 2038TIP3    H227606   4.312   0.311  13.229  0.5524 -0.8540  1.7517
 2039TIP3   OH227607   5.611   5.038   0.767 -0.2066 -0.0369  0.5962
 2039TIP3    H127608   5.527   4.992   0.761 -0.9323  1.2888  0.4789
 2039TIP3    H227609   5.644   5.015   0.854 -0.9723 -0.0920  0.8782
 2040TIP3   OH227610   3.755   6.779  11.789  0.1746  0.3287 -0.3361
 2040TIP3    H127611   3.673   6.775  11.741  0.0054 -2.6795  0.1382
 2040TIP3    H227612   3.797   6.695  11.773  2.8267  1.5439  0.0353
 2041TIP3   OH227613   4.372   2.285   5.483 -0.7442  0.7204 -0.3892
 2041TIP3    H127614   4.368   2.268   5.577 -0.8578  1.4070 -0.2655
 2041TIP3    H227615   4.388   2.200   5.444  1.2426  0.7074  0.3865
 2042TIP3   OH227616   6.107   5.648  12.548  0.4471 -0.1039  0.2941
 2042TIP3    H127617   6.138   5.680  12.633  1.4583  1.6522 -0.7118
 2042TIP3    H227618   6.024   5.605  12.567  0.1960  1.1133  2.0424
 2043TIP3   OH227619   1.122   0.489   0.683 -0.5284 -0.2885 -0.1365
 2043TIP3    H127620   1.062   0.453   0.618 -0.9685  3.3193 -1.8391
 2043TIP3    H227621   1.114   0.584   0.673  2.2672  0.3082  2.5733
 2044TIP3   OH227622   0.837   1.989   4.631  0.4369  0.5139 -0.0623
 2044TIP3    H127623   0.914   2.006   4.685  1.6144  0.1375 -1.5920
 2044TIP3    H227624   0.764   1.983   4.694  1.5667  1.3560  1.3444
 2045TIP3   OH227625   2.318   1.876   2.625  0.5105  0.1620 -0.1939
 2045TIP3    H127626   2.273   1.792   2.619 -0.3726  0.4878  1.3882
 2045TIP3    H227627   2.341   1.898   2.535  0.0725 -1.4039 -0.7034
 2046TIP3   OH227628   6.669   3.346   1.539  0.3210 -0.2898 -0.0325
 2046TIP3    H127629   6.609   3.415   1.511 -0.2080 -1.2967 -1.4917
 2046TIP3    H227630   6.634   3.266   1.499  1.1057 -1.3571  1.3334
 2047TIP3   OH227631   0.590   0.278   1.500 -0.0729  0.5682  0.2066
 2047TIP3    H127632   0.668   0.325   1.530  0.0194  0.9908 -0.6771
 2047TIP3    H227633   0.615   0.186   1.501  0.5569  0.7338 -0.4306
 2048TIP3   OH227634   2.931   1.685  12.505 -0.4641 -0.1490 -0.1470
 2048TIP3    H127635   2.842   1.718  12.495 -0.4897 -0.8886 -2.7468
 2048TIP3    H227636   2.984   1.764  12.516 -1.1434  0.4626 -1.1683
 2049TIP3   OH227637   1.297   6.300  15.401 -0.3924  0.0954 -0.4176
 2049TIP3    H127638   1.343   6.355  15.337 -3.5146  1.4499 -1.5810
 2049TIP3    H227639   1.293   6.353  15.480 -0.0017 -0.0021 -0.3314
 2050TIP3   OH227640   1.468   1.770  15.896  0.3559  0.2503  0.2612
 2050TIP3    H127641   1.542   1.741  15.949  0.2207  1.1774  0.9647
 2050TIP3    H227642   1.417   1.691  15.880  2.0737 -0.6078 -1.1674
 2051TIP3   OH227643   2.990   3.357  12.291  0.3307  0.0121  0.1577
 2051TIP3    H127644   3.071   3.333  12.245  1.1933  1.0671  1.0769
 2051TIP3    H227645   2.992   3.304  12.371  0.2644  0.2443  0.3147
 2052TIP3   OH227646   5.668   5.234  15.427  0.0866 -0.2673  0.4803
 2052TIP3    H127647   5.639   5.228  15.518 -0.5812 -1.1966  0.2119
 2052TIP3    H227648   5.657   5.326  15.404  2.4375  0.4318  2.0526
 2053TIP3   OH227649   5.423   5.937  13.483  0.1166 -0.1907  0.3234
 2053TIP3    H127650   5.340   5.984  13.487 -0.4219 -0.7974 -2.4078
 2053TIP3    H227651   5.490   6.004  13.493 -0.6789  0.2793  2.7403
 2054TIP3   OH227652   3.647   1.998  14.695  0.2040  0.1062 -0.1541
 2054TIP3    H127653   3.741   2.011  14.708  0.0610  2.8220 -1.4531
 2054TIP3    H227654   3.640   1.954  14.610  0.2982  0.5115 -0.3757
 2055TIP3   OH227655   0.286   4.684  15.462  0.2385  0.8762 -0.4354
 2055TIP3    H127656   0.356   4.618  15.460 -0.7594 -0.2214 -0.1315
 2055TIP3    H227657   0.322   4.755  15.515  1.2685  0.4877 -0.5970
 2056TIP3   OH227658   5.244   5.583  12.178  0.3036 -0.1982  0.2812
 2056TIP3    H127659   5.229   5.669  12.219 -1.6708 -0.2567 -0.2475
 2056TIP3    H227660   5.285   5.604  12.094 -2.1077  0.4163 -0.7956
 2057TIP3   OH227661   0.536   4.558  15.482 -0.2393 -0.4129  0.5323
 2057TIP3    H127662   0.595   4.601  15.420  0.6382  0.1889  1.7628
 2057TIP3    H227663   0.534   4.616  15.558 -1.6166 -0.9436  0.9159
 2058TIP3   OH227664   2.971   4.585   0.879 -0.1601 -0.0567 -0.2622
 2058TIP3    H127665   2.913   4.510   0.891 -0.5329  0.1319 -0.8207
 2058TIP3    H227666   3.055   4.558   0.916  0.0126 -1.1611 -1.4230
 2059TIP3   OH227667   4.547   3.281  12.902  0.5275 -0.1496 -0.3986
 2059TIP3    H127668   4.525   3.374  12.898 -1.1269 -0.5162 -0.1924
 2059TIP3    H227669   4.642   3.279  12.899  0.5472  1.4834 -2.0245
 2060TIP3   OH227670   0.745   0.382   3.316 -0.1817 -0.3156 -0.4804
 2060TIP3    H127671   0.825   0.395   3.265 -0.9263  3.0509 -0.9238
 2060TIP3    H227672   0.775   0.370   3.405  0.9332 -1.7248 -1.0342
 2061TIP3   OH227673   4.856   3.508   3.917  0.3895 -0.2222 -0.6679
 2061TIP3    H127674   4.770   3.469   3.929  0.9185 -1.3356 -0.3224
 2061TIP3    H227675   4.885   3.477   3.831 -0.2893  1.6037 -1.5578
 2062TIP3   OH227676   1.698   6.051  16.705  0.0268  0.6768  0.6182
 2062TIP3    H127677   1.724   6.139  16.734  0.1716  1.5755 -2.1207
 2062TIP3    H227678   1.611   6.063  16.666  0.8655 -0.0013 -1.5300
 2063TIP3   OH227679   5.343   6.062   2.874  0.5368 -0.6028 -0.5246
 2063TIP3    H127680   5.318   5.970   2.878  0.8642 -0.6638  0.3130
 2063TIP3    H227681   5.273   6.104   2.825 -0.1893 -1.1116  0.0519
 2064TIP3   OH227682   5.050   4.749   4.650 -0.2734  0.0073  0.4748
 2064TIP3    H127683   5.049   4.699   4.731  1.4808 -0.7850  0.0394
 2064TIP3    H227684   4.964   4.732   4.610 -0.1007 -1.8313  0.8354
 2065TIP3   OH227685   6.681   6.553  14.877  0.2054 -0.4552 -0.1047
 2065TIP3    H127686   6.732   6.627  14.909  0.7731  0.0292 -2.0613
 2065TIP3    H227687   6.641   6.515  14.956  0.9564  1.1297  1.0596
 2066TIP3   OH227688   3.691   3.496  13.480  0.7081 -0.3084 -0.1097
 2066TIP3    H127689   3.729   3.501  13.568 -1.4284 -0.5821  0.8767
 2066TIP3    H227690   3.689   3.402  13.460  2.0693 -0.1864 -0.8675
 2067TIP3   OH227691   5.460   1.889  12.203  0.2112  0.0460 -0.0583
 2067TIP3    H127692   5.471   1.843  12.120 -0.6967  1.4241 -0.9640
 2067TIP3    H227693   5.511   1.838  12.266 -0.9439 -2.3175 -0.9790
 2068TIP3   OH227694   1.565   0.023  11.942 -0.1705  0.9265 -0.1698
 2068TIP3    H127695   1.579   0.117  11.930  2.3315  0.7248  0.8536
 2068TIP3    H227696   1.589   0.006  12.033 -2.1835 -0.4574  0.1525
 2069TIP3   OH227697   4.601   3.092  11.336 -0.1417 -0.1596  0.0205
 2069TIP3    H127698   4.662   3.152  11.293 -0.5849  0.8393  0.7818
 2069TIP3    H227699   4.553   3.051  11.264  0.3294  0.2180 -0.5119
 2070TIP3   OH227700   2.576   6.738  12.279 -0.6096 -0.6218 -0.2705
 2070TIP3    H127701   2.513   6.729  12.207 -1.3677  0.5751  0.2414
 2070TIP3    H227702   2.550   6.818  12.324  0.2920 -0.9971  0.9253
 2071TIP3   OH227703   4.407   6.758  11.119  0.0859 -0.1636  0.2957
 2071TIP3    H127704   4.421   6.702  11.042 -0.2123 -2.0471  1.6067
 2071TIP3    H227705   4.470   6.726  11.184 -0.5458  0.5992  1.2884
 2072TIP3   OH227706   5.634   5.975  11.812 -0.4018 -0.5016  0.3424
 2072TIP3    H127707   5.676   5.988  11.897  2.0729  2.9534 -1.2484
 2072TIP3    H227708   5.669   5.892  11.780  1.3539 -0.1561  1.2812
 2073TIP3   OH227709   1.534   3.521   3.937 -0.1047 -0.2179  0.1179
 2073TIP3    H127710   1.599   3.548   3.872  0.2837  0.6187  0.8495
 2073TIP3    H227711   1.568   3.440   3.974 -0.7892 -1.2218 -1.3823
 2074TIP3   OH227712   2.523   5.522  15.837  0.1782 -0.3628  0.3801
 2074TIP3    H127713   2.468   5.557  15.767 -1.2969  0.7713  2.0544
 2074TIP3    H227714   2.603   5.493  15.793 -0.5082  0.7919 -1.6850
 2075TIP3   OH227715   1.343   6.462   4.666 -0.3647  0.0093 -0.6334
 2075TIP3    H127716   1.337   6.539   4.609 -0.9064  2.1514  2.1894
 2075TIP3    H227717   1.429   6.425   4.647 -0.0364  1.3672 -1.9426
 2076TIP3   OH227718   2.343   1.262   5.621 -0.5752  0.0973 -0.0789
 2076TIP3    H127719   2.318   1.256   5.529 -0.2276 -0.4776 -0.1327
 2076TIP3    H227720   2.379   1.176   5.643 -1.3212 -0.0064  0.7897
 2077TIP3   OH227721   5.820   4.749   2.868 -0.1685 -0.0788 -0.0409
 2077TIP3    H127722   5.882   4.688   2.908 -0.6128 -0.5284 -0.0380
 2077TIP3    H227723   5.747   4.695   2.840 -1.3063  0.6758  1.4232
 2078TIP3   OH227724   6.165   6.059   3.089  0.1556 -0.0646 -0.7433
 2078TIP3    H127725   6.161   6.154   3.102  1.5713  0.1562 -1.8848
 2078TIP3    H227726   6.235   6.030   3.147 -0.3887 -0.4518 -0.2666
 2079TIP3   OH227727   1.439   2.131   3.130 -0.5588  0.2588  0.4881
 2079TIP3    H127728   1.438   2.183   3.211 -1.2797  1.2896 -0.1688
 2079TIP3    H227729   1.413   2.193   3.062  2.9082  0.1436 -0.9961
 2080TIP3   OH227730   1.635   3.370  16.998  0.0620  0.0081  0.6990
 2080TIP3    H127731   1.715   3.319  16.986  0.9675  1.5171  0.1568
 2080TIP3    H227732   1.633   3.390  17.092 -0.1877 -0.8319  0.8766
 2081TIP3   OH227733   0.481   6.606  12.925  0.3128  0.1972 -0.3310
 2081TIP3    H127734   0.564   6.617  12.878  0.4272 -0.2713 -0.2406
 2081TIP3    H227735   0.460   6.694  12.956  1.6552  0.0452  1.1082
 2082TIP3   OH227736   4.605   0.901  16.007 -0.6582 -0.4673 -0.2587
 2082TIP3    H127737   4.689   0.901  15.962  0.1578  3.1812  1.1085
 2082TIP3    H227738   4.543   0.932  15.941 -0.2004  0.6741 -0.1781
 2083TIP3   OH227739   4.257   1.222   0.962  0.5710  0.3741 -0.1168
 2083TIP3    H127740   4.334   1.198   1.013  0.0104  1.1508  1.0907
 2083TIP3    H227741   4.252   1.317   0.967 -1.7447  0.2164  1.7204
 2084TIP3   OH227742   3.093   1.757   5.744 -0.0114  0.4896 -0.1651
 2084TIP3    H127743   3.119   1.843   5.775  0.6674  0.7827 -1.4996
 2084TIP3    H227744   3.171   1.722   5.701 -0.8071 -0.0250 -1.2243
 2085TIP3   OH227745   4.859   3.068   1.079  0.2146 -0.2165 -0.3492
 2085TIP3    H127746   4.908   3.071   0.997 -1.4433  1.3184 -1.3277
 2085TIP3    H227747   4.904   3.131   1.136  0.2048  0.1715 -0.7643
 2086TIP3   OH227748   4.599   3.054   1.016  0.4684  0.6328 -0.3299
 2086TIP3    H127749   4.580   2.979   0.959  0.7877  0.4927 -0.2568
 2086TIP3    H227750   4.690   3.041   1.043  0.3992  0.8314  0.0099
 2087TIP3   OH227751   5.960   5.689   4.347 -0.1349 -0.2754 -0.3777
 2087TIP3    H127752   5.992   5.719   4.262 -1.3235  1.7805 -0.1467
 2087TIP3    H227753   5.879   5.642   4.328 -1.0180  1.1800 -0.3186
 2088TIP3   OH227754   2.602   2.511   2.360 -0.1709 -0.0468 -0.0108
 2088TIP3    H127755   2.696   2.499   2.344 -0.1412 -2.0822  1.4489
 2088TIP3    H227756   2.559   2.461   2.290 -0.1064 -1.6379  1.0467
 2089TIP3   OH227757   2.079   5.079   2.773  0.2215 -0.0424  0.4157
 2089TIP3    H127758   2.103   5.133   2.848  0.3118  1.0667 -0.3892
 2089TIP3    H227759   2.009   5.128   2.730  0.2551 -0.6047 -0.2802
 2090TIP3   OH227760   5.544   6.195  11.423 -0.0620 -0.9887 -0.1235
 2090TIP3    H127761   5.609   6.205  11.354 -1.6706 -2.9377 -1.9568
 2090TIP3    H227762   5.584   6.237  11.499  2.2197  0.1708 -1.8971
 2091TIP3   OH227763   5.882   3.788  14.521  0.0407 -0.0007 -0.1047
 2091TIP3    H127764   5.851   3.738  14.446 -0.4469  0.6507 -0.3376
 2091TIP3    H227765   5.913   3.871  14.483 -1.7602  1.0092  0.6075
 2092TIP3   OH227766   1.014   1.925   5.500 -0.2796 -0.1808  0.5958
 2092TIP3    H127767   1.037   2.014   5.471  0.9467 -0.7410 -0.1739
 2092TIP3    H227768   1.098   1.886   5.526 -0.6094 -1.6281 -0.4733
 2093TIP3   OH227769   6.498   2.320   2.163  0.4236  0.0767  0.2881
 2093TIP3    H127770   6.470   2.408   2.189  1.5179 -0.3004  2.8017
 2093TIP3    H227771   6.588   2.312   2.196  1.3991 -0.9417 -2.4427
 2094TIP3   OH227772   3.126   3.845   4.903  0.6373  0.2510  0.3730
 2094TIP3    H127773   3.087   3.926   4.937  1.1622  0.2643  0.9413
 2094TIP3    H227774   3.120   3.783   4.975  0.1487 -0.2542 -0.0971
 2095TIP3   OH227775   4.858   3.636  12.962  0.3907  0.3097 -0.4354
 2095TIP3    H127776   4.946   3.597  12.959  0.0721 -0.6399  1.6325
 2095TIP3    H227777   4.869   3.717  13.011  0.2724  0.6889 -1.0256
 2096TIP3   OH227778   5.295   2.354  15.243 -0.2466  0.0723  0.0446
 2096TIP3    H127779   5.341   2.330  15.162 -1.2288 -0.1202 -0.4672
 2096TIP3    H227780   5.315   2.447  15.256  0.8336 -0.1758  0.2022
 2097TIP3   OH227781   1.934   6.639  14.991  0.1922  0.2888 -0.7462
 2097TIP3    H127782   1.957   6.657  15.083 -0.6872  1.1697 -0.6953
 2097TIP3    H227783   1.842   6.613  14.994  0.5080 -0.8830 -1.2371
 2098TIP3   OH227784   5.332   1.352  15.002  0.1114  0.1957  0.2971
 2098TIP3    H127785   5.272   1.283  15.030 -0.2558  0.3886  0.0033
 2098TIP3    H227786   5.281   1.402  14.938  0.9323 -0.2312 -0.6881
 2099TIP3   OH227787   2.339   3.649  16.450  0.0778 -0.4200 -0.4167
 2099TIP3    H127788   2.390   3.687  16.521  0.1939 -0.6191 -0.3928
 2099TIP3    H227789   2.402   3.637  16.379 -0.2581  0.7511 -0.9221
 2100TIP3   OH227790   5.886   5.762   3.542  0.2351 -0.1776 -0.3638
 2100TIP3    H127791   5.980   5.762   3.526  0.8266  1.7584  2.7442
 2100TIP3    H227792   5.854   5.838   3.493  0.7671  0.8498  0.8439
 2101TIP3   OH227793   0.468   3.415  16.216  0.5369 -0.2895  0.1397
 2101TIP3    H127794   0.441   3.400  16.306 -0.2810  0.3415  0.0036
 2101TIP3    H227795   0.481   3.327  16.180 -0.1508 -0.5689  0.5714
 2102TIP3   OH227796   0.533   2.479   2.811 -0.7559  0.4309 -0.1182
 2102TIP3    H127797   0.559   2.558   2.859  0.5745  0.3456 -0.6648
 2102TIP3    H227798   0.549   2.407   2.873  1.4199  0.2748 -0.8043
 2103TIP3   OH227799   6.706   6.461  15.647  0.0694 -0.3844  0.6765
 2103TIP3    H127800   6.768   6.389  15.649  2.2573  1.4293  0.2993
 2103TIP3    H227801   6.684   6.477  15.738  0.3964 -0.8530  0.8363
 2104TIP3   OH227802   3.540   2.502   4.557  1.2461 -0.0111 -0.1754
 2104TIP3    H127803   3.598   2.497   4.481 -0.1570  2.3980 -1.4549
 2104TIP3    H227804   3.595   2.476   4.631  3.3717  0.2648 -1.6253
 2105TIP3   OH227805   6.300   1.076  14.798  0.2794 -0.0310 -0.5117
 2105TIP3    H127806   6.313   1.100  14.706  1.6193 -1.0788 -0.6066
 2105TIP3    H227807   6.386   1.081  14.837 -0.6039  2.3742  1.2170
 2106TIP3   OH227808   0.466   1.682   1.381 -0.1862 -0.5023  0.1871
 2106TIP3    H127809   0.434   1.594   1.401 -0.0619 -0.6925 -0.4342
 2106TIP3    H227810   0.546   1.667   1.331 -0.7253 -0.0510 -0.8312
 2107TIP3   OH227811   0.908   3.822   5.042 -0.2485 -0.0939 -0.5146
 2107TIP3    H127812   0.992   3.816   4.997 -0.0809  0.7671 -0.3288
 2107TIP3    H227813   0.865   3.899   5.005 -0.5256  0.0554  0.0960
 2108TIP3   OH227814   6.778   5.514   3.475 -0.1983 -0.0277  0.8972
 2108TIP3    H127815   6.751   5.490   3.563  0.2051  1.0416  1.3234
 2108TIP3    H227816   6.873   5.524   3.480 -0.4949  3.2785  1.1785
 2109TIP3   OH227817   6.037   2.758   3.621 -0.9737  0.0428  0.2317
 2109TIP3    H127818   6.045   2.694   3.550  0.6841  1.2331 -0.6925
 2109TIP3    H227819   6.022   2.706   3.700  0.5569 -1.4950 -0.4736
 2110TIP3   OH227820   5.140   5.688   3.309  0.4237  0.2851  0.4070
 2110TIP3    H127821   5.079   5.617   3.329  0.9259 -0.0122  0.9112
 2110TIP3    H227822   5.085   5.766   3.302 -0.0742 -0.0733  0.3258
 2111TIP3   OH227823   4.957   3.329   4.936  0.1785  0.0764  0.3540
 2111TIP3    H127824   4.991   3.407   4.978 -0.2631 -0.4694  1.7429
 2111TIP3    H227825   5.032   3.292   4.890  0.7858  0.4107  1.0655
 2112TIP3   OH227826   4.412   6.661  13.395 -0.2077  0.7336  0.1174
 2112TIP3    H127827   4.370   6.616  13.469  0.7633 -0.1851  0.1138
 2112TIP3    H227828   4.346   6.657  13.325 -0.8241  0.9099  0.6786
 2113TIP3   OH227829   3.338   2.615  13.402 -0.2898  0.3166 -0.2077
 2113TIP3    H127830   3.285   2.692  13.422 -3.3054 -1.0486 -2.4171
 2113TIP3    H227831   3.302   2.546  13.458  1.8849  0.2993  1.2143
 2114TIP3   OH227832   3.894   4.792   3.746 -0.2042 -0.8074 -0.1681
 2114TIP3    H127833   3.968   4.734   3.763  0.7558  0.3532 -0.2775
 2114TIP3    H227834   3.900   4.860   3.813 -1.3461 -0.8608 -0.0028
 2115TIP3   OH227835   5.095   1.807  13.271 -0.0912 -0.2310  0.6402
 2115TIP3    H127836   5.132   1.870  13.333  1.4792  1.1291 -1.6320
 2115TIP3    H227837   5.001   1.828  13.269  0.0146  0.3798  1.7626
 2116TIP3   OH227838   2.997   3.170  15.138 -0.4581 -0.0905  0.0615
 2116TIP3    H127839   2.940   3.174  15.061 -1.7722 -0.6919  0.9898
 2116TIP3    H227840   2.959   3.232  15.200  0.6722  0.4886  0.1776
 2117TIP3   OH227841   4.131   0.604  13.766  0.2988 -0.1951  0.3529
 2117TIP3    H127842   4.168   0.562  13.689  1.0340  0.5744  0.2794
 2117TIP3    H227843   4.036   0.606  13.750  0.5659  1.0507 -1.0611
 2118TIP3   OH227844   5.538   0.317   5.941 -0.2643  0.1967 -0.5252
 2118TIP3    H127845   5.443   0.302   5.934 -0.3316  0.5473 -0.3875
 2118TIP3    H227846   5.549   0.409   5.918  0.0869  0.0609 -0.8985
 2119TIP3   OH227847   5.465   1.378   0.400  0.6425 -0.0902  0.2970
 2119TIP3    H127848   5.428   1.301   0.356  1.4156  0.3520 -1.1450
 2119TIP3    H227849   5.542   1.344   0.446  0.1310 -0.4567  0.8919
 2120TIP3   OH227850   6.553   1.342  13.675 -0.4568 -0.3068  0.3220
 2120TIP3    H127851   6.635   1.307  13.639  0.0259  0.8142  0.2929
 2120TIP3    H227852   6.578   1.427  13.712 -1.2487 -0.7513  1.9305
 2121TIP3   OH227853   5.334   6.321   5.760  0.2599 -0.3965  0.3534
 2121TIP3    H127854   5.349   6.340   5.853  3.5253 -1.3535  0.0612
 2121TIP3    H227855   5.296   6.234   5.760  0.0435 -0.3057  0.8024
 2122TIP3   OH227856   1.665   0.451   4.739  0.3371  0.0737  0.0190
 2122TIP3    H127857   1.705   0.414   4.818 -2.0988 -2.5237  0.1047
 2122TIP3    H227858   1.668   0.381   4.675 -0.1950  1.2576 -1.3368
 2123TIP3   OH227859   4.386   6.525   3.305  0.6299  0.0922  0.0553
 2123TIP3    H127860   4.471   6.569   3.313  1.1059 -0.7509 -0.2686
 2123TIP3    H227861   4.404   6.434   3.328  0.0987 -0.3802 -1.3123
 2124TIP3   OH227862   5.797   2.159   1.892  0.3989 -0.6341  0.4468
 2124TIP3    H127863   5.718   2.203   1.923 -0.7762 -1.7941 -0.8304
 2124TIP3    H227864   5.869   2.208   1.931 -0.9663  0.0236  2.2048
 2125TIP3   OH227865   2.556   0.490   4.240  0.2343  0.4939 -0.5528
 2125TIP3    H127866   2.493   0.509   4.310 -0.4728  0.2714 -1.1336
 2125TIP3    H227867   2.506   0.499   4.159  0.9642  0.3765 -1.0188
 2126TIP3   OH227868   1.390   1.656  15.285  0.0438  0.6876 -0.2597
 2126TIP3    H127869   1.386   1.569  15.246  1.9846  0.4714 -0.0530
 2126TIP3    H227870   1.361   1.715  15.216  0.2768  0.0200 -0.9354
 2127TIP3   OH227871   2.025   0.355  11.720 -0.2712  0.9639 -0.0083
 2127TIP3    H127872   2.010   0.435  11.770  0.4044  1.9795 -1.4056
 2127TIP3    H227873   2.078   0.300  11.778 -1.4397  1.1681  1.2805
 2128TIP3   OH227874   6.732   3.760  16.437 -0.2053  1.3662  0.2137
 2128TIP3    H127875   6.714   3.708  16.359 -1.7389  0.9705  0.8143
 2128TIP3    H227876   6.682   3.717  16.507  1.8148  1.2041  1.6104
 2129TIP3   OH227877   3.743   3.753   4.274 -0.7097  0.5006 -0.1587
 2129TIP3    H127878   3.745   3.658   4.278 -1.4496  0.5406  1.6840
 2129TIP3    H227879   3.820   3.777   4.222  0.1504 -1.0510  0.3733
 2130TIP3   OH227880   5.151   5.874   0.690 -0.4120  0.0543  0.7673
 2130TIP3    H127881   5.162   5.849   0.782  0.7935 -0.7796  0.4131
 2130TIP3    H227882   5.235   5.914   0.666 -0.5646 -0.1160 -0.0848
 2131TIP3   OH227883   1.478   5.234   4.926 -0.2003 -0.3202 -0.2840
 2131TIP3    H127884   1.389   5.198   4.921 -0.0408 -0.6482 -0.7533
 2131TIP3    H227885   1.483   5.273   5.014 -2.0599  3.0911 -1.6039
 2132TIP3   OH227886   6.322   2.274  16.708 -0.6231 -0.1922  0.0086
 2132TIP3    H127887   6.387   2.279  16.779  0.8787  0.7595 -1.4003
 2132TIP3    H227888   6.374   2.273  16.628 -2.2735 -2.1106 -1.0809
 2133TIP3   OH227889   5.568   6.610  12.208  0.2733  0.3132 -0.5633
 2133TIP3    H127890   5.524   6.545  12.264 -0.9814 -0.1087 -2.0209
 2133TIP3    H227891   5.643   6.564  12.172 -0.4256 -0.2448 -1.3259
 2134TIP3   OH227892   3.211   3.303   1.145  0.0196 -0.1425 -0.9447
 2134TIP3    H127893   3.145   3.239   1.172 -0.6629  1.2466  0.7503
 2134TIP3    H227894   3.189   3.382   1.193  2.5717  0.5341 -0.8308
 2135TIP3   OH227895   4.677   5.632  16.435 -0.2185  0.5185 -0.4316
 2135TIP3    H127896   4.728   5.701  16.480  0.3038  0.9386 -1.6385
 2135TIP3    H227897   4.722   5.551  16.457  0.6883  0.8371 -1.0635
 2136TIP3   OH227898   1.380   5.250  16.966  0.4282 -0.6279 -0.5985
 2136TIP3    H127899   1.383   5.345  16.978 -1.6370 -0.7367  1.2258
 2136TIP3    H227900   1.414   5.235  16.878  0.9530  1.7757 -0.8365
 2137TIP3   OH227901   3.775   1.400  14.212 -0.2141 -0.1701 -0.1317
 2137TIP3    H127902   3.780   1.340  14.287 -0.7519  0.4020  0.3707
 2137TIP3    H227903   3.831   1.473  14.237 -1.9098  0.9098  0.5380
 2138TIP3   OH227904   6.056   3.822  15.596 -0.0500  0.6470 -0.0855
 2138TIP3    H127905   5.991   3.887  15.624 -1.0207  0.2012 -1.2428
 2138TIP3    H227906   6.083   3.779  15.677 -1.6076  0.4796  0.3733
 2139TIP3   OH227907   4.685   5.018  17.142  0.2589  0.7269  0.1757
 2139TIP3    H127908   4.729   4.946  17.098  0.4052  0.6240  0.4948
 2139TIP3    H227909   4.735   5.096  17.116 -1.1378  0.9995 -1.8827
 2140TIP3   OH227910   6.506   5.935  11.247  0.0582 -0.0580 -0.2557
 2140TIP3    H127911   6.464   6.019  11.230 -2.4356 -0.4435  3.4267
 2140TIP3    H227912   6.587   5.957  11.292  0.7102  0.4097 -1.6047
 2141TIP3   OH227913   5.232   1.766   4.027 -0.2246 -0.1077 -0.1997
 2141TIP3    H127914   5.295   1.695   4.013  1.3420  1.2528 -0.1888
 2141TIP3    H227915   5.244   1.792   4.118 -1.2973 -0.2913  0.0045
 2142TIP3   OH227916   4.405   5.802   3.465 -0.0659 -0.3252 -0.3231
 2142TIP3    H127917   4.377   5.715   3.439  0.2627 -0.4362 -0.3120
 2142TIP3    H227918   4.327   5.857   3.456 -0.2817 -0.6280 -0.2892
 2143TIP3   OH227919   0.058   1.143  11.885 -0.2029 -0.5959  0.1040
 2143TIP3    H127920  -0.033   1.114  11.873 -0.0571 -1.5672  1.2533
 2143TIP3    H227921   0.104   1.065  11.916  0.7598  0.2146  0.7313
 2144TIP3   OH227922   5.730   4.104   2.512  0.5079 -0.1368  0.6155
 2144TIP3    H127923   5.728   4.179   2.453  2.9444  0.7741  1.6148
 2144TIP3    H227924   5.739   4.028   2.454 -2.4246  0.2711 -0.4144
 2145TIP3   OH227925   3.781   2.708  14.847 -0.1843  0.0499 -0.5902
 2145TIP3    H127926   3.847   2.726  14.914  1.0142  1.3626 -2.1033
 2145TIP3    H227927   3.792   2.615  14.827  0.5547  0.0315 -0.1377
 2146TIP3   OH227928   5.410   0.444   2.196  0.5799 -0.0179 -0.1847
 2146TIP3    H127929   5.416   0.396   2.278 -0.4961 -0.8880 -0.6053
 2146TIP3    H227930   5.387   0.533   2.223  1.3155 -0.0270  0.5127
 2147TIP3   OH227931   5.218   1.860   4.301  0.6556 -0.3724 -0.1695
 2147TIP3    H127932   5.210   1.920   4.375 -2.5858 -0.2279 -0.5821
 2147TIP3    H227933   5.132   1.819   4.294  1.1406 -0.9398 -3.3506
 2148TIP3   OH227934   6.310   3.797   4.535  0.1492 -0.2726 -0.2384
 2148TIP3    H127935   6.350   3.788   4.622 -1.6060 -3.7998  0.2935
 2148TIP3    H227936   6.369   3.751   4.476  0.5484  0.7949 -0.6908
 2149TIP3   OH227937   4.103   5.506   6.587 -0.4924 -0.0550  0.1306
 2149TIP3    H127938   4.129   5.595   6.609  0.7891 -0.3269 -0.2302
 2149TIP3    H227939   4.080   5.510   6.494 -0.4895 -0.0951  0.1283
 2150TIP3   OH227940   6.482   6.351  14.076 -0.0216  0.6185  0.4615
 2150TIP3    H127941   6.445   6.419  14.020  0.5101  0.2967 -0.3006
 2150TIP3    H227942   6.577   6.358  14.063  0.1389  0.8794  1.7330
 2151TIP3   OH227943   2.755   2.407   2.936 -0.5696  0.1860  0.2866
 2151TIP3    H127944   2.776   2.493   2.972  2.0231 -1.2540  2.3843
 2151TIP3    H227945   2.681   2.376   2.989  0.0854  0.1052  1.1570
 2152TIP3   OH227946   4.173   0.983   6.758  0.2388  0.3135  0.2542
 2152TIP3    H127947   4.170   1.058   6.698  0.3790  0.5272  0.5149
 2152TIP3    H227948   4.260   0.988   6.798 -0.0861  0.5334  0.9431
 2153TIP3   OH227949   5.327   6.707   0.295 -0.0607 -0.1554  0.0752
 2153TIP3    H127950   5.366   6.699   0.208  2.1689  3.2316  0.6534
 2153TIP3    H227951   5.381   6.649   0.350 -1.0432 -1.7681 -0.6101
 2154TIP3   OH227952   5.167   0.059  16.953  0.2656  0.0961 -0.0836
 2154TIP3    H127953   5.205  -0.019  16.914  2.2995  1.2251 -0.4514
 2154TIP3    H227954   5.223   0.077  17.030 -0.5522  0.8118  0.3535
 2155TIP3   OH227955   5.383   3.730  13.550 -0.2982  0.3453 -0.1285
 2155TIP3    H127956   5.436   3.658  13.583 -0.2094  0.4209 -0.1060
 2155TIP3    H227957   5.371   3.710  13.457  1.9665  1.6639 -0.7399
 2156TIP3   OH227958   4.641   4.752  13.594  0.4248 -0.1455 -0.1973
 2156TIP3    H127959   4.603   4.836  13.570 -0.8120 -0.5586  0.2988
 2156TIP3    H227960   4.566   4.696  13.615  1.2395 -1.3503 -0.4512
 2157TIP3   OH227961   4.435   3.900  11.730 -0.1714 -0.0179  0.1363
 2157TIP3    H127962   4.528   3.920  11.731 -0.5142  1.5757  2.0014
 2157TIP3    H227963   4.409   3.911  11.638  1.1829  0.8061 -0.1609
 2158TIP3   OH227964   2.497   1.954   5.297 -0.4189  1.1199  0.0528
 2158TIP3    H127965   2.493   1.874   5.245 -0.4516  0.4120  1.1134
 2158TIP3    H227966   2.570   1.939   5.357  0.2373  2.3183 -0.4271
 2159TIP3   OH227967   4.618   3.660  12.308  0.7203  0.0599 -0.0383
 2159TIP3    H127968   4.687   3.701  12.360  0.1818  0.9760 -0.0339
 2159TIP3    H227969   4.538   3.677  12.357  0.3175  0.2055 -0.7468
 2160TIP3   OH227970   5.321   0.255   4.927  0.0086  0.7197  0.1327
 2160TIP3    H127971   5.266   0.327   4.959  0.9457  1.2075  0.6783
 2160TIP3    H227972   5.342   0.278   4.837  1.1839  1.6570  0.6498
 2161TIP3   OH227973   6.178   1.416  11.450 -0.1938 -0.8429  0.3787
 2161TIP3    H127974   6.129   1.479  11.398  2.8383  0.3209 -1.1996
 2161TIP3    H227975   6.112   1.372  11.504 -3.0028  0.1422 -2.1497
 2162TIP3   OH227976   1.939   0.345  14.914 -0.3175 -0.6252 -0.1764
 2162TIP3    H127977   2.021   0.391  14.895 -1.3647  1.1331 -0.5009
 2162TIP3    H227978   1.965   0.253  14.921  1.9155  0.0414  1.0489
 2163TIP3   OH227979   3.440   6.197   2.032  0.1555  1.0428  0.3503
 2163TIP3    H127980   3.354   6.227   2.001  0.7054 -1.0169 -3.4799
 2163TIP3    H227981   3.492   6.277   2.037 -1.1968  1.9787 -0.0594
 2164TIP3   OH227982   3.478   3.334   2.824 -0.0888  0.0491  0.3561
 2164TIP3    H127983   3.540   3.393   2.781  3.0089 -1.8785  1.9152
 2164TIP3    H227984   3.476   3.257   2.768  0.0573 -0.4547  1.0301
 2165TIP3   OH227985   0.223   4.539   4.672  0.2135  0.0999  0.7930
 2165TIP3    H127986   0.131   4.514   4.662  0.5467 -0.9950  0.4491
 2165TIP3    H227987   0.247   4.507   4.758  0.5131 -0.3475  0.5406
 2166TIP3   OH227988   1.111   4.098  11.160 -0.7228  0.0874 -0.7180
 2166TIP3    H127989   1.023   4.074  11.189 -0.4017 -0.8911 -0.5504
 2166TIP3    H227990   1.126   4.185  11.197 -1.3753 -0.0050 -0.2379
 2167TIP3   OH227991   3.524   6.100   5.988 -0.1802  0.6890 -0.0837
 2167TIP3    H127992   3.476   6.165   6.040  1.3517  2.3305 -0.7091
 2167TIP3    H227993   3.569   6.046   6.054 -1.2190  0.4207  0.4230
 2168TIP3   OH227994   0.802   2.307   5.874  0.3385  0.2131  0.3393
 2168TIP3    H127995   0.723   2.253   5.864  0.9100 -0.3588 -1.4288
 2168TIP3    H227996   0.861   2.253   5.926  0.4696 -0.3964 -0.4289
 2169TIP3   OH227997   4.230   5.946   1.796 -0.0374 -0.7222  0.6459
 2169TIP3    H127998   4.135   5.945   1.799 -0.0380 -2.6994  1.0457
 2169TIP3    H227999   4.253   5.865   1.750  1.4624 -0.4717  0.9287
 2170TIP3   OH228000   4.934   6.341  13.408 -0.3664 -0.2487  0.1059
 2170TIP3    H128001   4.952   6.416  13.352  1.3933  0.0897  1.0889
 2170TIP3    H228002   4.967   6.266  13.359 -2.7914 -0.5007 -1.1999
 2171TIP3   OH228003   3.654   2.244  15.335  0.3843  0.2293  0.2280
 2171TIP3    H128004   3.748   2.252  15.319  0.5887  1.1471  1.7789
 2171TIP3    H228005   3.617   2.227  15.249  2.1557 -2.0542 -0.1452
 2172TIP3   OH228006   1.723   0.223  12.112 -0.2463  0.4975 -0.1978
 2172TIP3    H128007   1.749   0.314  12.125 -0.0574  0.5171 -0.6914
 2172TIP3    H228008   1.736   0.181  12.197  0.4609  0.7379 -0.1859
 2173TIP3   OH228009   2.415   4.463   3.600 -0.0081 -0.5600  1.0940
 2173TIP3    H128010   2.422   4.552   3.566  0.2178 -0.9558  0.0617
 2173TIP3    H228011   2.500   4.446   3.640  0.1468 -0.4984  0.7986
 2174TIP3   OH228012   3.275   3.977   2.016 -0.2929  0.1561 -0.1091
 2174TIP3    H128013   3.294   3.978   1.922 -0.7865 -0.8421 -0.2257
 2174TIP3    H228014   3.281   3.885   2.040  1.4515  0.5973  1.1808
 2175TIP3   OH228015   0.484   0.806   5.844  0.6994  0.4836  0.1044
 2175TIP3    H128016   0.494   0.871   5.914  0.2456  0.2788  0.3627
 2175TIP3    H228017   0.389   0.796   5.835  0.7559 -2.6991  2.4236
 2176TIP3   OH228018   2.573   3.630   2.997  0.6260 -0.3189  0.1553
 2176TIP3    H128019   2.580   3.658   2.905  2.5743  0.6785  0.5992
 2176TIP3    H228020   2.613   3.544   2.998  0.3921 -0.4309  0.0308
 2177TIP3   OH228021   6.517   1.005   1.201 -0.4650  0.1375  0.0911
 2177TIP3    H128022   6.486   1.009   1.292  0.3096 -0.2707  0.3832
 2177TIP3    H228023   6.575   1.081   1.192 -0.1519 -0.1002  0.0905
 2178TIP3   OH228024   4.029   1.541   1.234 -0.6431  0.9730 -0.1937
 2178TIP3    H128025   4.040   1.449   1.258 -1.6384  0.6404 -0.9630
 2178TIP3    H228026   4.070   1.590   1.305  1.0574 -0.0836 -0.4019
 2179TIP3   OH228027   1.818   6.743  11.356 -0.3568 -0.2101 -0.2861
 2179TIP3    H128028   1.856   6.749  11.268 -0.9718  0.9318 -0.4796
 2179TIP3    H228029   1.781   6.829  11.372 -0.9016 -0.6402  0.8109
 2180TIP3   OH228030   2.826   1.882   5.614 -0.2327  0.0965 -0.3785
 2180TIP3    H128031   2.869   1.921   5.690  1.2785 -0.1550 -1.0791
 2180TIP3    H228032   2.895   1.828   5.573 -1.8731 -2.1958 -0.1951
 2181TIP3   OH228033   1.472   0.389  17.063 -0.1959 -0.7072  0.5443
 2181TIP3    H128034   1.513   0.436  16.990 -0.4877  0.2842  1.0073
 2181TIP3    H228035   1.401   0.446  17.092 -3.1168 -3.2205 -1.3934
 2182TIP3   OH228036   1.344   2.245   1.468 -0.9823  0.1550 -0.4154
 2182TIP3    H128037   1.421   2.259   1.412 -2.1948  1.1760 -1.8797
 2182TIP3    H228038   1.272   2.232   1.406 -2.1125 -0.1229  0.9344
 2183TIP3   OH228039   0.347   6.303  12.265  0.1579  0.2639  0.2410
 2183TIP3    H128040   0.274   6.350  12.225 -0.3160  0.6594  1.5326
 2183TIP3    H228041   0.425   6.343  12.229 -0.2488 -1.0321 -2.1589
 2184TIP3   OH228042   5.767   3.056  17.081 -0.7513  0.3742 -0.1694
 2184TIP3    H128043   5.820   3.037  17.003  0.4554  3.5224 -0.1693
 2184TIP3    H228044   5.808   3.004  17.151  0.6314  0.6182 -0.7871
 2185TIP3   OH228045   6.653   6.168  16.210  0.5370  0.4508  0.1987
 2185TIP3    H128046   6.716   6.138  16.275 -1.6068  0.2423  2.2560
 2185TIP3    H228047   6.618   6.250  16.245 -1.7251 -0.4179  0.0777
 2186TIP3   OH228048   2.008   6.199  14.004  0.1324  0.9116  0.6219
 2186TIP3    H128049   2.046   6.230  13.922  1.1404 -0.7810  0.4375
 2186TIP3    H228050   1.917   6.176  13.982  0.6307 -0.2824 -0.1960
 2187TIP3   OH228051   4.241   1.656   1.732  0.3547 -0.1973  0.1655
 2187TIP3    H128052   4.162   1.676   1.782  0.7179  1.3455  0.1287
 2187TIP3    H228053   4.310   1.709   1.772  0.6066  1.2223 -2.0507
 2188TIP3   OH228054   4.844   2.330  12.657  0.7526  0.2874  0.1906
 2188TIP3    H128055   4.864   2.274  12.582  0.3496  0.3008  0.0733
 2188TIP3    H228056   4.756   2.364  12.639  0.1868 -0.6014  1.2157
 2189TIP3   OH228057   6.211   4.763   3.109 -0.9064  0.1453 -0.6148
 2189TIP3    H128058   6.191   4.680   3.066 -1.7262  0.8642 -1.6517
 2189TIP3    H228059   6.131   4.814   3.100  0.1148  1.6369 -1.3953
 2190TIP3   OH228060   6.623   3.034   6.320  0.0740  0.0759  0.5324
 2190TIP3    H128061   6.697   3.075   6.274 -0.4591  0.6258  0.1677
 2190TIP3    H228062   6.640   3.052   6.413 -0.4240  1.5674  0.3379
 2191TIP3   OH228063   1.852   0.058  11.916  0.0208 -0.2107  0.2261
 2191TIP3    H128064   1.813   0.136  11.954 -0.3033  0.4912 -1.4804
 2191TIP3    H228065   1.799  -0.014  11.950 -0.4945  0.4264  0.7882
 2192TIP3   OH228066   0.194   1.280   6.618  0.8803 -0.1559  0.1969
 2192TIP3    H128067   0.287   1.280   6.643  0.3754  0.5625  2.1879
 2192TIP3    H228068   0.157   1.204   6.664  0.3157  0.0121  0.0273
 2193TIP3   OH228069   6.785   0.601   0.235  0.2091  0.3399  0.3571
 2193TIP3    H128070   6.870   0.643   0.253  0.6810 -0.8573  0.9828
 2193TIP3    H228071   6.745   0.657   0.169  1.6408  0.7294 -0.2104
 2194TIP3   OH228072   0.730   5.020   0.654  0.3955  0.6325  0.4855
 2194TIP3    H128073   0.640   5.000   0.628  0.4977 -0.6873  1.0870
 2194TIP3    H228074   0.721   5.092   0.717 -0.0926  1.6474 -0.7134
 2195TIP3   OH228075   5.593   4.743   3.927 -0.0803 -0.5359  0.0610
 2195TIP3    H128076   5.547   4.777   3.851 -1.0254 -0.0196  0.8463
 2195TIP3    H228077   5.552   4.657   3.943 -0.5653 -0.2099  0.5772
 2196TIP3   OH228078   1.600   2.472  17.145 -0.5012 -0.1394  0.2914
 2196TIP3    H128079   1.561   2.546  17.190 -0.8366  0.0299 -0.2748
 2196TIP3    H228080   1.577   2.396  17.199 -3.6031 -0.3535 -1.2398
 2197TIP3   OH228081   0.053   4.746   0.292 -0.3251 -0.1992 -0.2627
 2197TIP3    H128082   0.030   4.771   0.202  0.1071  0.6527 -0.1424
 2197TIP3    H228083  -0.030   4.742   0.338 -0.2880  2.7897  0.1550
 2198TIP3   OH228084   5.064   0.574   2.235 -0.0464  0.0409  0.8476
 2198TIP3    H128085   5.131   0.549   2.298  0.6825 -0.2761 -0.0531
 2198TIP3    H228086   4.994   0.509   2.248 -0.1439  0.3121  1.7100
 2199TIP3   OH228087   6.447   6.651   4.466  0.0674 -0.2011 -0.3876
 2199TIP3    H128088   6.434   6.716   4.535 -0.1933 -1.9390  1.2611
 2199TIP3    H228089   6.381   6.672   4.400 -1.5907 -0.2105  1.2284
 2200TIP3   OH228090   3.480   1.008  10.955  0.7925 -0.1331  0.2755
 2200TIP3    H128091   3.434   1.066  10.895  0.6117  0.5258  1.0410
 2200TIP3    H228092   3.564   0.990  10.911 -0.2725 -1.5618 -1.2448
 2201TIP3   OH228093   5.830   4.457   3.521 -0.8115 -0.1191  0.2502
 2201TIP3    H128094   5.917   4.486   3.494 -0.3521  0.4244  2.2326
 2201TIP3    H228095   5.770   4.518   3.479 -0.1107  0.7978  0.5628
 2202TIP3   OH228096   6.341   0.428   4.596  0.5408 -0.9418 -0.2559
 2202TIP3    H128097   6.301   0.360   4.543  0.3150 -1.4032  0.4996
 2202TIP3    H228098   6.272   0.494   4.606  0.3189 -1.2307  0.1372
 2203TIP3   OH228099   6.190   1.749  11.600  0.3967  0.5195 -0.2384
 2203TIP3    H128100   6.156   1.713  11.518 -0.1339  0.1154  0.1617
 2203TIP3    H228101   6.259   1.810  11.572  0.1737  0.4336 -0.9857
 2204TIP3   OH228102   5.840   0.308  11.654  0.3098  0.2698 -0.0639
 2204TIP3    H128103   5.909   0.372  11.673 -1.2111  2.1784 -0.7965
 2204TIP3    H228104   5.766   0.361  11.624 -0.1424 -1.9817 -3.1942
 2205TIP3   OH228105   1.301   1.380   1.251  0.7931  0.3576 -0.3625
 2205TIP3    H128106   1.254   1.300   1.230 -0.9649  1.5017 -0.9508
 2205TIP3    H228107   1.234   1.449   1.247  2.2153  1.8178  0.3237
 2206TIP3   OH228108   4.688   2.828  11.412  0.7275 -0.2148  0.5903
 2206TIP3    H128109   4.674   2.915  11.374  0.0020 -1.1661 -1.3743
 2206TIP3    H228110   4.782   2.815  11.409  0.7970  0.3211  0.4596
 2207TIP3   OH228111   2.993   4.144  17.234  0.3069 -0.1071 -0.5781
 2207TIP3    H128112   2.964   4.098  17.313  1.4706  0.3260  0.1138
 2207TIP3    H228113   2.923   4.206  17.216  0.9748  1.2501  1.3528
 2208TIP3   OH228114   3.722   0.263   1.573 -0.5661  0.1827  0.3186
 2208TIP3    H128115   3.759   0.278   1.486  0.2177  0.4378  0.6937
 2208TIP3    H228116   3.797   0.237   1.627 -0.6705  2.0566  1.4220
 2209TIP3   OH228117   1.142   1.561   5.485  0.1300  0.0551  0.2830
 2209TIP3    H128118   1.177   1.476   5.511  0.1455  0.2772  1.0120
 2209TIP3    H228119   1.068   1.575   5.544 -1.2441 -0.4366 -1.2823
 2210TIP3   OH228120   5.442   1.866   4.500  0.2410 -0.0257 -0.5153
 2210TIP3    H128121   5.429   1.862   4.405  0.2718 -1.3575 -0.4707
 2210TIP3    H228122   5.414   1.954   4.524  0.6067  0.4615 -1.8153
 2211TIP3   OH228123   1.111   6.367   3.653  1.0913  0.4335  0.2510
 2211TIP3    H128124   1.050   6.389   3.723  0.1790 -0.8380 -0.1081
 2211TIP3    H228125   1.198   6.381   3.691  0.6384 -1.2127  1.9940
 2212TIP3   OH228126   5.258   0.231   5.753 -0.6137  0.4788 -0.4596
 2212TIP3    H128127   5.164   0.244   5.768 -1.1771 -1.8917 -1.7880
 2212TIP3    H228128   5.283   0.304   5.696 -1.0503  2.5538  1.8668
 2213TIP3   OH228129   6.111   1.570   5.711 -0.5815  0.0959 -0.3401
 2213TIP3    H128130   6.190   1.524   5.739 -1.4909 -1.1578  0.2266
 2213TIP3    H228131   6.039   1.512   5.736 -1.7330  1.5734 -0.1339
 2214TIP3   OH228132   6.620   0.170  15.844  0.6405  0.2072  0.3019
 2214TIP3    H128133   6.675   0.093  15.859 -1.5850 -1.5771 -0.4437
 2214TIP3    H228134   6.639   0.196  15.754  0.2911 -0.4025  0.0471
 2215TIP3   OH228135   0.796   4.454  15.344 -0.0056  0.3466  0.4556
 2215TIP3    H128136   0.772   4.512  15.272 -0.0601  1.9733  1.7475
 2215TIP3    H228137   0.836   4.377  15.302 -1.6419  0.4714 -1.3801
 2216TIP3   OH228138   5.073   4.325   4.229  0.3035 -0.0392  0.5553
 2216TIP3    H128139   5.046   4.252   4.285 -0.9702  0.2477  0.3132
 2216TIP3    H228140   5.071   4.289   4.141  1.3581 -0.1982  0.5776
 2217TIP3   OH228141   5.682   1.087  14.739 -0.2442 -0.2468 -0.4711
 2217TIP3    H128142   5.680   1.174  14.777  0.6293 -0.6608  0.5364
 2217TIP3    H228143   5.664   1.028  14.812  2.4964 -1.1093 -0.4339
 2218TIP3   OH228144   5.859   6.223  14.018 -0.4934 -0.9085 -0.2362
 2218TIP3    H128145   5.844   6.132  13.992 -0.2475 -0.8173 -0.7118
 2218TIP3    H228146   5.954   6.232  14.020 -0.5067 -0.9455  0.8292
 2219TIP3   OH228147   2.461   4.232   4.772  1.3471  0.3941  0.1838
 2219TIP3    H128148   2.467   4.280   4.689  2.0724 -0.2882 -0.1630
 2219TIP3    H228149   2.419   4.294   4.832  1.4394  1.1376 -0.5020
 2220TIP3   OH228150   5.872   2.342  11.651 -0.8717 -0.1855 -0.1924
 2220TIP3    H128151   5.833   2.315  11.568 -0.9114 -1.6248  0.2750
 2220TIP3    H228152   5.797   2.367  11.706 -0.8514  0.6837 -0.5630
 2221TIP3   OH228153   0.973   6.334  12.465 -0.2945  0.1779  1.2023
 2221TIP3    H128154   1.050   6.283  12.491 -0.4140 -1.3592 -1.3388
 2221TIP3    H228155   0.899   6.275  12.479 -0.5996  0.2139 -0.1696
 2222TIP3   OH228156   1.570   3.349   4.713  0.0221 -0.2079 -0.7764
 2222TIP3    H128157   1.657   3.375   4.745 -0.1417  0.4593 -0.8576
 2222TIP3    H228158   1.558   3.402   4.634  0.2394 -1.5220 -1.7015
 2223TIP3   OH228159   5.721   2.652  11.359  0.2218  0.3438  0.0537
 2223TIP3    H128160   5.701   2.649  11.265  0.0500 -0.1120  0.1042
 2223TIP3    H228161   5.806   2.608  11.366 -0.4611 -0.9686  0.2944
 2224TIP3   OH228162   0.842   3.718  14.518 -0.0948  0.2058  0.3389
 2224TIP3    H128163   0.805   3.758  14.596  0.2323 -0.5880  0.9073
 2224TIP3    H228164   0.820   3.778  14.447 -1.1465  0.5021  0.9092
 2225TIP3   OH228165   6.620   4.591   0.170  0.0168  0.1017 -0.6802
 2225TIP3    H128166   6.566   4.514   0.186 -0.4321  0.3850 -0.8109
 2225TIP3    H228167   6.617   4.640   0.252 -0.0797  0.2149 -0.7522
 2226TIP3   OH228168   2.944   5.568  13.200 -0.0938  0.2328 -0.3010
 2226TIP3    H128169   2.943   5.639  13.263 -0.1150 -2.5150  2.9297
 2226TIP3    H228170   2.862   5.578  13.151 -0.0501  2.4174  0.0562
 2227TIP3   OH228171   1.664   2.353   5.218 -0.0944 -0.3247 -0.3921
 2227TIP3    H128172   1.647   2.400   5.136 -1.7659  0.1486  0.1881
 2227TIP3    H228173   1.590   2.292   5.226  0.5451 -1.0198  0.2916
 2228TIP3   OH228174   5.076   0.866  13.190  0.1786  0.0289 -0.4225
 2228TIP3    H128175   5.051   0.944  13.239  0.0567 -1.2102  1.5636
 2228TIP3    H228176   5.110   0.899  13.106  1.2332  2.2560  0.8440
 2229TIP3   OH228177   4.596   0.107  12.252  0.7323 -0.1261  0.5503
 2229TIP3    H128178   4.652   0.076  12.181 -0.3721 -2.7548  0.7666
 2229TIP3    H228179   4.637   0.075  12.332 -0.6256 -1.4097  0.7614
 2230TIP3   OH228180   0.519   2.301   3.011  0.0310  0.0030  0.2034
 2230TIP3    H128181   0.460   2.265   3.077 -0.3641 -2.6355 -1.4819
 2230TIP3    H228182   0.554   2.224   2.965  1.8162  1.6655 -1.3541
 2231TIP3   OH228183   3.196   3.529  15.982 -0.3569  0.4434 -0.3822
 2231TIP3    H128184   3.190   3.439  16.012 -1.8914  0.4664 -0.5629
 2231TIP3    H228185   3.271   3.565  16.028  1.3026 -1.3922 -1.5711
 2232TIP3   OH228186   4.407   0.828  11.264  0.6815 -0.0372  0.1445
 2232TIP3    H128187   4.452   0.905  11.230  1.9053  0.1415  2.1377
 2232TIP3    H228188   4.347   0.863  11.330 -0.7228 -0.5263 -0.8501
 2233TIP3   OH228189   3.903   5.223  14.968  0.2356 -0.4460 -0.1244
 2233TIP3    H128190   3.943   5.136  14.963 -0.1563 -0.6289 -0.0632
 2233TIP3    H228191   3.941   5.271  14.894  2.4547  0.1682  1.3601
 2234TIP3   OH228192   5.517   5.307   0.821 -0.0205 -0.6228  0.3296
 2234TIP3    H128193   5.579   5.370   0.785 -1.5823  0.0561 -1.2176
 2234TIP3    H228194   5.550   5.222   0.791 -0.0404 -0.2402 -0.7755
 2235TIP3   OH228195   2.838   2.694   3.599 -0.2132 -0.6437  0.2106
 2235TIP3    H128196   2.890   2.644   3.662 -0.5749 -1.2644  0.0158
 2235TIP3    H228197   2.780   2.630   3.559 -1.0831  0.0365  0.3708
 2236TIP3   OH228198   5.666   6.450   2.839 -0.0166  0.0579 -0.3789
 2236TIP3    H128199   5.704   6.526   2.794  0.4701 -0.1440 -0.3096
 2236TIP3    H228200   5.579   6.439   2.799  0.1840  0.2392 -0.8631
 2237TIP3   OH228201   6.688   3.014   3.615 -0.3527  0.0710 -0.0352
 2237TIP3    H128202   6.640   3.097   3.613  0.7053  0.6656 -1.7212
 2237TIP3    H228203   6.718   3.006   3.706 -1.2104  1.0989  0.3503
 2238TIP3   OH228204   2.509   4.995  11.892  0.6185 -0.0674 -0.4019
 2238TIP3    H128205   2.463   5.078  11.884  0.1237 -0.4143 -1.2006
 2238TIP3    H228206   2.445   4.929  11.865  1.3979 -0.6019 -0.9544
 2239TIP3   OH228207   1.922   5.899   5.532 -0.5631 -0.2447  0.0431
 2239TIP3    H128208   1.881   5.971   5.580 -2.9001 -0.6717 -1.2455
 2239TIP3    H228209   1.862   5.825   5.544  0.6344 -1.3350 -0.5758
 2240TIP3   OH228210   4.744   4.062   0.442  0.4751 -0.4928  0.1834
 2240TIP3    H128211   4.830   4.042   0.478  1.5479  3.8604  0.2893
 2240TIP3    H228212   4.688   4.074   0.519 -0.0916 -2.5609  0.1245
 2241TIP3   OH228213   1.365   3.600   5.766 -0.6071  0.0771 -0.1661
 2241TIP3    H128214   1.387   3.621   5.676  0.0141  1.4392  0.2917
 2241TIP3    H228215   1.270   3.608   5.770 -0.5009  1.4797 -0.3419
 2242TIP3   OH228216   1.654   0.012   5.158 -0.0446 -0.8778  0.1399
 2242TIP3    H128217   1.651   0.041   5.250  0.2855  1.8905 -0.6512
 2242TIP3    H228218   1.740  -0.029   5.149  0.4751  0.0391  0.7741
 2243TIP3   OH228219   1.648   6.703  12.556 -0.5436 -0.3313  0.4862
 2243TIP3    H128220   1.621   6.618  12.521 -0.5401 -0.5464  0.9948
 2243TIP3    H228221   1.571   6.758  12.547 -0.2661 -0.1302 -0.6692
 2244TIP3   OH228222   3.925   4.995   5.526 -0.1106 -0.2011  0.1752
 2244TIP3    H128223   3.963   4.999   5.614 -0.2634 -0.9974  0.2856
 2244TIP3    H228224   3.998   4.969   5.470  0.0917  0.7542 -0.0036
 2245TIP3   OH228225   4.934   0.134   3.853  0.2208  0.3654  0.4550
 2245TIP3    H128226   4.860   0.122   3.792  1.3871  1.2795 -1.1957
 2245TIP3    H228227   4.977   0.049   3.856 -0.7366 -0.1000  1.2165
 2246TIP3   OH228228   6.372   5.834  17.075  0.0533  0.1641  0.0602
 2246TIP3    H128229   6.284   5.848  17.041  0.1495  1.8322  0.4741
 2246TIP3    H228230   6.376   5.740  17.095 -1.2494 -0.1157 -0.9861
 2247TIP3   OH228231   1.384   4.292  13.564  0.2035  0.1366 -0.2103
 2247TIP3    H128232   1.476   4.312  13.545  0.4358  0.7666  1.4698
 2247TIP3    H228233   1.352   4.371  13.608 -0.5174 -0.9184  1.1927
 2248TIP3   OH228234   3.060   0.358  16.480 -0.7522 -0.4124  0.4712
 2248TIP3    H128235   3.145   0.314  16.472 -1.2642 -1.4267  0.4558
 2248TIP3    H228236   3.080   0.445  16.514  0.2103 -0.9931  1.4199
 2249TIP3   OH228237   2.845   0.626   3.924 -0.0328 -0.4284 -0.1190
 2249TIP3    H128238   2.781   0.643   3.993  0.4006  1.0981 -0.0680
 2249TIP3    H228239   2.930   0.629   3.969  0.3466  1.8873 -0.8999
 2250TIP3   OH228240   2.315   0.076   1.268 -0.1073 -0.3833  0.0430
 2250TIP3    H128241   2.228   0.058   1.231  1.1826 -0.9748 -2.7848
 2250TIP3    H228242   2.300   0.148   1.329 -2.6353 -0.6649 -0.1826
 2251TIP3   OH228243   5.947   6.511   2.455 -0.2837 -0.6464  0.2751
 2251TIP3    H128244   5.893   6.584   2.424  1.2951 -0.5554 -2.4824
 2251TIP3    H228245   5.942   6.447   2.384  0.1729 -2.2646  1.6823
 2252TIP3   OH228246   2.959   4.277   2.806 -0.3577  0.0315 -0.4823
 2252TIP3    H128247   2.980   4.192   2.767 -1.0430  1.0043 -3.0787
 2252TIP3    H228248   3.039   4.328   2.797  0.3430 -0.5823  1.8961
 2253TIP3   OH228249   4.287   5.710   3.104  0.5301 -0.0077 -0.0952
 2253TIP3    H128250   4.228   5.730   3.031 -1.4674  0.1170  1.5131
 2253TIP3    H228251   4.323   5.795   3.131  0.0513  0.1375  0.0822
 2254TIP3   OH228252   1.938   0.993  15.119 -0.1798  0.3187  0.1467
 2254TIP3    H128253   1.861   1.011  15.173 -0.8319  1.5559 -1.1558
 2254TIP3    H228254   1.947   0.898  15.121 -1.8492  0.1482  0.1922
 2255TIP3   OH228255   4.341   2.364  12.611  0.4565  0.1506  0.1393
 2255TIP3    H128256   4.373   2.295  12.552 -1.1636 -0.7466  0.2835
 2255TIP3    H228257   4.418   2.388  12.664  1.4179 -0.4492 -0.9644
 2256TIP3   OH228258   4.010   5.114  10.906 -0.1900 -0.5714 -0.3976
 2256TIP3    H128259   3.978   5.117  10.996  0.7810  0.5141 -0.0674
 2256TIP3    H228260   3.932   5.098  10.853 -1.3282  1.9978  0.3740
 2257TIP3   OH228261   1.762   6.210   0.461 -0.2057  0.0861 -0.2210
 2257TIP3    H128262   1.673   6.242   0.450 -0.9035 -2.0772 -1.0830
 2257TIP3    H228263   1.815   6.264   0.402 -0.8891  1.4654  0.3921
 2258TIP3   OH228264   1.947   3.357  13.236  0.2131 -0.0051 -0.3166
 2258TIP3    H128265   2.014   3.413  13.275  0.4518 -0.0563 -0.6542
 2258TIP3    H228266   1.865   3.388  13.274  0.6119 -1.2792  1.7172
 2259TIP3   OH228267   3.920   3.676   6.052  0.2354  0.0132  0.2828
 2259TIP3    H128268   3.886   3.695   6.140 -0.1637 -1.1592  0.3759
 2259TIP3    H228269   3.863   3.725   5.993  0.4986  0.7976  0.6572
 2260TIP3   OH228270   1.051   1.748   4.918  0.3331  0.0157  0.2039
 2260TIP3    H128271   1.125   1.715   4.968 -1.0921 -3.0039  0.4855
 2260TIP3    H228272   1.022   1.673   4.866 -3.3074  0.6975  1.0970
 2261TIP3   OH228273   0.761   4.873  11.893  0.0352  0.1980  0.3318
 2261TIP3    H128274   0.719   4.913  11.816  1.1218  0.1745 -0.2763
 2261TIP3    H228275   0.688   4.836  11.943 -0.8831  1.8918  0.2961
 2262TIP3   OH228276   5.687   4.309  13.206 -0.4178  0.3624  0.2239
 2262TIP3    H128277   5.636   4.362  13.145 -1.2155 -1.0447 -0.3663
 2262TIP3    H228278   5.700   4.226  13.159 -1.0389 -0.7320  1.9540
 2263TIP3   OH228279   5.757   3.100   2.763  0.4272 -0.9468 -0.0589
 2263TIP3    H128280   5.727   3.120   2.852 -0.9140 -3.0184 -0.0192
 2263TIP3    H228281   5.744   3.181   2.714 -0.4447 -0.3079  1.2086
 2264TIP3   OH228282   5.391   0.361   0.983  0.3447 -0.0183 -0.3659
 2264TIP3    H128283   5.427   0.354   1.071  0.7754  0.8689 -0.4694
 2264TIP3    H228284   5.324   0.429   0.989  0.9900  0.6766 -0.9145
 2265TIP3   OH228285   6.560   2.034   3.311 -0.2984 -0.4003 -0.0112
 2265TIP3    H128286   6.521   2.067   3.230  0.5430  0.3484 -0.1240
 2265TIP3    H228287   6.635   2.092   3.326  0.0155 -1.0320  0.8743
 2266TIP3   OH228288   4.846   3.783  15.703 -0.1667  0.6639 -0.1213
 2266TIP3    H128289   4.901   3.825  15.770  0.2661  0.4261 -0.3269
 2266TIP3    H228290   4.894   3.705  15.678 -1.0783 -0.0859  0.4269
 2267TIP3   OH228291   1.721   0.956   2.383  0.3714 -0.4468  0.2692
 2267TIP3    H128292   1.764   1.011   2.317  0.9502 -2.0013 -0.6821
 2267TIP3    H228293   1.781   0.957   2.458  1.2776 -1.2470 -0.4313
 2268TIP3   OH228294   5.227   4.452   0.122  0.3273  0.5010  0.4078
 2268TIP3    H128295   5.240   4.544   0.144  1.4488  0.6883 -0.9316
 2268TIP3    H228296   5.132   4.440   0.121  0.1530  1.8433 -0.1955
 2269TIP3   OH228297   6.404   2.509  17.213  0.0170 -0.4931 -0.6368
 2269TIP3    H128298   6.496   2.498  17.191  0.0145  0.7133 -1.2885
 2269TIP3    H228299   6.368   2.420  17.211  1.2269 -1.0003 -0.0711
 2270TIP3   OH228300   2.577   1.048   0.292 -0.0717  0.0272 -0.1883
 2270TIP3    H128301   2.513   1.097   0.240 -1.2446 -0.5486  0.7003
 2270TIP3    H228302   2.566   0.957   0.264 -0.7607 -0.2981  1.1065
 2271TIP3   OH228303   1.158   3.402  15.556  0.3400  0.0215 -0.3388
 2271TIP3    H128304   1.099   3.360  15.493  1.0846 -0.8867 -0.4399
 2271TIP3    H228305   1.226   3.442  15.501  0.7269 -0.3580 -0.1365
 2272TIP3   OH228306   5.327   1.997   2.684  0.2013  0.5422 -0.7366
 2272TIP3    H128307   5.370   1.935   2.743 -1.7613 -0.2440 -0.0934
 2272TIP3    H228308   5.238   1.963   2.673 -0.7799  2.9683 -0.7738
 2273TIP3   OH228309   2.599   5.390  16.434 -0.3737  0.3913 -0.3346
 2273TIP3    H128310   2.596   5.486  16.433  1.2134  0.4549 -0.6913
 2273TIP3    H228311   2.645   5.369  16.516 -1.3003 -0.0863  0.0655
 2274TIP3   OH228312   2.906   6.381   0.547 -0.5961 -0.1362 -0.7738
 2274TIP3    H128313   2.942   6.440   0.481  1.0139 -0.2035  0.0356
 2274TIP3    H228314   2.816   6.365   0.517 -1.1313  2.8212 -0.9506
 2275TIP3   OH228315   6.563   1.655  11.688 -1.0526 -1.0040  0.8515
 2275TIP3    H128316   6.498   1.695  11.629 -0.1666  0.8237  1.0876
 2275TIP3    H228317   6.535   1.564  11.696 -0.6322 -1.6091 -3.2560
 2276TIP3   OH228318   2.368   6.663  15.147  0.0185 -0.2713 -0.3387
 2276TIP3    H128319   2.350   6.679  15.054 -2.2034  2.1068  0.4643
 2276TIP3    H228320   2.428   6.733  15.172  1.6902 -1.6958 -0.2687
 2277TIP3   OH228321   5.488   6.213   5.109 -0.2544  0.2808  0.4294
 2277TIP3    H128322   5.524   6.134   5.150  1.8657  0.7013 -0.5583
 2277TIP3    H228323   5.496   6.281   5.176 -0.4740  0.0607  0.6812
 2278TIP3   OH228324   5.742   3.972   5.197  0.0970 -0.4675  0.0354
 2278TIP3    H128325   5.786   4.056   5.209  1.0478 -0.6700 -1.8493
 2278TIP3    H228326   5.698   3.980   5.113 -1.3221 -1.2174  0.6887
 2279TIP3   OH228327   3.707   0.740  11.735  0.2083  0.2794 -0.2028
 2279TIP3    H128328   3.738   0.830  11.736  0.7102  0.1008  0.7449
 2279TIP3    H228329   3.774   0.690  11.782 -0.0645 -0.5834 -0.7146
 2280TIP3   OH228330   5.321   5.493   1.640 -0.1794 -0.2923 -0.4561
 2280TIP3    H128331   5.391   5.523   1.583 -1.1630  1.4821 -0.7465
 2280TIP3    H228332   5.256   5.455   1.581 -0.4116 -0.0255 -0.3735
 2281TIP3   OH228333   1.647   6.173  14.520 -0.2094 -0.2498 -0.3578
 2281TIP3    H128334   1.673   6.109  14.454 -2.6484  0.4088 -2.0600
 2281TIP3    H228335   1.567   6.212  14.484 -1.7536 -0.0542  3.1332
 2282TIP3   OH228336   2.541   1.600   1.215  0.3509  0.0167  0.5236
 2282TIP3    H128337   2.452   1.591   1.181  0.0409  2.1165  0.7205
 2282TIP3    H228338   2.564   1.512   1.244 -0.9596 -0.9488 -1.2180
 2283TIP3   OH228339   2.692   3.371   2.036  0.5356  0.6241  0.2029
 2283TIP3    H128340   2.669   3.345   1.947 -0.1383  2.6162 -0.2349
 2283TIP3    H228341   2.701   3.466   2.032  0.8278  0.7111  2.1916
 2284TIP3   OH228342   0.876   3.505  10.669  0.0960 -0.0894 -0.1462
 2284TIP3    H128343   0.837   3.548  10.593 -2.2618 -0.4341  0.8296
 2284TIP3    H228344   0.970   3.521  10.660 -0.0402 -0.8245 -3.5553
 2285TIP3   OH228345   4.517   5.553  17.178 -0.4375 -0.1765  0.4004
 2285TIP3    H128346   4.498   5.538  17.086  0.6750  2.6053 -0.3349
 2285TIP3    H228347   4.592   5.495  17.196  0.1754  0.2201 -0.7971
 2286TIP3   OH228348   3.394   4.125   2.198 -0.1399  0.2928 -0.2288
 2286TIP3    H128349   3.338   4.086   2.130  0.6919  0.5977 -1.1080
 2286TIP3    H228350   3.482   4.097   2.174  0.3276  1.6897 -0.1584
 2287TIP3   OH228351   1.314   3.036  16.832 -0.4045 -0.2546 -0.2485
 2287TIP3    H128352   1.330   3.110  16.892  0.5275  0.3361 -1.2184
 2287TIP3    H228353   1.232   3.058  16.789  0.2171  0.5750 -1.0404
 2288TIP3   OH228354   0.501   0.369   2.040 -0.1544  0.3542 -0.4307
 2288TIP3    H128355   0.537   0.317   2.112 -1.1595  0.6306  0.2792
 2288TIP3    H228356   0.424   0.321   2.012 -2.7387  2.8188  2.0814
 2289TIP3   OH228357   5.308   0.900  14.892 -0.4771 -0.5314  0.5043
 2289TIP3    H128358   5.318   0.963  14.820 -0.8753  0.4425  1.2832
 2289TIP3    H228359   5.378   0.836  14.878 -1.9527 -1.6222 -2.0096
 2290TIP3   OH228360   3.030   3.761   1.865  0.3062 -0.0725  0.0401
 2290TIP3    H128361   3.027   3.805   1.949  0.1821  0.5075 -0.2645
 2290TIP3    H228362   3.052   3.670   1.886 -2.0091 -0.4734  0.8861
 2291TIP3   OH228363   0.259   5.693  16.406 -0.2368  0.1066 -0.0337
 2291TIP3    H128364   0.297   5.743  16.479 -0.1179  0.1860 -0.1498
 2291TIP3    H228365   0.269   5.751  16.330  0.3574 -0.2907 -0.2669
 2292TIP3   OH228366   1.815   0.768  11.226 -0.4518  0.0563 -0.0417
 2292TIP3    H128367   1.819   0.711  11.303  0.2291  1.3305  0.8847
 2292TIP3    H228368   1.878   0.730  11.165  0.2155 -0.0310  0.6885
 2293TIP3   OH228369   0.442   0.701  14.102  0.3743  0.0962 -0.0641
 2293TIP3    H128370   0.415   0.624  14.051 -1.0393  0.6226 -0.1378
 2293TIP3    H228371   0.428   0.676  14.193 -0.7575  0.5081 -0.1202
 2294TIP3   OH228372   6.069   4.465   0.719 -0.2519 -0.0807 -0.3976
 2294TIP3    H128373   6.087   4.438   0.629  1.1964 -0.9823  0.1395
 2294TIP3    H228374   6.145   4.518   0.744 -0.4184 -0.2290  0.4346
 2295TIP3   OH228375   1.350   1.751   6.092 -0.1761 -0.2650  0.2827
 2295TIP3    H128376   1.341   1.769   6.186  2.1026  0.5254  0.3681
 2295TIP3    H228377   1.425   1.691   6.087 -0.0336  0.0282 -1.0600
 2296TIP3   OH228378   0.279   2.282   0.823 -0.1492  0.0504  0.2619
 2296TIP3    H128379   0.194   2.244   0.845 -0.7823  1.3487  0.0699
 2296TIP3    H228380   0.281   2.284   0.728  0.6882 -1.2825  0.2401
 2297TIP3   OH228381   2.444   1.436  15.173 -0.2595  0.2093  0.0775
 2297TIP3    H128382   2.453   1.429  15.078  0.9681  0.7788  0.1446
 2297TIP3    H228383   2.500   1.509  15.197  3.1093 -2.7830  1.7552
 2298TIP3   OH228384   1.805   1.727  13.024 -0.0843 -0.4954 -0.2475
 2298TIP3    H128385   1.810   1.818  13.054 -0.2710 -0.0840 -1.4455
 2298TIP3    H228386   1.714   1.716  12.996  0.6791 -0.0841 -3.0709
 2299TIP3   OH228387   0.156   3.375   4.983 -0.0727 -0.7141  0.1319
 2299TIP3    H128388   0.167   3.451   5.039  1.4048  0.6835 -1.9844
 2299TIP3    H228389   0.110   3.409   4.905 -1.4702 -2.4620  0.1499
 2300TIP3   OH228390   6.746   5.932  11.423 -0.0768  0.0342  0.2176
 2300TIP3    H128391   6.842   5.927  11.427 -0.0742 -1.3507 -1.2009
 2300TIP3    H228392   6.724   6.007  11.479  1.7451 -0.4124  1.5802
 2301TIP3   OH228393   0.169   5.950  13.171 -0.5832  0.1693 -0.3529
 2301TIP3    H128394   0.253   5.990  13.148 -0.7201  1.2466  0.9444
 2301TIP3    H228395   0.153   5.978  13.261 -1.0756 -2.1889  0.3297
 2302TIP3   OH228396   1.230   2.879  11.086 -0.0391 -1.0362  0.0797
 2302TIP3    H128397   1.141   2.844  11.088 -0.0475 -1.1423 -1.5785
 2302TIP3    H228398   1.220   2.968  11.054  0.3618 -0.7193  0.8173
 2303TIP3   OH228399   2.665   3.883  16.366  0.1946 -0.2155 -0.9708
 2303TIP3    H128400   2.723   3.908  16.438 -0.3864  0.9236 -0.8838
 2303TIP3    H228401   2.705   3.804  16.329  0.9837 -0.2943  0.0295
 2304TIP3   OH228402   1.160   5.868   0.388  0.3893 -0.5116  0.0333
 2304TIP3    H128403   1.067   5.891   0.383  0.1281 -1.3971  0.6415
 2304TIP3    H228404   1.173   5.807   0.316  0.5876 -0.1055 -0.2769
 2305TIP3   OH228405   1.468   1.780   1.137  0.4753  0.3112  0.4099
 2305TIP3    H128406   1.422   1.716   1.083  1.0077  1.6482 -1.6940
 2305TIP3    H228407   1.465   1.744   1.225 -1.3754 -1.4031 -0.3238
 2306TIP3   OH228408   6.424   0.774   6.373  0.2549  0.6053  0.0578
 2306TIP3    H128409   6.408   0.868   6.377  2.2076  0.9593 -0.0776
 2306TIP3    H228410   6.337   0.735   6.371 -0.5778  2.3679  1.0022
 2307TIP3   OH228411   4.882   5.357   5.420  0.0776 -0.2810 -0.2304
 2307TIP3    H128412   4.888   5.432   5.479 -0.0803 -2.1136  2.1796
 2307TIP3    H228413   4.954   5.370   5.358  0.4173  1.5250  0.5123
 2308TIP3   OH228414   0.060   4.314   2.488 -0.1654  0.2701 -0.1165
 2308TIP3    H128415   0.026   4.390   2.440 -0.7783 -0.2694 -0.5460
 2308TIP3    H228416   0.098   4.351   2.567 -1.6220  0.9194  0.3133
 2309TIP3   OH228417   1.071   2.268  14.624 -0.3497 -0.0674 -0.0554
 2309TIP3    H128418   0.986   2.307  14.646  0.3258  1.0761  0.5279
 2309TIP3    H228419   1.134   2.315  14.678  0.3938 -2.5369  1.3317
 2310TIP3   OH228420   0.741   4.098   3.847  0.5371 -0.1227  0.0921
 2310TIP3    H128421   0.711   4.101   3.756 -2.3770  0.5883  1.0273
 2310TIP3    H228422   0.778   4.010   3.857 -0.8249 -0.8761 -1.2754
 2311TIP3   OH228423   5.068   0.485  13.154  0.6339  0.3184 -0.6994
 2311TIP3    H128424   5.002   0.418  13.175  1.6886 -0.5682 -0.1429
 2311TIP3    H228425   5.090   0.525  13.238 -1.2889  2.6300 -1.2572
 2312TIP3   OH228426   5.917   1.063   5.945  0.2217  0.2822  0.2186
 2312TIP3    H128427   5.862   1.000   5.991 -0.0597  0.8805  0.7219
 2312TIP3    H228428   5.898   1.147   5.988 -0.0950  0.8695 -1.0150
 2313TIP3   OH228429   2.646   5.757  12.826  0.4042  0.5280  0.0498
 2313TIP3    H128430   2.699   5.688  12.785 -1.6552  0.1508 -2.0886
 2313TIP3    H228431   2.710   5.822  12.855  2.3839 -2.1519  1.9266
 2314TIP3   OH228432   0.172   1.843   2.811 -0.3826 -0.8586  0.2310
 2314TIP3    H128433   0.141   1.888   2.732 -2.0881 -0.2780  1.2254
 2314TIP3    H228434   0.114   1.768   2.821  0.5949 -1.6303  0.2787
 2315TIP3   OH228435   3.937   3.590  13.670  0.3832  0.5807 -0.1793
 2315TIP3    H128436   3.955   3.644  13.593  1.0129  1.1964  0.3861
 2315TIP3    H228437   3.892   3.649  13.730 -0.8748 -0.1351 -0.4066
 2316TIP3   OH228438   4.351   4.757   2.275 -0.1356 -0.4257 -0.3766
 2316TIP3    H128439   4.355   4.689   2.342 -0.3176  0.2123  0.2840
 2316TIP3    H228440   4.442   4.766   2.245 -0.1977 -1.3367 -0.8507
 2317TIP3   OH228441   3.634   0.480   1.730 -0.4292  0.0914  0.2025
 2317TIP3    H128442   3.663   0.408   1.673  0.0441 -1.1985  2.0084
 2317TIP3    H228443   3.620   0.438   1.815 -2.3952  1.7434  0.7036
 2318TIP3   OH228444   4.198   3.738  15.110 -0.0236  0.2554 -0.0173
 2318TIP3    H128445   4.228   3.809  15.167  3.4439 -1.1087 -0.0410
 2318TIP3    H228446   4.154   3.782  15.037  1.4714  2.3751  0.3246
 2319TIP3   OH228447   2.064   4.695   1.169  0.0716 -0.2847 -0.1420
 2319TIP3    H128448   2.099   4.681   1.082 -0.2604 -1.2708 -0.1167
 2319TIP3    H228449   1.969   4.688   1.158  0.0790 -1.5183  0.4902
 2320TIP3   OH228450   4.995   6.470   0.961  0.3527  0.7016 -0.0389
 2320TIP3    H128451   4.917   6.489   1.013 -0.6821  1.2172 -1.7730
 2320TIP3    H228452   5.026   6.555   0.931  0.4349  0.3356 -1.0125
 2321TIP3   OH228453   2.025   3.907  11.203  0.0975 -0.0761 -1.5700
 2321TIP3    H128454   1.934   3.901  11.173 -0.0102  0.7417 -1.3935
 2321TIP3    H228455   2.077   3.876  11.128 -0.2921 -0.0412 -1.8537
 2322TIP3   OH228456   6.320   0.186  15.850 -0.5007  0.1190  0.2575
 2322TIP3    H128457   6.405   0.145  15.861 -0.8465 -0.4788  0.7359
 2322TIP3    H228458   6.326   0.233  15.767  0.2972  0.0934  0.3025
 2323TIP3   OH228459   2.874   4.681  14.091 -0.2396  0.5154  0.4061
 2323TIP3    H128460   2.946   4.681  14.153 -0.1595 -0.3286  0.3185
 2323TIP3    H228461   2.797   4.660  14.144 -0.0891 -0.7528  0.1358
 2324TIP3   OH228462   4.164   2.678  17.230  0.1358  0.2003 -0.2799
 2324TIP3    H128463   4.250   2.646  17.202 -0.6281 -1.7487 -0.5342
 2324TIP3    H228464   4.108   2.601  17.224 -1.1484  0.9184  1.9580
 2325TIP3   OH228465   4.144   4.241  16.154  0.3035 -0.1325 -0.5388
 2325TIP3    H128466   4.164   4.260  16.246  1.2479 -0.5589 -0.6525
 2325TIP3    H228467   4.139   4.146  16.150  4.4852 -0.4003 -1.7499
 2326TIP3   OH228468   3.856   4.395  12.544 -0.0138  0.1744  1.0499
 2326TIP3    H128469   3.923   4.391  12.475 -2.1729 -0.1940 -1.0989
 2326TIP3    H228470   3.862   4.310  12.588 -0.5384 -0.7643 -0.6168
 2327TIP3   OH228471   4.566   0.865   0.008  0.0354  0.1506 -0.1868
 2327TIP3    H128472   4.503   0.794  -0.001 -2.0873  1.8200  0.9892
 2327TIP3    H228473   4.534   0.932  -0.053  1.3174  0.5794 -0.3950
 2328TIP3   OH228474   0.895   3.127  13.944 -0.1203  0.4593  0.5262
 2328TIP3    H128475   0.948   3.205  13.926  1.9614 -1.3616 -1.5952
 2328TIP3    H228476   0.845   3.114  13.864 -1.6072  0.4575  1.4425
 2329TIP3   OH228477   3.356   2.599   6.896  0.1999 -0.1924 -0.4644
 2329TIP3    H128478   3.379   2.552   6.976  0.8920 -1.8901 -1.6138
 2329TIP3    H228479   3.327   2.530   6.836  2.2630  0.7170 -2.5677
 2330TIP3   OH228480   4.231   1.722  14.345 -0.0311  0.1986  0.1480
 2330TIP3    H128481   4.172   1.676  14.285 -0.0647  0.7979 -0.2831
 2330TIP3    H228482   4.245   1.661  14.417  0.1943 -0.6281 -0.5901
 2331TIP3   OH228483   6.360   6.094   1.837  0.1774  0.2953  0.0544
 2331TIP3    H128484   6.418   6.137   1.774  0.1198 -0.6611 -0.6630
 2331TIP3    H228485   6.414   6.029   1.880 -0.2605 -0.3377 -0.3432
 2332TIP3   OH228486   4.494   3.993  14.079 -0.2384  0.1224 -0.2539
 2332TIP3    H128487   4.462   3.951  13.999 -0.2622 -0.6442  0.1504
 2332TIP3    H228488   4.537   3.922  14.127  1.3302  0.9608 -0.3993
 2333TIP3   OH228489   5.423   1.691   3.194 -0.3146 -0.3229 -0.3479
 2333TIP3    H128490   5.384   1.726   3.274 -0.9607  0.2033 -0.8770
 2333TIP3    H228491   5.484   1.624   3.223  0.0961  0.4758  0.6292
 2334TIP3   OH228492   1.814   2.356   4.140 -0.2186 -0.2029  0.5345
 2334TIP3    H128493   1.837   2.392   4.226  0.5882 -2.1863  1.1603
 2334TIP3    H228494   1.828   2.262   4.148 -1.4349 -0.5766 -1.3717
 2335TIP3   OH228495   4.442   1.021   4.927  0.2281  0.1357 -0.3572
 2335TIP3    H128496   4.451   0.947   4.987  1.2747 -1.2145 -2.1197
 2335TIP3    H228497   4.532   1.051   4.913  0.1372 -0.4422 -2.2867
 2336TIP3   OH228498   6.811   3.111   0.049 -0.1089 -0.3536  0.0158
 2336TIP3    H128499   6.880   3.126  -0.016  0.1373 -2.5358 -0.2490
 2336TIP3    H228500   6.785   3.020   0.036 -1.2034 -0.3334  1.8969
 2337TIP3   OH228501   6.312   1.522  17.155  0.1216 -0.4815  0.2542
 2337TIP3    H128502   6.335   1.597  17.210  1.3606 -0.6701  0.0170
 2337TIP3    H228503   6.230   1.547  17.112  0.3668  0.6020  0.4166
 2338TIP3   OH228504   2.105   4.775   5.002  0.4536  0.5427  0.4486
 2338TIP3    H128505   2.123   4.717   5.076 -0.0980 -1.0603 -0.6492
 2338TIP3    H228506   2.179   4.762   4.943 -0.2052  0.1571 -0.2906
 2339TIP3   OH228507   3.798   0.563   1.304  0.2930  0.2861  0.1585
 2339TIP3    H128508   3.774   0.470   1.302  0.3621  0.2597  0.4476
 2339TIP3    H228509   3.715   0.609   1.317  0.3249  0.2284  0.5917
 2340TIP3   OH228510   1.231   1.324   5.613 -0.2678 -0.2359 -0.1868
 2340TIP3    H128511   1.275   1.293   5.692 -1.2906  0.6739  0.7597
 2340TIP3    H228512   1.171   1.253   5.589 -0.0641 -0.4494 -0.0662
 2341TIP3   OH228513   0.522   5.073   4.407  0.1462  0.7724 -0.3231
 2341TIP3    H128514   0.563   5.088   4.322 -0.6829 -0.2869 -0.9194
 2341TIP3    H228515   0.446   5.132   4.406 -0.4662 -0.0149 -0.7600
 2342TIP3   OH228516   0.482   4.199  16.590  0.2390  0.0741  0.3255
 2342TIP3    H128517   0.446   4.208  16.678 -1.0920 -2.9273  0.1558
 2342TIP3    H228518   0.575   4.181  16.604  0.5801  2.2179  0.9831
 2343TIP3   OH228519   4.199   2.207   2.074 -0.3677  0.9777  1.2631
 2343TIP3    H128520   4.272   2.147   2.090 -1.5386 -0.4108  1.5360
 2343TIP3    H228521   4.220   2.251   1.992  0.2995 -0.1423  0.8366
 2344TIP3   OH228522   0.111   4.792  16.670 -0.4255  0.2527  0.2641
 2344TIP3    H128523   0.122   4.824  16.580 -2.7092  1.5019  0.3948
 2344TIP3    H228524   0.162   4.853  16.723 -0.2347  0.3534 -0.0303
 2345TIP3   OH228525   5.727   3.993   3.773 -0.1489 -0.4070 -0.2737
 2345TIP3    H128526   5.813   4.025   3.747 -0.0156  0.0405  0.6999
 2345TIP3    H228527   5.666   4.037   3.713  0.2239 -0.0824 -0.4181
 2346TIP3   OH228528   0.769   5.940   4.909 -0.1479  0.2456 -0.4638
 2346TIP3    H128529   0.806   6.000   4.973  1.5354 -0.8318 -0.4032
 2346TIP3    H228530   0.782   5.983   4.824 -2.4697  1.7206 -0.1323
 2347TIP3   OH228531   4.333   1.737   0.671  0.5840 -0.3268  0.1118
 2347TIP3    H128532   4.360   1.679   0.742 -0.3130 -2.2040 -1.0208
 2347TIP3    H228533   4.301   1.816   0.715  0.3634 -1.3115  1.7765
 2348TIP3   OH228534   1.181   0.148   0.539  0.4913 -0.1868 -0.6539
 2348TIP3    H128535   1.239   0.151   0.615 -0.9478  0.8359  0.4259
 2348TIP3    H228536   1.159   0.240   0.522 -0.6462 -0.5468 -1.1728
 2349TIP3   OH228537   2.418   0.001  15.419 -0.1409  0.1971  0.0365
 2349TIP3    H128538   2.453  -0.058  15.485 -1.7786 -0.6272  0.1881
 2349TIP3    H228539   2.495   0.036  15.375  0.9244 -0.1176  1.6208
 2350TIP3   OH228540   5.455   4.832  13.235 -0.1221  0.1586 -0.2024
 2350TIP3    H128541   5.539   4.822  13.189 -0.6150  1.4006 -1.4067
 2350TIP3    H228542   5.402   4.760  13.203  0.4541 -0.5832  0.4971
 2351TIP3   OH228543   6.161   0.489   4.007  0.0472 -0.1614  0.2045
 2351TIP3    H128544   6.077   0.491   4.053  0.5731 -0.1718  1.1758
 2351TIP3    H228545   6.203   0.408   4.037 -0.4335 -1.2100 -1.8161
 2352TIP3   OH228546   3.040   3.516  14.295  0.1276 -0.1949 -0.6031
 2352TIP3    H128547   3.102   3.473  14.355 -2.0329 -1.4009  0.8333
 2352TIP3    H228548   3.064   3.483  14.209  1.4651 -0.6669 -0.0685
 2353TIP3   OH228549   6.746   2.225   4.095  0.0096 -0.2255 -0.2085
 2353TIP3    H128550   6.753   2.131   4.076 -0.6552  0.0923 -2.1587
 2353TIP3    H228551   6.665   2.234   4.146 -0.2957 -0.6259 -0.6211
 2354TIP3   OH228552   3.449   1.797   4.135 -0.4936  0.1311  0.4422
 2354TIP3    H128553   3.544   1.786   4.124 -0.7343 -0.4150 -1.2849
 2354TIP3    H228554   3.440   1.883   4.176  0.7868 -0.2272  1.5131
 2355TIP3   OH228555   2.886   5.598  11.659 -0.3058  0.8998  0.1399
 2355TIP3    H128556   2.898   5.693  11.654 -2.3800  1.2592  1.3204
 2355TIP3    H228557   2.915   5.575  11.748 -0.3279  0.5065  0.0454
 2356TIP3   OH228558   5.182   0.128   5.255 -0.1536 -0.2542  0.5035
 2356TIP3    H128559   5.109   0.076   5.222 -0.4651  0.0591  0.7062
 2356TIP3    H228560   5.153   0.219   5.248  0.9004 -0.0238 -1.1273
 2357TIP3   OH228561   0.640   0.339   5.664  0.1578  0.6068 -0.3995
 2357TIP3    H128562   0.614   0.418   5.712 -0.6750  0.1532 -0.1010
 2357TIP3    H228563   0.733   0.352   5.646 -0.1380  1.9786 -0.9834
 2358TIP3   OH228564   3.884   1.978   4.717  0.0890 -0.1257 -0.1229
 2358TIP3    H128565   3.966   1.986   4.668  0.8801 -0.7133  1.0531
 2358TIP3    H228566   3.859   1.886   4.707  1.2279 -0.7170  2.0064
 2359TIP3   OH228567   2.916   6.196  12.723 -0.3448 -0.5390  0.1679
 2359TIP3    H128568   3.001   6.196  12.766  0.8571  2.1014 -2.0472
 2359TIP3    H228569   2.859   6.247  12.781  0.8566  1.6863 -0.5515
 2360TIP3   OH228570   1.562   3.247  11.090 -0.1502 -0.4612 -0.2905
 2360TIP3    H128571   1.618   3.268  11.016 -1.1665  2.0732 -0.3777
 2360TIP3    H228572   1.554   3.329  11.139 -0.6900 -1.7171  1.8191
 2361TIP3   OH228573   2.753   5.069  15.306 -0.5115 -0.2468  0.7196
 2361TIP3    H128574   2.774   4.990  15.257 -0.2426 -0.5716  1.3540
 2361TIP3    H228575   2.825   5.078  15.369 -0.2253  0.8331  0.2504
 2362TIP3   OH228576   4.777   2.626   4.037 -0.1381 -0.2760 -0.2345
 2362TIP3    H128577   4.753   2.647   3.946 -2.2955  1.2148  0.6374
 2362TIP3    H228578   4.699   2.584   4.073  1.0962 -1.8880  0.6437
 2363TIP3   OH228579   0.966   5.631  13.236 -0.5434 -0.6304  0.2836
 2363TIP3    H128580   1.059   5.607  13.236 -0.5874 -0.8226 -0.9237
 2363TIP3    H228581   0.963   5.716  13.192 -1.0087 -0.8919 -0.1914
 2364TIP3   OH228582   5.993   1.769  11.770 -0.2950 -0.4453 -0.3191
 2364TIP3    H128583   6.070   1.754  11.714 -0.5234 -0.6901 -0.5666
 2364TIP3    H228584   5.969   1.861  11.753 -0.5818 -0.6266 -0.8947
 2365TIP3   OH228585   0.601   0.582  13.066  0.4441  0.2833 -0.1978
 2365TIP3    H128586   0.686   0.539  13.058  0.4135  0.5499 -2.0480
 2365TIP3    H228587   0.597   0.643  12.992 -1.3348  0.3294 -0.0924
 2366TIP3   OH228588   4.942   0.201   4.340 -0.6359 -0.2536  0.0291
 2366TIP3    H128589   4.996   0.279   4.334 -1.0064 -0.0947 -1.2708
 2366TIP3    H228590   4.872   0.225   4.401 -0.6014  0.3444 -0.1621
 2367TIP3   OH228591   3.010   3.054   5.205  0.0586  0.1593 -0.7611
 2367TIP3    H128592   2.970   3.111   5.271 -1.3799 -0.7220 -0.8482
 2367TIP3    H228593   2.950   2.980   5.198  1.7242 -1.2098 -0.9024
 2368TIP3   OH228594   0.789   3.019  11.663 -0.0494  0.4682 -0.2441
 2368TIP3    H128595   0.878   2.985  11.675 -0.4757 -1.2366 -1.7637
 2368TIP3    H228596   0.799   3.114  11.667  2.1128  0.3576 -2.0484
 2369TIP3   OH228597   2.647   0.750  16.600 -0.1932 -0.0858  0.2102
 2369TIP3    H128598   2.630   0.776  16.510  0.2367  0.8280  0.3851
 2369TIP3    H228599   2.598   0.669  16.612 -0.9837  0.2760 -0.5734
 2370TIP3   OH228600   3.198   5.399  14.229 -0.4399 -0.0028  0.1144
 2370TIP3    H128601   3.239   5.385  14.314  0.8561 -4.2489 -1.0996
 2370TIP3    H228602   3.107   5.371  14.242 -0.2084 -0.7791  0.1159
 2371TIP3   OH228603   1.147   6.455   5.530  0.0321 -0.0560  0.3876
 2371TIP3    H128604   1.145   6.385   5.594  0.1063  0.5740  1.0797
 2371TIP3    H228605   1.239   6.468   5.510  0.0466  0.1416  0.5839
 2372TIP3   OH228606   1.070   4.042  14.762 -0.8008  0.1151 -0.9688
 2372TIP3    H128607   0.996   4.099  14.781 -0.2140  0.4129  0.5148
 2372TIP3    H228608   1.104   4.073  14.679 -1.6608  0.6919 -1.1146
 2373TIP3   OH228609   4.725   5.861   0.670  0.2216 -0.2484  0.7048
 2373TIP3    H128610   4.726   5.766   0.679 -0.5892 -0.1377  2.1409
 2373TIP3    H228611   4.744   5.894   0.757 -0.2460  0.9126  0.3838
 2374TIP3   OH228612   6.273   2.359  12.092  0.3366  0.0238  0.2659
 2374TIP3    H128613   6.199   2.363  12.152  1.5037  1.2334  1.6819
 2374TIP3    H228614   6.240   2.400  12.012 -1.1166 -1.2568  0.1757
 2375TIP3   OH228615   6.230   6.645   4.816 -0.0503  0.6790  0.0204
 2375TIP3    H128616   6.320   6.615   4.827 -0.0909  1.1660  1.6865
 2375TIP3    H228617   6.236   6.713   4.749  0.6277 -0.1826 -0.8085
 2376TIP3   OH228618   2.888   1.459   2.886 -0.4480 -0.1260 -0.0443
 2376TIP3    H128619   2.940   1.388   2.923 -2.0325 -1.1972  0.1233
 2376TIP3    H228620   2.945   1.497   2.819  1.2005 -0.2054  1.2527
 2377TIP3   OH228621   5.559   6.596   2.310 -0.6557  0.1315  1.5688
 2377TIP3    H128622   5.642   6.583   2.354 -0.3862  0.3365  1.1215
 2377TIP3    H228623   5.582   6.618   2.220 -1.2107 -0.9260  1.1546
 2378TIP3   OH228624   2.407   1.347   2.828  0.0259 -0.5524  0.0075
 2378TIP3    H128625   2.425   1.298   2.909 -1.6766 -1.1409  0.0480
 2378TIP3    H228626   2.487   1.337   2.776  0.2972 -2.0685  0.6851
 2379TIP3   OH228627   4.562   4.823  12.313 -0.0214 -0.0867  0.8306
 2379TIP3    H128628   4.563   4.918  12.319 -0.3544 -0.0861  0.8792
 2379TIP3    H228629   4.636   4.802  12.255  1.5170  0.0516  2.6793
 2380TIP3   OH228630   2.437   5.245  16.888 -0.3808  0.1459  0.3780
 2380TIP3    H128631   2.450   5.158  16.925  2.9084  0.2408 -0.3893
 2380TIP3    H228632   2.435   5.231  16.793 -0.3204  0.8474  0.2656
 2381TIP3   OH228633   3.246   3.712   3.685  0.4736 -0.4377  0.0671
 2381TIP3    H128634   3.228   3.639   3.743 -1.2024 -0.9395 -1.0680
 2381TIP3    H228635   3.319   3.682   3.630  0.9720 -0.5630  0.7853
 2382TIP3   OH228636   0.369   3.068  11.992 -0.1311 -0.1444 -0.0697
 2382TIP3    H128637   0.389   3.062  12.085 -1.3915 -0.1252  0.2144
 2382TIP3    H228638   0.453   3.081  11.950  0.2157  2.2810  1.2946
 2383TIP3   OH228639   2.973   5.588   5.830 -0.2091  0.4764  0.6755
 2383TIP3    H128640   2.954   5.653   5.762 -0.3280  0.7151  0.9377
 2383TIP3    H228641   2.994   5.508   5.781  1.1886  1.0534  0.3315
 2384TIP3   OH228642   5.671   3.061  15.084  0.2754  0.7612 -0.2676
 2384TIP3    H128643   5.585   3.021  15.092  1.0469 -0.5290  2.2567
 2384TIP3    H228644   5.703   3.068  15.174  2.7421  1.3447 -1.1341
 2385TIP3   OH228645   4.449   1.685  16.381 -0.0535  0.7562 -0.1644
 2385TIP3    H128646   4.375   1.693  16.320  1.3816  0.4474 -1.9725
 2385TIP3    H228647   4.452   1.592  16.402  0.7252  0.5184 -1.2733
 2386TIP3   OH228648   2.591   6.670  14.546 -0.6191  0.3527 -0.4027
 2386TIP3    H128649   2.666   6.714  14.507 -1.2138  0.7285 -1.1336
 2386TIP3    H228650   2.523   6.673  14.478 -1.2042 -0.2271  0.1461
 2387TIP3   OH228651   4.728   5.409  13.520 -0.2738  0.0912 -0.1704
 2387TIP3    H128652   4.753   5.378  13.433 -2.8583 -0.1147 -0.8830
 2387TIP3    H228653   4.781   5.357  13.580  2.5784  1.2327 -1.6285
 2388TIP3   OH228654   4.672   5.520   2.065  0.1203 -0.3773  0.1616
 2388TIP3    H128655   4.680   5.608   2.102 -0.7636 -0.7641  1.3090
 2388TIP3    H228656   4.704   5.528   1.975  0.1154  1.0894  0.2850
 2389TIP3   OH228657   6.293   6.409   4.584 -0.5020 -0.4055 -0.2680
 2389TIP3    H128658   6.348   6.473   4.539 -1.0457 -1.1566 -2.0607
 2389TIP3    H228659   6.305   6.328   4.534  0.7118 -1.9115  2.3673
 2390TIP3   OH228660   2.998   2.477  13.278 -0.0005 -0.1359  0.0545
 2390TIP3    H128661   2.961   2.488  13.366 -0.6654 -3.2065  0.2009
 2390TIP3    H228662   2.921   2.468  13.221  0.4358 -2.0089 -0.2755
 2391TIP3   OH228663   1.037   3.970   0.200  0.0985 -0.0882  0.5451
 2391TIP3    H128664   1.028   3.879   0.228  2.7984 -0.3067  0.8036
 2391TIP3    H228665   1.108   4.005   0.253 -1.7800  2.5921  1.3748
 2392TIP3   OH228666   4.336   0.282  13.657 -0.4289  0.3284 -0.1658
 2392TIP3    H128667   4.392   0.208  13.631  0.4847  0.9310  0.0419
 2392TIP3    H228668   4.382   0.359  13.623  0.0494  1.0145  1.9873
 2393TIP3   OH228669   2.768   3.045  12.377  0.0655  0.4615  0.0050
 2393TIP3    H128670   2.845   3.083  12.419 -0.1354  1.4423 -0.5068
 2393TIP3    H228671   2.694   3.087  12.419 -0.2066 -0.5687  0.5783
 2394TIP3   OH228672   1.777   2.081  13.666 -0.2089  0.0433  0.0193
 2394TIP3    H128673   1.772   1.991  13.635  0.6494  0.1184 -0.3432
 2394TIP3    H228674   1.782   2.134  13.587  2.6049  0.1949  0.2647
 2395TIP3   OH228675   6.297   3.450  16.902 -0.0870  0.0078  0.4362
 2395TIP3    H128676   6.384   3.456  16.863 -0.0781 -0.3325  0.4006
 2395TIP3    H228677   6.296   3.364  16.944 -1.4162 -1.2446 -2.0549
 2396TIP3   OH228678   5.534   5.221  16.129 -0.0742 -0.3614  0.7643
 2396TIP3    H128679   5.611   5.165  16.131 -0.0100 -0.2339  2.4557
 2396TIP3    H228680   5.555   5.293  16.188  0.1893  1.9355 -1.9834
 2397TIP3   OH228681   4.872   1.369  13.741 -0.2230 -0.5135  0.4471
 2397TIP3    H128682   4.955   1.330  13.715  0.5247  1.1657  0.2645
 2397TIP3    H228683   4.838   1.310  13.809  1.2842 -1.0116  0.7828
 2398TIP3   OH228684   3.355   5.848  11.800 -0.4702 -0.0885  0.3154
 2398TIP3    H128685   3.373   5.925  11.853  0.4066  1.1648 -1.7228
 2398TIP3    H228686   3.441   5.810  11.783 -1.0348 -2.5826  2.8048
 2399TIP3   OH228687   6.479   6.624   5.701 -0.3194  0.2674 -0.0251
 2399TIP3    H128688   6.551   6.646   5.642  0.1978 -0.9392  0.1438
 2399TIP3    H228689   6.402   6.623   5.645  0.1927 -1.0356 -0.7171
 2400TIP3   OH228690   6.727   1.004   3.082  0.0973  0.2629  1.0396
 2400TIP3    H128691   6.652   1.030   3.135  0.8053  0.4633  1.9403
 2400TIP3    H228692   6.689   0.951   3.011 -0.8416 -0.0032  1.7402
 2401TIP3   OH228693   1.616   2.314  11.528  0.2336 -0.0590  0.4714
 2401TIP3    H128694   1.534   2.314  11.479  0.0964  1.3086  0.6914
 2401TIP3    H228695   1.592   2.278  11.614 -0.3353  1.1637  0.8376
 2402TIP3   OH228696   5.719   1.256  15.237  0.0670  0.0854  0.4759
 2402TIP3    H128697   5.729   1.322  15.168  1.8632 -1.4952 -0.8514
 2402TIP3    H228698   5.795   1.270  15.294 -0.4593  0.2549  1.1281
 2403TIP3   OH228699   3.009   2.974   1.720 -0.0247  0.0574  0.5836
 2403TIP3    H128700   3.099   2.970   1.686 -0.0648  2.9447 -0.0226
 2403TIP3    H228701   2.984   2.883   1.731  1.7350 -0.9215 -2.6236
 2404TIP3   OH228702   3.733   5.039   3.063 -0.4059 -0.4108 -0.3730
 2404TIP3    H128703   3.753   5.023   3.155  1.2687 -1.4506 -0.8795
 2404TIP3    H228704   3.759   5.131   3.049 -0.2508 -0.3797  0.0937
 2405TIP3   OH228705   2.556   3.791   0.588  0.7227  0.1383 -0.2210
 2405TIP3    H128706   2.469   3.827   0.570  0.8010  0.6403  0.4028
 2405TIP3    H228707   2.552   3.762   0.679  1.7655  1.8229  0.3840
 2406TIP3   OH228708   1.263   3.210  14.515 -0.1162 -0.4712  0.0771
 2406TIP3    H128709   1.240   3.120  14.536 -1.5152  0.0883  1.0187
 2406TIP3    H228710   1.233   3.261  14.590  0.9728  0.7439 -0.2894
 2407TIP3   OH228711   5.338   0.183   1.758  0.3448  0.3574 -0.2825
 2407TIP3    H128712   5.389   0.208   1.835 -0.0659  0.3408  0.0009
 2407TIP3    H228713   5.297   0.100   1.783  2.3762 -1.0575 -1.5322
 2408TIP3   OH228714   2.678   5.419  11.833  0.2410 -0.0866 -0.2876
 2408TIP3    H128715   2.679   5.491  11.896  0.9184  0.3122 -0.7433
 2408TIP3    H228716   2.670   5.461  11.748 -0.2926 -0.6042 -0.4925
 2409TIP3   OH228717   2.858   4.226  14.589  0.1268 -0.0397  0.6719
 2409TIP3    H128718   2.903   4.172  14.525 -1.8886  0.2042 -0.9953
 2409TIP3    H228719   2.846   4.169  14.665  2.0423 -0.4926  0.6742
 2410TIP3   OH228720   5.388   0.384  12.290 -0.2584 -0.2005 -0.7631
 2410TIP3    H128721   5.348   0.346  12.369 -2.4080  0.4589 -1.5060
 2410TIP3    H228722   5.364   0.477  12.294  1.2714  0.2165 -1.2064
 2411TIP3   OH228723   6.548   3.387  11.453  0.8138  0.3048 -0.1114
 2411TIP3    H128724   6.492   3.407  11.378 -1.5325  0.2685  1.6029
 2411TIP3    H228725   6.551   3.291  11.456  0.1989  0.2964  0.3421
 2412TIP3   OH228726   5.457   2.343   5.580  0.0651 -0.3671 -0.4842
 2412TIP3    H128727   5.448   2.248   5.589  3.1193 -0.7672 -1.1259
 2412TIP3    H228728   5.550   2.360   5.597 -0.4556  2.5309 -0.2587
 2413TIP3   OH228729   4.508   3.284  11.019  0.3983 -0.8384 -0.1738
 2413TIP3    H128730   4.583   3.287  11.079  1.4504 -0.1213 -1.5167
 2413TIP3    H228731   4.467   3.199  11.036  1.2127 -1.0217  0.9140
 2414TIP3   OH228732   2.389   2.230   0.243 -0.2970 -0.1341  0.0271
 2414TIP3    H128733   2.302   2.190   0.231 -0.0194 -0.2556 -1.6876
 2414TIP3    H228734   2.385   2.312   0.196  0.8673 -0.6372 -0.9665
 2415TIP3   OH228735   1.257   3.110   0.853  0.1987  0.3184 -0.5738
 2415TIP3    H128736   1.340   3.063   0.845 -0.5872 -1.0929 -0.5077
 2415TIP3    H228737   1.195   3.044   0.883 -0.5674  1.7673  1.1133
 2416TIP3   OH228738   0.488   6.051  15.998  0.4812  0.2254  0.2314
 2416TIP3    H128739   0.499   6.114  15.928 -0.9314  1.3396  0.9789
 2416TIP3    H228740   0.409   6.080  16.044  0.6048 -1.2747  1.4330
 2417TIP3   OH228741   1.622   0.486   1.919 -0.4578  0.0878 -0.0509
 2417TIP3    H128742   1.626   0.438   2.002  0.1490  1.2150  0.5907
 2417TIP3    H228743   1.660   0.572   1.940  0.8379 -0.0450 -1.7938
 2418TIP3   OH228744   2.690   0.899  15.477  0.4663  0.6003  0.0907
 2418TIP3    H128745   2.629   0.955  15.526  2.6480  1.9751  1.3271
 2418TIP3    H228746   2.635   0.833  15.436 -1.7862  1.4520  1.6648
 2419TIP3   OH228747   4.357   1.410   5.913  0.4906 -0.4891  0.0353
 2419TIP3    H128748   4.420   1.337   5.911 -0.6300 -1.4452 -0.6109
 2419TIP3    H228749   4.368   1.448   6.000 -0.2885 -2.6504  1.1007
 2420TIP3   OH228750   1.217   3.365   5.062 -0.1705 -0.2029  0.1143
 2420TIP3    H128751   1.309   3.363   5.033 -0.5166  0.0700 -1.0493
 2420TIP3    H228752   1.220   3.335   5.153  1.0379 -0.5232 -0.0138
 2421TIP3   OH228753   2.942   3.540  13.766  0.1946  0.3810  0.2745
 2421TIP3    H128754   2.939   3.633  13.788  0.4588  0.7192 -1.0536
 2421TIP3    H228755   2.999   3.501  13.832  0.9542  1.3488  0.1930
 2422TIP3   OH228756   0.876   3.854  11.956  0.2403 -0.2618 -0.3615
 2422TIP3    H128757   0.920   3.860  11.871  0.7801  0.4287 -0.0436
 2422TIP3    H228758   0.901   3.935  12.002  0.3301 -0.8381  0.6277
 2423TIP3   OH228759   6.276   0.789  13.041 -0.7124  0.0022  0.6010
 2423TIP3    H128760   6.278   0.740  13.123  0.6601  1.1874  1.2806
 2423TIP3    H228761   6.366   0.816  13.026 -1.1656  0.8783 -0.6447
 2424TIP3   OH228762   0.639   3.243   4.532  0.1665 -0.1175 -0.0667
 2424TIP3    H128763   0.663   3.289   4.451 -0.5207 -0.0638 -0.2461
 2424TIP3    H228764   0.599   3.161   4.502  1.6759 -0.9844  0.2602
 2425TIP3   OH228765   4.776   2.013  16.586 -0.6834 -0.6105 -0.0475
 2425TIP3    H128766   4.829   2.052  16.516 -1.5834  2.7938  1.0551
 2425TIP3    H228767   4.714   1.957  16.540 -0.5238  0.6910 -1.9170
 2426TIP3   OH228768   1.126   3.748  15.075 -0.1007 -0.1000 -0.1615
 2426TIP3    H128769   1.145   3.821  15.015 -0.5499  0.1746  0.0326
 2426TIP3    H228770   1.097   3.790  15.156  0.8871 -0.4650  0.3879
 2427TIP3   OH228771   3.586   1.528  16.203  0.4006 -0.8024 -0.4254
 2427TIP3    H128772   3.506   1.561  16.163 -1.0963 -2.8385  0.7960
 2427TIP3    H228773   3.645   1.510  16.130 -1.7375 -3.0887 -1.6118
 2428TIP3   OH228774   3.317   0.635   2.288 -0.0297  0.4723  0.1597
 2428TIP3    H128775   3.355   0.622   2.201 -2.8275 -2.9162 -0.6888
 2428TIP3    H228776   3.235   0.586   2.285 -0.8192  1.3887  4.3191
 2429TIP3   OH228777   5.020   4.416  12.387 -0.1519 -0.2434  0.4843
 2429TIP3    H128778   4.960   4.344  12.367  0.2116 -0.1614 -0.9812
 2429TIP3    H228779   5.107   4.381  12.368  0.1497  0.0843  1.2650
 2430TIP3   OH228780   2.107   3.129   2.157 -0.4248  0.0520  0.1862
 2430TIP3    H128781   2.152   3.190   2.216 -0.5061  1.1021 -0.8213
 2430TIP3    H228782   2.018   3.163   2.151  0.3712  1.7933 -2.9652
 2431TIP3   OH228783   3.111   4.069   4.381  0.5873 -0.3928  0.2395
 2431TIP3    H128784   3.184   4.040   4.327  0.7838  0.8163 -0.1721
 2431TIP3    H228785   3.134   4.041   4.469  0.0133 -2.8528 -0.3493
 2432TIP3   OH228786   6.316   1.848   1.702 -0.1724 -0.1124 -0.4502
 2432TIP3    H128787   6.231   1.817   1.733 -0.2135  0.4257 -0.0233
 2432TIP3    H228788   6.322   1.817   1.611 -1.1380  0.5053 -0.7235
 2433TIP3   OH228789   3.505   2.232   2.110  0.8386 -0.1034 -1.1434
 2433TIP3    H128790   3.598   2.235   2.085  1.6285  0.4271  1.7030
 2433TIP3    H228791   3.488   2.139   2.127  1.5989  0.0809  0.8294
 2434TIP3   OH228792   0.693   2.533  16.490  0.0077 -0.4035 -0.6884
 2434TIP3    H128793   0.772   2.478  16.497 -0.1918 -0.6480 -0.3109
 2434TIP3    H228794   0.621   2.470  16.488 -0.2668 -0.1471  0.4114
 2435TIP3   OH228795   3.078   4.096  14.983  0.2807 -0.7466  0.0057
 2435TIP3    H128796   3.102   4.033  15.052 -2.2991 -0.8775  0.8544
 2435TIP3    H228797   3.160   4.115  14.938  1.8049 -1.6714  2.2932
 2436TIP3   OH228798   4.830   2.019   4.003  0.2055  0.2821 -0.4398
 2436TIP3    H128799   4.925   2.010   4.006  0.3475  1.3800 -1.5141
 2436TIP3    H228800   4.799   1.935   3.969  0.8576  0.2683 -1.0196
 2437TIP3   OH228801   3.933   3.269  15.107 -0.1391  0.3170  0.7181
 2437TIP3    H128802   3.967   3.195  15.156 -1.0228  0.2853  1.2931
 2437TIP3    H228803   3.957   3.346  15.159  2.9023  0.6478 -1.0805
 2438TIP3   OH228804   0.015   2.994   3.835 -0.4382 -0.1090  0.3764
 2438TIP3    H128805   0.003   3.046   3.915 -2.9671 -0.7850  0.5074
 2438TIP3    H228806   0.109   2.984   3.825 -0.0611  1.2056  2.4956
 2439TIP3   OH228807   1.302   4.991   2.385  0.1749  0.2948  0.3614
 2439TIP3    H128808   1.292   5.079   2.349  1.4443  1.4938  2.8005
 2439TIP3    H228809   1.395   4.971   2.374  0.0098 -0.4993  0.3764
 2440TIP3   OH228810   0.947   1.780  16.657 -0.5124 -0.1061  0.2498
 2440TIP3    H128811   1.023   1.805  16.605 -1.8760  0.2990 -1.6110
 2440TIP3    H228812   0.974   1.699  16.701  1.1401  0.2892 -0.0000
 2441TIP3   OH228813   0.374   2.766  12.308  0.2148  0.2557  0.9969
 2441TIP3    H128814   0.380   2.845  12.254  0.3843 -0.0879  0.5098
 2441TIP3    H228815   0.458   2.722  12.294 -0.2446 -0.4706  0.5588
 2442TIP3   OH228816   6.378   5.913   2.804 -0.0400 -0.2758  0.0848
 2442TIP3    H128817   6.296   5.963   2.801  0.4934  0.5634 -0.9990
 2442TIP3    H228818   6.385   5.883   2.894 -1.3041  0.0581  0.3022
 2443TIP3   OH228819   2.690   5.032  16.753 -0.1199  0.0693 -0.1636
 2443TIP3    H128820   2.662   4.985  16.674 -0.5502  1.9243 -1.1433
 2443TIP3    H228821   2.655   4.980  16.825  0.8660 -2.0342 -1.1391
 2444TIP3   OH228822   1.786   3.197   0.337 -0.1199 -0.1751 -0.6602
 2444TIP3    H128823   1.880   3.211   0.347 -0.0901 -0.9519  0.2930
 2444TIP3    H228824   1.746   3.271   0.383  0.0358 -1.4790  1.6717
 2445TIP3   OH228825   6.454   4.744   4.223 -0.7624  0.3789  0.1922
 2445TIP3    H128826   6.418   4.720   4.137 -0.5264 -0.6360  0.3732
 2445TIP3    H228827   6.398   4.698   4.286  1.0772 -1.5589  0.4650
 2446TIP3   OH228828   3.083   6.559  12.460 -0.0865 -0.6321  0.2332
 2446TIP3    H128829   3.120   6.588  12.544 -0.6279 -0.7760  0.5215
 2446TIP3    H228830   2.999   6.605  12.454 -0.1305 -0.7621 -0.1478
 2447TIP3   OH228831   3.773   0.467  16.498  0.3884  0.3470  0.0399
 2447TIP3    H128832   3.693   0.516  16.478  0.9508  1.4050  0.3398
 2447TIP3    H228833   3.843   0.530  16.485  1.0810 -0.2166  1.0202
 2448TIP3   OH228834   4.960   1.421   2.060  0.2055 -0.3476 -0.1254
 2448TIP3    H128835   4.887   1.477   2.087 -0.0193 -0.5033 -0.4055
 2448TIP3    H228836   4.950   1.341   2.113  0.2858 -0.2881 -0.0214
 2449TIP3   OH228837   5.266   4.296  11.622 -0.3573 -0.6942 -0.0451
 2449TIP3    H128838   5.229   4.246  11.550  0.8900 -0.6706 -0.7123
 2449TIP3    H228839   5.329   4.355  11.581 -0.1026 -0.2247  0.9925
 2450TIP3   OH228840   4.995   4.982   0.579  0.6831 -0.0352 -0.1345
 2450TIP3    H128841   4.925   4.942   0.631  0.6226  0.9992  0.5913
 2450TIP3    H228842   5.020   5.061   0.628  2.4447 -0.4527 -0.3142
 2451TIP3   OH228843   0.641   0.344   2.492  0.3041  0.5255  0.1986
 2451TIP3    H128844   0.653   0.432   2.458  0.1221 -0.0120 -1.2610
 2451TIP3    H228845   0.554   0.345   2.533 -0.4138  0.5516 -1.3019
 2452TIP3   OH228846   5.712   2.493  12.117 -0.6250 -0.4545 -0.0582
 2452TIP3    H128847   5.771   2.493  12.041 -0.5105 -2.2182  0.0137
 2452TIP3    H228848   5.631   2.534  12.084  0.1015  0.5735 -0.5797
 2453TIP3   OH228849   0.139   3.885  14.784 -0.5001 -0.5979 -0.1706
 2453TIP3    H128850   0.055   3.872  14.828  0.1498  0.3514  1.4098
 2453TIP3    H228851   0.173   3.797  14.770 -1.1258 -0.9451  0.4430
 2454TIP3   OH228852   6.695   3.400   1.824  0.0095 -0.3122 -0.4592
 2454TIP3    H128853   6.783   3.383   1.858  0.6637  0.5333 -1.7001
 2454TIP3    H228854   6.705   3.394   1.729 -1.4954 -1.2360 -0.5838
 2455TIP3   OH228855   5.539   2.625   0.800 -0.0767  0.6623  0.0116
 2455TIP3    H128856   5.495   2.704   0.829 -0.1244  0.5401  0.2760
 2455TIP3    H228857   5.481   2.554   0.827  1.8962  0.2511  3.5104
 2456TIP3   OH228858   3.981   3.416   6.506 -0.9794 -0.8957 -0.0886
 2456TIP3    H128859   3.987   3.321   6.497  1.7201 -0.9605  1.8113
 2456TIP3    H228860   3.947   3.430   6.594  0.3927 -0.0956  0.3293
 2457TIP3   OH228861   0.522   2.104  13.331  0.0946  0.4208  0.4963
 2457TIP3    H128862   0.476   2.096  13.247  1.0431 -0.9263  0.0817
 2457TIP3    H228863   0.512   2.196  13.355 -0.6718  0.7015 -0.8206
 2458TIP3   OH228864   5.762   6.722   0.092  0.2860 -0.2860 -0.3175
 2458TIP3    H128865   5.806   6.806   0.076 -1.7004  0.6804 -0.8187
 2458TIP3    H228866   5.717   6.735   0.175  3.2955 -2.2819  1.7305
 2459TIP3   OH228867   0.803   3.549  16.684  0.2090 -0.6913  0.3233
 2459TIP3    H128868   0.783   3.470  16.734  1.9283 -0.8354  0.8330
 2459TIP3    H228869   0.898   3.555  16.687  0.2020  0.3964 -1.2800
 2460TIP3   OH228870   5.822   3.407   5.956  0.0259  0.9378 -0.2843
 2460TIP3    H128871   5.901   3.461   5.960  1.2297 -0.5540 -2.4886
 2460TIP3    H228872   5.788   3.408   6.045  2.9568  0.9980  0.9122
 2461TIP3   OH228873   6.515   1.994   0.488  0.1744  0.1355  0.2346
 2461TIP3    H128874   6.507   1.908   0.447 -0.0820  0.8070 -1.1287
 2461TIP3    H228875   6.502   2.057   0.417  0.4763  1.3090  1.1928
 2462TIP3   OH228876   2.591   2.463   2.701 -0.0543  0.5980 -0.1042
 2462TIP3    H128877   2.660   2.457   2.768 -2.2421 -1.0639  2.0876
 2462TIP3    H228878   2.616   2.397   2.636 -0.8451 -1.8111  1.9568
 2463TIP3   OH228879   0.713   3.795  16.591  0.1587 -0.2477 -0.1024
 2463TIP3    H128880   0.752   3.723  16.640 -0.6358  0.2737  1.3415
 2463TIP3    H228881   0.645   3.829  16.649 -1.3411 -0.0963 -1.8934
 2464TIP3   OH228882   0.969   6.738  11.813 -0.3802  0.1537 -0.0613
 2464TIP3    H128883   0.895   6.719  11.755 -0.5511  2.5196 -0.6487
 2464TIP3    H228884   1.022   6.801  11.765  1.7509 -1.0806  0.5996
 2465TIP3   OH228885   3.459   3.009  16.356 -0.3826 -0.4133 -0.7855
 2465TIP3    H128886   3.415   3.053  16.429  0.2011 -1.9620  0.5080
 2465TIP3    H228887   3.506   2.936  16.396  2.2430  0.3650 -2.3393
 2466TIP3   OH228888   6.211   5.025   3.510 -0.1445  0.1059  0.2573
 2466TIP3    H128889   6.239   4.940   3.476 -0.8624 -0.0267 -0.0088
 2466TIP3    H228890   6.287   5.082   3.498  0.5919 -0.6729  1.1002
 2467TIP3   OH228891   6.599   4.711   0.690  0.7069  0.0815 -0.3204
 2467TIP3    H128892   6.568   4.753   0.770 -0.2942 -0.2830 -0.5035
 2467TIP3    H228893   6.693   4.727   0.689  0.6971  0.2621  0.8265
 2468TIP3   OH228894   5.839   1.027   3.911 -0.2816 -0.5524 -0.4046
 2468TIP3    H128895   5.890   1.025   3.992 -0.6517 -0.1322 -0.1584
 2468TIP3    H228896   5.800   0.940   3.906  0.5856 -0.9370 -0.6837
 2469TIP3   OH228897   1.852   4.430  12.932  0.3114  0.2467 -0.1444
 2469TIP3    H128898   1.773   4.478  12.955  0.1161 -0.3611  0.4708
 2469TIP3    H228899   1.847   4.419  12.837 -0.2759  0.3142 -0.1218
 2470TIP3   OH228900   1.831   5.414  12.699 -0.4365 -0.3083 -0.3750
 2470TIP3    H128901   1.817   5.446  12.610 -0.9213  2.2876  0.5816
 2470TIP3    H228902   1.873   5.488  12.744 -1.6470 -0.9960  1.9604
 2471TIP3   OH228903   6.522   6.406  17.106  0.3697 -0.3212 -0.0943
 2471TIP3    H128904   6.495   6.490  17.069  0.7723 -0.5987 -1.0364
 2471TIP3    H228905   6.440   6.366  17.136  0.0608 -0.0081 -0.5181
 2472TIP3   OH228906   3.553   4.874   3.468  0.4455  0.4741  1.0881
 2472TIP3    H128907   3.615   4.804   3.487 -1.0616 -1.1569  0.1885
 2472TIP3    H228908   3.536   4.866   3.374 -1.8137  0.2748  1.4766
 2473TIP3   OH228909   0.341   2.411   6.494 -0.2738 -0.0812  0.0170
 2473TIP3    H128910   0.398   2.487   6.500 -0.3934 -0.1409  2.3663
 2473TIP3    H228911   0.396   2.337   6.518 -1.4456 -0.0450  3.0777
 2474TIP3   OH228912   3.094   3.341  16.732 -0.1980  0.1007  0.6524
 2474TIP3    H128913   3.020   3.283  16.750  0.0419 -0.3667  0.1483
 2474TIP3    H228914   3.170   3.295  16.767  0.3425 -1.0454 -1.9692
 2475TIP3   OH228915   0.816   5.754  11.568 -0.5085 -0.0833  0.0192
 2475TIP3    H128916   0.809   5.740  11.662  1.4586  1.5846  0.4602
 2475TIP3    H228917   0.733   5.792  11.543 -0.2410  1.5137  1.4892
 2476TIP3   OH228918   1.438   1.642  16.650 -0.7710  0.1506  0.2721
 2476TIP3    H128919   1.461   1.550  16.656 -1.3862  0.0278  0.7622
 2476TIP3    H228920   1.494   1.685  16.715  0.7852  0.3758 -1.1751
 2477TIP3   OH228921   5.885   1.070   5.216 -0.2310  0.1612 -0.2284
 2477TIP3    H128922   5.942   1.006   5.173 -0.7810  0.4887 -1.4843
 2477TIP3    H228923   5.942   1.116   5.277  0.9080  0.5863 -1.5739
 2478TIP3   OH228924   0.109   6.318  11.875  0.7036 -0.5561 -0.0123
 2478TIP3    H128925   0.119   6.236  11.828 -0.2299 -0.3996 -0.5083
 2478TIP3    H228926   0.020   6.347  11.854  1.1050  0.7053 -0.0450
 2479TIP3   OH228927   4.319   5.886  16.429 -0.3550 -0.0462 -0.6170
 2479TIP3    H128928   4.344   5.977  16.416 -3.6968  1.1661  0.8333
 2479TIP3    H228929   4.339   5.868  16.520  1.5893 -1.2600 -1.2468
 2480TIP3   OH228930   4.208   1.459   3.250  0.2493  0.0196 -0.4737
 2480TIP3    H128931   4.138   1.513   3.287  1.6525  1.9646 -0.6091
 2480TIP3    H228932   4.176   1.432   3.164 -1.0809 -0.6518  0.2145
 2481TIP3   OH228933   0.244   5.307   0.581 -0.4574 -0.0985 -0.1605
 2481TIP3    H128934   0.292   5.290   0.662 -1.0799 -2.6630 -0.3070
 2481TIP3    H228935   0.154   5.319   0.609 -0.3398  1.1423 -0.2751
 2482TIP3   OH228936   4.124   5.089   0.181 -0.2453 -0.0196  0.2145
 2482TIP3    H128937   4.208   5.044   0.175  0.3371  1.0454  0.4534
 2482TIP3    H228938   4.065   5.023   0.217  0.3769 -0.9082 -0.3649
 2483TIP3   OH228939   2.052   5.555  11.672  0.0955 -1.3266 -0.3068
 2483TIP3    H128940   2.101   5.637  11.667 -0.7689 -0.8643 -1.5885
 2483TIP3    H228941   2.075   5.518  11.757  0.6647  0.1468  0.1998
 2484TIP3   OH228942   4.288   1.427   4.821  0.2484  0.3245 -0.1101
 2484TIP3    H128943   4.241   1.480   4.885  0.5551 -1.2867  1.4887
 2484TIP3    H228944   4.378   1.460   4.824  0.5571 -0.5806  1.2580
 2485TIP3   OH228945   3.413   4.590  16.817 -0.3794 -0.4299  0.5247
 2485TIP3    H128946   3.363   4.602  16.897  0.3028 -1.7947  1.1738
 2485TIP3    H228947   3.504   4.611  16.841 -0.5061  1.4094 -0.4805
 2486TIP3   OH228948   5.738   2.762   1.066  0.0329 -0.1873 -0.2590
 2486TIP3    H128949   5.685   2.840   1.081 -0.3154 -0.4466 -0.1407
 2486TIP3    H228950   5.798   2.786   0.995  1.6038  1.0259  1.4161
 2487TIP3   OH228951   2.493   1.470  13.929 -0.9501  0.1614 -0.0090
 2487TIP3    H128952   2.428   1.516  13.877 -0.8311 -1.5261 -1.6937
 2487TIP3    H228953   2.443   1.401  13.973 -0.7533  0.5362  0.8157
 2488TIP3   OH228954   5.205   6.153   6.821 -0.3085 -0.2174 -0.3663
 2488TIP3    H128955   5.294   6.120   6.828  0.4332  1.9262  0.6923
 2488TIP3    H228956   5.150   6.076   6.828  1.4729 -1.6730 -1.8890
 2489TIP3   OH228957   2.034   3.649   4.113  1.1128  0.4098  0.2341
 2489TIP3    H128958   1.969   3.598   4.064  0.9959  2.2712 -1.6183
 2489TIP3    H228959   2.001   3.739   4.108  2.9482  1.1179  0.7408
 2490TIP3   OH228960   5.520   0.780  16.473  0.1534  0.5628 -0.1698
 2490TIP3    H128961   5.459   0.711  16.499  1.0389 -1.1258 -2.3611
 2490TIP3    H228962   5.508   0.849  16.538 -1.8256 -1.0392  1.2281
 2491TIP3   OH228963   4.593   2.628   5.800 -0.3329 -0.2157 -0.4909
 2491TIP3    H128964   4.576   2.557   5.863  0.1154 -0.5441 -0.7384
 2491TIP3    H228965   4.675   2.603   5.757  1.0548  1.5655  1.0039
 2492TIP3   OH228966   6.184   0.899  15.378  0.3797 -0.6541  0.3714
 2492TIP3    H128967   6.269   0.914  15.336  0.3327  1.8941  1.1250
 2492TIP3    H228968   6.192   0.939  15.464 -1.7565  0.0454  0.2649
 2493TIP3   OH228969   2.734   2.102  13.780  0.5506 -0.7207 -0.1128
 2493TIP3    H128970   2.745   2.048  13.702  0.3941  0.2444 -0.8106
 2493TIP3    H228971   2.687   2.046  13.842  0.0331 -1.2460 -0.9689
 2494TIP3   OH228972   5.480   5.256   1.363 -0.1769 -0.2230 -0.3494
 2494TIP3    H128973   5.523   5.292   1.285  1.5102 -2.1172 -0.3377
 2494TIP3    H228974   5.415   5.195   1.328 -0.2519 -0.1648 -0.3108
 2495TIP3   OH228975   4.330   1.325   2.533 -0.0735 -0.2274 -0.5978
 2495TIP3    H128976   4.330   1.419   2.515 -2.0665  0.0512  0.7161
 2495TIP3    H228977   4.400   1.290   2.478  3.5087  2.5809  1.9341
 2496TIP3   OH228978   2.037   6.466  11.772  0.1084  0.6339  0.5993
 2496TIP3    H128979   2.003   6.555  11.762 -0.7776  0.2875  0.5121
 2496TIP3    H228980   2.016   6.423  11.690  1.8939  0.7765  0.0409
 2497TIP3   OH228981   0.583   2.072   1.136  0.9851 -0.4079  0.3085
 2497TIP3    H128982   0.607   2.121   1.215  1.7381 -0.2860  0.0032
 2497TIP3    H228983   0.560   2.140   1.072 -0.5130 -0.5296  0.7000
 2498TIP3   OH228984   1.278   3.031  12.570  0.1442  0.7495 -0.2501
 2498TIP3    H128985   1.264   3.125  12.558 -0.1649  0.6976 -0.3073
 2498TIP3    H228986   1.297   3.021  12.663  2.2464  1.1206 -0.6311
 2499TIP3   OH228987   6.379   4.127  13.535  0.0245  0.7017 -0.5740
 2499TIP3    H128988   6.356   4.203  13.482 -1.6740  0.1217 -0.7167
 2499TIP3    H228989   6.333   4.140  13.618 -0.1112 -0.0635 -0.5213
 2500TIP3   OH228990   2.715   4.411   3.606  0.0297  0.2188 -0.3240
 2500TIP3    H128991   2.721   4.326   3.650 -1.1621  0.4350  0.2742
 2500TIP3    H228992   2.803   4.426   3.570  0.6048 -0.6524  0.6976
 2501TIP3   OH228993   0.555   3.051   4.764 -0.0175 -0.0214 -0.0033
 2501TIP3    H128994   0.649   3.033   4.769  0.0354  0.2408 -0.0437
 2501TIP3    H228995   0.549   3.146   4.776 -0.2613 -0.0111 -0.2191
 2502TIP3   OH228996   1.541   0.828   0.029  0.1877  0.1091 -0.2301
 2502TIP3    H128997   1.447   0.828   0.045  0.2513 -0.0092  0.1646
 2502TIP3    H228998   1.562   0.917   0.002 -0.2419 -0.1866 -1.5700
 2503TIP3   OH228999   4.671   2.324   3.845 -0.1578 -0.2697 -0.5908
 2503TIP3    H129000   4.649   2.343   3.754 -1.4808  0.0416 -0.2118
 2503TIP3    H229001   4.659   2.408   3.890  0.2398 -0.4854 -0.0863
 2504TIP3   OH229002   5.181   6.651   4.256 -1.0209 -0.2031  0.2525
 2504TIP3    H129003   5.187   6.591   4.182  0.1401  1.4251 -1.0173
 2504TIP3    H229004   5.087   6.662   4.271 -1.3076  0.5904 -1.9458
 2505TIP3   OH229005   4.284   5.736  11.478  0.0351  0.2749 -0.2489
 2505TIP3    H129006   4.301   5.671  11.545  0.3979  2.3841  1.7656
 2505TIP3    H229007   4.255   5.685  11.402 -0.7419 -2.1250  1.6008
 2506TIP3   OH229008   1.305   0.774  12.339  0.3836  0.1372  0.1812
 2506TIP3    H129009   1.367   0.786  12.266 -0.3547  0.4546 -0.3934
 2506TIP3    H229010   1.268   0.861  12.354  0.5199  0.0695  0.9348
 2507TIP3   OH229011   1.208   5.432   2.600 -0.3705  0.3880  0.1598
 2507TIP3    H129012   1.128   5.424   2.547 -0.0700  0.9828 -0.3930
 2507TIP3    H229013   1.184   5.489   2.672 -0.2780  1.0955 -0.3587
 2508TIP3   OH229014   6.572   1.269   2.917  0.6344  0.4473  0.0239
 2508TIP3    H129015   6.624   1.188   2.920  2.5974  1.5665 -2.0653
 2508TIP3    H229016   6.540   1.272   2.827 -0.9744  1.0621  0.6160
 2509TIP3   OH229017   5.367   3.653   4.736 -0.7874  0.3631 -0.3548
 2509TIP3    H129018   5.297   3.705   4.775  1.6354  3.1263  0.4206
 2509TIP3    H229019   5.418   3.715   4.685 -1.1298 -2.3243 -4.2237
 2510TIP3   OH229020   6.265   0.689  13.303 -0.7038 -0.0358  0.1063
 2510TIP3    H129021   6.314   0.607  13.302 -1.8646 -0.7234 -0.9861
 2510TIP3    H229022   6.294   0.733  13.384  0.2920 -1.2761  0.4410
 2511TIP3   OH229023   2.166   4.707  12.225  0.0840  0.0060 -0.2329
 2511TIP3    H129024   2.180   4.629  12.278  1.6522  0.2211 -0.3253
 2511TIP3    H229025   2.074   4.700  12.197  0.1587 -1.6988 -0.1042
 2512TIP3   OH229026   6.111   5.436   1.207  0.5655  0.4053  0.1890
 2512TIP3    H129027   6.090   5.366   1.146 -0.4566  1.1793 -0.3532
 2512TIP3    H229028   6.175   5.397   1.267  0.8052 -0.6618 -0.7449
 2513TIP3   OH229029   5.470   2.100   4.904 -0.7523  0.0555 -0.4604
 2513TIP3    H129030   5.473   2.015   4.946 -0.3710  0.5959  0.6327
 2513TIP3    H229031   5.402   2.148   4.952  0.1983  0.9282  0.0511
 2514TIP3   OH229032   6.659   4.705  12.713 -0.8050 -0.0075 -0.1433
 2514TIP3    H129033   6.698   4.621  12.687 -2.2134 -0.4419 -0.9025
 2514TIP3    H229034   6.585   4.681  12.768 -0.9915  0.7536 -0.0563
 2515TIP3   OH229035   1.090   2.788   4.055 -0.0093 -0.6525 -0.0553
 2515TIP3    H129036   1.117   2.712   4.002 -0.6547  0.4170 -1.9810
 2515TIP3    H229037   1.010   2.819   4.013  0.9124  1.8470 -0.0829
 2516TIP3   OH229038   3.630   1.574  11.809 -0.1562 -0.3362 -0.1434
 2516TIP3    H129039   3.605   1.663  11.833  2.4747  0.1009  1.1350
 2516TIP3    H229040   3.644   1.578  11.714  0.6874  0.8034  0.0209
 2517TIP3   OH229041   3.475   4.253  17.050  0.2349  0.2356 -0.2267
 2517TIP3    H129042   3.537   4.315  17.087  0.5157 -0.9638  1.3845
 2517TIP3    H229043   3.474   4.180  17.111  0.4166 -1.6627 -2.4024
 2518TIP3   OH229044   0.200   5.766   3.601  0.1118  0.0022 -0.1983
 2518TIP3    H129045   0.228   5.688   3.553  0.2849  0.8578 -1.5187
 2518TIP3    H229046   0.209   5.837   3.538 -4.2007  0.4825 -0.4016
 2519TIP3   OH229047   5.211   4.486   2.233  0.0828  0.2023  0.0998
 2519TIP3    H129048   5.128   4.452   2.202  0.5881  0.5154 -1.6495
 2519TIP3    H229049   5.214   4.577   2.203 -0.0969  1.0386  2.4612
 2520TIP3   OH229050   0.417   1.763   2.938  0.2708 -0.5308  0.5702
 2520TIP3    H129051   0.397   1.728   3.025 -0.2563 -0.7068  0.3774
 2520TIP3    H229052   0.333   1.791   2.903  0.7220  1.3255  0.8821
 2521TIP3   OH229053   1.065   1.297   3.307 -0.6314 -0.0191 -0.1869
 2521TIP3    H129054   0.973   1.324   3.308 -0.6320 -0.0576  0.5680
 2521TIP3    H229055   1.110   1.371   3.266 -0.6926  0.9799  1.5160
 2522TIP3   OH229056   4.252   3.024   1.867 -0.1606 -0.4839  0.2089
 2522TIP3    H129057   4.344   2.998   1.864 -0.1229 -0.4620  1.1288
 2522TIP3    H229058   4.220   2.990   1.951 -0.9813 -0.4652 -0.0930
 2523TIP3   OH229059   1.476   1.423   5.241 -0.3211 -0.1665  0.0656
 2523TIP3    H129060   1.382   1.410   5.231 -0.0362 -2.4683 -0.0340
 2523TIP3    H229061   1.498   1.376   5.322  0.8139 -0.1738 -0.2308
 2524TIP3   OH229062   6.099   1.895   4.335 -0.7225 -0.4657 -0.4564
 2524TIP3    H129063   6.117   1.857   4.421 -1.9326  1.5589  0.7396
 2524TIP3    H229064   6.153   1.844   4.274  2.6438  0.1119  1.8901
 2525TIP3   OH229065   5.577   5.446  17.290  0.6310  0.5605 -0.4304
 2525TIP3    H129066   5.650   5.429  17.349  0.0673  0.4113  0.2237
 2525TIP3    H229067   5.617   5.444  17.202  1.3545  0.1761 -0.0991
 2526TIP3   OH229068   5.913   0.178  11.911 -0.9641  0.2873 -0.1212
 2526TIP3    H129069   5.847   0.108  11.909  0.4746 -1.0594 -1.6447
 2526TIP3    H229070   5.909   0.217  11.824 -0.9773  1.3624  0.3624
 2527TIP3   OH229071   1.407   2.973  11.978  0.2710  0.2138 -0.4698
 2527TIP3    H129072   1.477   3.013  11.925  0.0478  1.1190 -0.0970
 2527TIP3    H229073   1.441   2.887  12.001  2.1371  1.3784  1.3395
 2528TIP3   OH229074   3.389   4.402   5.656  0.1931  0.1144 -0.8957
 2528TIP3    H129075   3.317   4.448   5.614 -1.5340 -1.7296 -0.0759
 2528TIP3    H229076   3.456   4.396   5.589 -1.0138  0.5607 -2.1730
 2529TIP3   OH229077   0.773   0.574  13.555  0.5979 -0.4025  0.5960
 2529TIP3    H129078   0.796   0.482  13.571 -0.0655 -0.8587 -0.9059
 2529TIP3    H229079   0.821   0.596  13.475 -1.2540 -0.2384 -0.4981
 2530TIP3   OH229080   6.328   3.095   3.140  0.2106 -0.2858 -0.0538
 2530TIP3    H129081   6.336   3.176   3.091 -0.7699  0.2647  0.6829
 2530TIP3    H229082   6.234   3.080   3.149  0.3788 -1.4572 -0.1079
 2531TIP3   OH229083   5.355   2.511  12.092  0.0881  0.7200  0.1546
 2531TIP3    H129084   5.276   2.545  12.134  0.9986  0.6652  1.9585
 2531TIP3    H229085   5.388   2.585  12.040 -0.0371  1.3842  1.0092
 2532TIP3   OH229086   0.614   3.189  13.484  0.2298  0.4318 -0.3376
 2532TIP3    H129087   0.550   3.260  13.496  1.8984  1.8766  0.2004
 2532TIP3    H229088   0.699   3.232  13.490  1.2915 -1.7582  0.7488
 2533TIP3   OH229089   4.046   4.154  14.747 -0.8337 -0.2902  0.5222
 2533TIP3    H129090   4.022   4.202  14.668  1.0790  0.3011  0.2593
 2533TIP3    H229091   4.070   4.222  14.810  0.5460 -0.8261  0.6092
 2534TIP3   OH229092   0.315   5.501  16.792  0.2729  0.1637  0.6598
 2534TIP3    H129093   0.344   5.412  16.771 -0.3010  0.3875 -1.1276
 2534TIP3    H229094   0.231   5.489  16.837 -0.8557 -0.1119 -1.4871
 2535TIP3   OH229095   0.672   3.932   1.702  0.9753  0.7728  0.3621
 2535TIP3    H129096   0.594   3.877   1.709  1.2571  0.3949  0.5332
 2535TIP3    H229097   0.690   3.936   1.608  1.7294 -0.5335  0.4267
 2536TIP3   OH229098   3.901   2.471   3.757  0.3925 -0.5154  0.0344
 2536TIP3    H129099   3.925   2.492   3.847  0.5812  1.1218 -0.3740
 2536TIP3    H229100   3.892   2.557   3.714  0.0157 -1.2651 -1.4216
 2537TIP3   OH229101   5.568   4.193   5.442 -0.9045  0.3255 -0.2802
 2537TIP3    H129102   5.662   4.182   5.454 -1.4065  0.3940  4.5085
 2537TIP3    H229103   5.557   4.285   5.415  0.2834  0.6265  0.2694
 2538TIP3   OH229104   4.039   0.300  11.071 -0.2158 -0.4287  0.0831
 2538TIP3    H129105   4.070   0.222  11.024  1.3470 -0.0807  0.5021
 2538TIP3    H229106   4.101   0.369  11.046 -2.6304  1.1538 -1.6927
 2539TIP3   OH229107   2.182   0.084  10.672 -0.2614 -0.5166  0.5049
 2539TIP3    H129108   2.192   0.115  10.762 -2.4216 -0.0067  0.6116
 2539TIP3    H229109   2.136   0.156  10.627  2.3183 -0.0396 -1.4713
 2540TIP3   OH229110   2.631   5.577   2.315  0.4973 -0.4543  0.6013
 2540TIP3    H129111   2.683   5.656   2.307  0.4302 -0.5829 -1.5850
 2540TIP3    H229112   2.556   5.592   2.256 -0.3466 -1.4877  1.3904
 2541TIP3   OH229113   0.895   5.646   5.362  0.0991  0.7969 -0.2502
 2541TIP3    H129114   0.850   5.625   5.444  2.7909 -1.2617  0.7706
 2541TIP3    H229115   0.936   5.732   5.377  1.1925  0.0901  0.8473
 2542TIP3   OH229116   0.122   3.728   4.803  0.1920 -0.0628  0.5201
 2542TIP3    H129117   0.076   3.775   4.734 -0.2938  1.9985  2.1835
 2542TIP3    H229118   0.085   3.640   4.802 -1.1566  0.5138 -0.5709
 2543TIP3   OH229119   1.897   3.285   2.117 -0.0788  0.0154 -0.5236
 2543TIP3    H129120   1.952   3.333   2.055  0.0446 -0.3751 -0.7166
 2543TIP3    H229121   1.809   3.321   2.104  0.3863  1.7925  0.9162
 2544TIP3   OH229122   5.259   2.995   4.266 -0.1213 -0.2666  0.2570
 2544TIP3    H129123   5.274   3.056   4.194 -2.1038 -1.1114 -0.9245
 2544TIP3    H229124   5.164   2.988   4.273  0.0474 -2.3344  1.1065
 2545TIP3   OH229125   1.905   6.282   1.359  0.1421 -0.0092 -0.6119
 2545TIP3    H129126   1.934   6.222   1.290  0.1162  1.5934 -2.0254
 2545TIP3    H229127   1.982   6.337   1.377  0.5636 -1.2465  1.5668
 2546TIP3   OH229128   1.369   4.070  11.340 -0.2085  0.0352  0.1118
 2546TIP3    H129129   1.310   4.049  11.268  0.0538  0.2610 -0.1708
 2546TIP3    H229130   1.313   4.070  11.418 -0.8590  1.6854 -0.3466
 2547TIP3   OH229131   1.676   0.149   3.390  0.3470  0.1959 -0.4783
 2547TIP3    H129132   1.593   0.105   3.412  0.7151 -0.0294  0.4991
 2547TIP3    H229133   1.662   0.183   3.302 -0.1011 -1.5248 -1.0935
 2548TIP3   OH229134   1.094   3.916   5.722  0.5057 -0.2519 -0.4542
 2548TIP3    H129135   1.029   3.939   5.655 -0.7110  0.7411  1.0297
 2548TIP3    H229136   1.097   3.820   5.720 -2.2272 -0.4129  0.5211
 2549TIP3   OH229137   2.344   6.027   5.201 -0.1571 -0.3333 -0.0682
 2549TIP3    H129138   2.278   6.019   5.132 -1.6472 -0.5893  1.3464
 2549TIP3    H229139   2.367   6.120   5.202 -1.4719 -0.0004  0.2762
 2550TIP3   OH229140   6.281   2.419  16.379  0.0843 -0.7438  0.2429
 2550TIP3    H129141   6.348   2.395  16.314 -0.6300  1.1689 -1.2472
 2550TIP3    H229142   6.332   2.447  16.455  0.9838 -0.5306 -0.4177
 2551TIP3   OH229143   5.677   1.314   5.894 -0.1120  0.7312 -0.4528
 2551TIP3    H129144   5.615   1.254   5.934 -1.3169  1.0245 -1.8182
 2551TIP3    H229145   5.691   1.382   5.960  0.1251 -0.2663  0.5336
 2552TIP3   OH229146   2.992   0.104  15.216  0.2881 -0.1027 -0.1791
 2552TIP3    H129147   2.993   0.009  15.219  0.3090 -0.0987 -0.0625
 2552TIP3    H229148   2.948   0.125  15.134  0.3302 -0.2137 -0.2312
 2553TIP3   OH229149   1.165   0.714   4.902  0.0030 -0.0220  0.3245
 2553TIP3    H129150   1.213   0.688   4.980 -0.5344  0.4885  0.8211
 2553TIP3    H229151   1.153   0.632   4.854 -0.7834 -0.5473  1.3992
 2554TIP3   OH229152   1.790   1.229  14.886  0.4405 -0.1938  0.0563
 2554TIP3    H129153   1.861   1.242  14.823  1.3792 -0.3730  1.0570
 2554TIP3    H229154   1.825   1.263  14.968 -1.1416  0.9279  0.2654
 2555TIP3   OH229155   1.978   5.543  10.507 -0.7607 -0.0700 -0.4328
 2555TIP3    H129156   1.898   5.583  10.472  0.0647  1.3417 -0.7107
 2555TIP3    H229157   2.043   5.613  10.505  0.0674 -0.7835  1.2796
 2556TIP3   OH229158   1.651   0.215   1.551  0.2341 -0.0854 -0.1839
 2556TIP3    H129159   1.614   0.128   1.564  2.6551 -0.9090  1.5500
 2556TIP3    H229160   1.647   0.229   1.457 -1.3014 -1.5377 -0.3668
 2557TIP3   OH229161   0.970   3.743   0.361 -0.1517 -0.3818 -0.2142
 2557TIP3    H129162   0.911   3.673   0.388  1.2116 -1.8525 -0.9867
 2557TIP3    H229163   1.040   3.742   0.426 -0.5900  0.8723  0.2847
 2558TIP3   OH229164   4.743   5.013   4.395  0.5107 -0.1914 -0.0332
 2558TIP3    H129165   4.657   5.049   4.375  0.1350 -0.3163  1.3153
 2558TIP3    H229166   4.804   5.070   4.348 -0.1725  1.2709  0.8396
 2559TIP3   OH229167   0.971   4.520  15.812 -0.5126 -0.1534 -0.0139
 2559TIP3    H129168   0.924   4.489  15.735  0.6101  0.7145 -1.0694
 2559TIP3    H229169   0.961   4.449  15.876 -1.3800 -0.9254 -0.9836
 2560TIP3   OH229170   6.080   3.415  11.451  0.4035 -1.5038  0.1679
 2560TIP3    H129171   6.039   3.497  11.478 -0.4744 -1.4182 -1.3558
 2560TIP3    H229172   6.165   3.415  11.494 -0.0973 -0.3932  1.1922
 2561TIP3   OH229173   0.838   4.785   4.661 -0.0960  0.0274  0.1874
 2561TIP3    H129174   0.855   4.758   4.752  0.6156  1.8618  0.6139
 2561TIP3    H229175   0.862   4.878   4.658 -0.0562 -0.0204 -1.8977
 2562TIP3   OH229176   5.730   6.526   4.850  0.1203  0.4299 -0.1742
 2562TIP3    H129177   5.706   6.484   4.767  0.3766  0.2441 -0.1544
 2562TIP3    H229178   5.821   6.501   4.864 -0.3097 -0.6626  0.8301
 2563TIP3   OH229179   5.106   0.240   0.643 -0.2642 -0.1151  0.0160
 2563TIP3    H129180   5.142   0.250   0.731 -0.2189  1.6124 -0.1790
 2563TIP3    H229181   5.123   0.148   0.621 -0.8477 -0.7441  2.0327
 2564TIP3   OH229182   4.444   4.433  13.185 -0.3100  0.5015 -0.3309
 2564TIP3    H129183   4.538   4.448  13.189  0.2289 -2.6020 -0.7372
 2564TIP3    H229184   4.434   4.339  13.174 -3.4585  0.8247 -0.8562
 2565TIP3   OH229185   1.401   4.789   3.431  0.5195  0.1055 -0.4247
 2565TIP3    H129186   1.313   4.813   3.401 -0.3191  0.3618  2.1738
 2565TIP3    H229187   1.411   4.697   3.405 -0.7459 -0.0997 -0.1924
 2566TIP3   OH229188   6.602   2.797   6.181 -0.5586  0.8640  0.1624
 2566TIP3    H129189   6.633   2.734   6.247  1.9201  1.3365 -0.4960
 2566TIP3    H229190   6.611   2.882   6.224 -1.8373  0.9520  0.2737
 2567TIP3   OH229191   4.456   6.089   1.926  0.0230 -0.0763  0.3442
 2567TIP3    H129192   4.379   6.038   1.899  0.8812  0.3426 -3.2229
 2567TIP3    H229193   4.428   6.180   1.916 -0.0864  0.1193  2.3639
 2568TIP3   OH229194   2.081   5.551   4.047 -0.4457 -0.3224  0.4576
 2568TIP3    H129195   2.163   5.502   4.049 -0.3947 -0.1610  3.0958
 2568TIP3    H229196   2.028   5.506   3.981  0.1772 -3.0098  1.7334
 2569TIP3   OH229197   3.341   6.500   3.926  0.2523  0.1794 -0.5150
 2569TIP3    H129198   3.323   6.407   3.942 -1.4893  0.7467  1.0316
 2569TIP3    H229199   3.428   6.501   3.886 -0.4951 -2.2465 -2.3364
 2570TIP3   OH229200   5.460   4.498   3.909  0.4471 -0.2672  0.4899
 2570TIP3    H129201   5.498   4.468   3.991  0.7192 -0.9685  0.1177
 2570TIP3    H229202   5.370   4.466   3.911  0.5106 -0.4532  0.4328
 2571TIP3   OH229203   5.504   4.179   5.071 -0.2047  0.3752 -0.0370
 2571TIP3    H129204   5.557   4.257   5.088 -0.9570  0.8713  0.0697
 2571TIP3    H229205   5.418   4.200   5.107 -0.0248 -1.0766  1.3054
 2572TIP3   OH229206   3.622   4.779   2.108 -0.2494 -0.0968  0.3791
 2572TIP3    H129207   3.612   4.872   2.130 -0.3672 -0.2794  1.0961
 2572TIP3    H229208   3.671   4.780   2.025 -0.6468  0.6153  0.1422
 2573TIP3   OH229209   5.516   2.935   5.821 -0.6398  0.4712  0.7274
 2573TIP3    H129210   5.460   3.013   5.817 -0.3724  0.5876 -1.5011
 2573TIP3    H229211   5.479   2.877   5.754  0.7513 -0.2327  0.5682
 2574TIP3   OH229212   3.886   4.637  12.667 -0.4641 -0.4747 -0.2584
 2574TIP3    H129213   3.892   4.689  12.586  1.0904 -0.8472 -0.4057
 2574TIP3    H229214   3.867   4.548  12.636 -3.3557  0.0057  0.0062
 2575TIP3   OH229215   3.139   5.896   2.111  0.0648 -0.6214  0.1117
 2575TIP3    H129216   3.213   5.927   2.164  0.3422 -0.2093 -0.5139
 2575TIP3    H229217   3.150   5.801   2.109  0.7565 -0.5460 -0.2170
 2576TIP3   OH229218   6.093   6.700   4.436 -0.0488  0.2144  0.2939
 2576TIP3    H129219   6.041   6.716   4.516  1.1352  0.9087  0.9395
 2576TIP3    H229220   6.122   6.787   4.409  1.1184 -0.2026  0.1807
 2577TIP3   OH229221   0.182   5.979  14.557  0.1517  0.0979 -0.1212
 2577TIP3    H129222   0.134   5.995  14.638 -0.8430 -0.6706 -0.5409
 2577TIP3    H229223   0.173   6.059  14.506 -1.2534 -0.2651 -0.4664
 2578TIP3   OH229224   3.166   6.137  13.690  0.2730  0.1545 -0.7457
 2578TIP3    H129225   3.185   6.091  13.771  1.3763  1.5879 -0.1612
 2578TIP3    H229226   3.179   6.072  13.621 -1.5519 -1.3261  0.2474
 2579TIP3   OH229227   3.875   1.612  16.710  0.0715  0.0070  0.0057
 2579TIP3    H129228   3.816   1.672  16.756 -0.3564 -1.3605  1.2689
 2579TIP3    H229229   3.894   1.543  16.774 -0.8272 -2.1565 -2.0051
 2580TIP3   OH229230   3.388   0.885   5.103 -0.1854 -0.1383  0.1089
 2580TIP3    H129231   3.333   0.862   5.177 -0.6109 -0.3396 -0.2737
 2580TIP3    H229232   3.469   0.835   5.117 -0.0525  0.2445  0.7250
 2581TIP3   OH229233   2.833   3.683  11.389  0.5012 -0.2145 -0.3732
 2581TIP3    H129234   2.903   3.718  11.444  1.1382  2.8370 -2.9393
 2581TIP3    H229235   2.764   3.748  11.393 -0.1340 -0.7742 -1.7860
 2582TIP3   OH229236   2.773   1.195  10.960  0.1197  0.1822 -0.3629
 2582TIP3    H129237   2.816   1.138  10.896 -0.8157  0.3566 -1.1488
 2582TIP3    H229238   2.784   1.283  10.925  2.5870  0.6706  1.4240
 2583TIP3   OH229239   0.255   6.378  17.154  0.6411  0.8317 -0.5481
 2583TIP3    H129240   0.240   6.361  17.061  0.7233  0.1135 -0.4287
 2583TIP3    H229241   0.259   6.291  17.194  2.5923  1.0736 -0.1767
 2584TIP3   OH229242   4.079   4.671   0.427 -0.1950  0.5510  0.3284
 2584TIP3    H129243   3.985   4.669   0.408  0.2481 -1.8784 -1.8809
 2584TIP3    H229244   4.120   4.699   0.345  1.1845 -1.5639  0.2434
 2585TIP3   OH229245   1.313   6.041  16.407  0.1682  0.4371  0.1064
 2585TIP3    H129246   1.362   5.980  16.461 -0.8208 -0.6311 -0.1822
 2585TIP3    H229247   1.374   6.067  16.338  0.5142 -0.4247  0.0811
 2586TIP3   OH229248   5.401   2.001  11.710  0.7139 -0.0881  0.0699
 2586TIP3    H129249   5.386   2.028  11.800 -2.5529  2.4013 -1.0842
 2586TIP3    H229250   5.449   2.074  11.671 -2.7603  1.4572 -1.5266
 2587TIP3   OH229251   4.521   4.491   0.100 -0.5979  0.4395 -0.4448
 2587TIP3    H129252   4.526   4.396   0.090 -0.5516  0.4929 -0.9702
 2587TIP3    H229253   4.607   4.523   0.072 -0.3369  0.5787  0.4947
 2588TIP3   OH229254   3.732   1.872   1.113 -0.1215 -0.3044 -0.0019
 2588TIP3    H129255   3.702   1.938   1.175 -2.0741  1.0781 -2.3133
 2588TIP3    H229256   3.718   1.788   1.158 -1.6511  0.6479  1.3575
 2589TIP3   OH229257   5.610   0.623   5.072  0.1214  0.2165 -0.0716
 2589TIP3    H129258   5.574   0.712   5.075 -0.5830 -0.0531 -0.4513
 2589TIP3    H229259   5.676   0.622   5.141 -0.2855  0.8618  0.3389
 2590TIP3   OH229260   5.194   0.199   3.496 -0.1412 -0.3261  0.3096
 2590TIP3    H129261   5.207   0.293   3.483 -1.1947 -0.0936  0.8825
 2590TIP3    H229262   5.256   0.158   3.435  0.7554  0.7285  0.4843
 2591TIP3   OH229263   3.441   2.023  17.267 -0.4002 -0.5085  0.2496
 2591TIP3    H129264   3.428   1.953  17.331 -0.8029 -0.4014  0.2847
 2591TIP3    H229265   3.355   2.036  17.228 -0.3931  0.1972  0.4749
 2592TIP3   OH229266   5.731   3.248   4.725 -0.0918 -0.1363 -0.2331
 2592TIP3    H129267   5.778   3.172   4.690 -1.3599 -0.3504 -1.5559
 2592TIP3    H229268   5.658   3.260   4.663 -0.5778  1.4196  0.6406
 2593TIP3   OH229269   2.968   0.211   0.981 -0.3322 -0.4922  0.6478
 2593TIP3    H129270   3.042   0.168   1.023  0.5339 -0.2822 -0.6108
 2593TIP3    H229271   2.918   0.251   1.052  0.5835 -0.9315  1.5330
 2594TIP3   OH229272   4.318   4.300   1.857  0.9931  0.2010  0.0220
 2594TIP3    H129273   4.301   4.213   1.892  1.8441 -0.4206 -1.0629
 2594TIP3    H229274   4.234   4.329   1.822  1.1199 -0.9827 -1.3214
 2595TIP3   OH229275   2.923   5.047  10.918 -0.2610 -0.1529  0.3284
 2595TIP3    H129276   2.843   4.997  10.933 -0.5015 -0.5879 -2.2071
 2595TIP3    H229277   2.893   5.129  10.879  0.3662  0.7010  1.6121
 2596TIP3   OH229278   0.168   2.024  16.951 -0.4885  0.0624  0.3023
 2596TIP3    H129279   0.165   1.976  16.868  0.6375 -1.4327  1.1228
 2596TIP3    H229280   0.092   2.082  16.947 -0.7974 -0.4374 -1.5121
 2597TIP3   OH229281   4.869   5.356  12.626  0.0983 -0.2283  0.1086
 2597TIP3    H129282   4.801   5.423  12.628  0.0641 -0.2783  3.6829
 2597TIP3    H229283   4.886   5.342  12.533 -3.3883  1.1876 -0.8377
 2598TIP3   OH229284   5.178   5.722  12.732  0.1457 -0.1713 -0.5547
 2598TIP3    H129285   5.154   5.796  12.788 -1.4816  0.3693 -1.9469
 2598TIP3    H229286   5.252   5.682  12.778 -1.7600 -0.3552  2.5089
 2599TIP3   OH229287   0.753   6.627   3.905  0.4799  0.6556  0.3755
 2599TIP3    H129288   0.727   6.718   3.913  0.8586  0.7685  0.3210
 2599TIP3    H229289   0.770   6.599   3.995  1.2826  0.9120  0.3115
 2600TIP3   OH229290   5.590   4.527  14.942 -0.2243  0.4162  0.2994
 2600TIP3    H129291   5.575   4.438  14.973 -2.8958  0.6362 -0.3177
 2600TIP3    H229292   5.620   4.516  14.851 -1.3823  0.1814 -0.0571
 2601TIP3   OH229293   1.764   2.994  17.121 -0.1326  0.4137 -0.0044
 2601TIP3    H129294   1.747   3.071  17.176 -2.0320  0.4736 -0.6382
 2601TIP3    H229295   1.759   3.028  17.031 -1.3317 -0.5053 -0.2933
 2602TIP3   OH229296   5.575   4.014   4.003  0.2085  0.3122 -0.0193
 2602TIP3    H129297   5.615   4.001   3.917  0.9686  0.1565  0.3530
 2602TIP3    H229298   5.629   4.081   4.044 -0.0465  0.2539  0.4108
 2603TIP3   OH229299   2.872   2.602   1.379  0.4531 -1.0257  0.1872
 2603TIP3    H129300   2.827   2.675   1.421  2.1028  0.3045 -0.2922
 2603TIP3    H229301   2.889   2.632   1.290  1.0171 -2.0439 -0.0535
 2604TIP3   OH229302   4.628   1.722   1.471 -0.0969  0.0308 -0.4793
 2604TIP3    H129303   4.538   1.691   1.461 -0.7526  1.0467  1.9175
 2604TIP3    H229304   4.680   1.643   1.483 -1.2883 -0.3958  2.2729
 2605TIP3   OH229305   0.697   3.647   2.818  0.0012 -0.2467  0.4983
 2605TIP3    H129306   0.792   3.640   2.823 -0.0290 -0.8358  0.3152
 2605TIP3    H229307   0.666   3.622   2.905  0.0538  0.7347  0.8004
 2606TIP3   OH229308   0.576   3.247  14.497 -0.5548 -0.2170 -0.0993
 2606TIP3    H129309   0.549   3.334  14.466  2.0714  0.3546 -0.8828
 2606TIP3    H229310   0.501   3.215  14.548 -1.4376  2.6169  0.4401
 2607TIP3   OH229311   2.391   2.014   0.477 -0.0445 -0.7627 -0.4010
 2607TIP3    H129312   2.410   2.082   0.413 -0.6800 -0.6053 -0.4246
 2607TIP3    H229313   2.444   2.036   0.553  0.3267 -0.6686 -0.6863
 2608TIP3   OH229314   5.578   2.718   4.604 -0.2280  0.4196  0.3933
 2608TIP3    H129315   5.535   2.804   4.602  3.0067  2.1600  1.7617
 2608TIP3    H229316   5.617   2.713   4.690  1.4318 -1.5372 -0.4443
 2609TIP3   OH229317   5.696   2.339   0.341 -0.3315  0.5969 -0.1966
 2609TIP3    H129318   5.679   2.278   0.413 -2.8554  0.6787 -0.6801
 2609TIP3    H229319   5.678   2.425   0.378 -3.9997  0.4751 -1.5251
 2610TIP3   OH229320   1.389   0.222   5.201  0.1343  0.2380  0.3851
 2610TIP3    H129321   1.348   0.205   5.116 -0.3573  0.9249  0.4832
 2610TIP3    H229322   1.377   0.141   5.250  0.6168 -0.2396 -0.2813
 2611TIP3   OH229323   1.588   0.624  10.909 -0.0201  0.3449 -0.3981
 2611TIP3    H129324   1.626   0.637  10.822  1.5995  0.1571  0.2705
 2611TIP3    H229325   1.553   0.534  10.906  1.9647 -0.4593 -0.1586
 2612TIP3   OH229326   5.256   2.168  13.198 -0.3642 -0.5803 -0.3462
 2612TIP3    H129327   5.229   2.113  13.272  2.4026 -1.1954  0.2452
 2612TIP3    H229328   5.253   2.257  13.232  1.6321 -0.9192  0.7769
 2613TIP3   OH229329   0.207   4.370  11.982  0.5575 -0.5076  0.0555
 2613TIP3    H129330   0.205   4.449  11.929 -0.5213 -0.7193 -0.2270
 2613TIP3    H229331   0.115   4.347  11.996  0.8108 -0.5578  1.8634
 2614TIP3   OH229332   0.266   3.943   0.029  0.1878 -0.7614  0.3933
 2614TIP3    H129333   0.216   3.864   0.012 -0.2332 -0.8391  1.8947
 2614TIP3    H229334   0.305   3.929   0.116  1.2505  0.0937  0.0767
 2615TIP3   OH229335   0.060   6.548   1.373  0.9463  0.4517 -0.6221
 2615TIP3    H129336  -0.027   6.544   1.411  2.3272  0.3346  2.7332
 2615TIP3    H229337   0.068   6.469   1.320 -0.9567  0.4669 -0.9394
 2616TIP3   OH229338   6.285   0.396  12.340  0.1092 -0.7946 -0.0661
 2616TIP3    H129339   6.279   0.467  12.405 -0.1604  0.2337 -1.1946
 2616TIP3    H229340   6.222   0.421  12.272  0.1403 -2.0380 -0.5521
 2617TIP3   OH229341   4.834   4.595  12.496 -0.0291 -0.1145  0.4751
 2617TIP3    H129342   4.909   4.543  12.468  0.2767 -0.1894  1.4116
 2617TIP3    H229343   4.778   4.534  12.544  0.0865  0.2827  1.1380
 2618TIP3   OH229344   0.858   2.545   2.301  0.1756  0.0486 -0.4285
 2618TIP3    H129345   0.837   2.636   2.280  1.5820  0.7154  0.9509
 2618TIP3    H229346   0.952   2.538   2.285  0.0818 -1.1379 -0.4721
 2619TIP3   OH229347   4.724   2.811  16.107 -0.2662 -0.4128  0.3490
 2619TIP3    H129348   4.738   2.754  16.183 -0.7513  0.8858  1.4237
 2619TIP3    H229349   4.758   2.760  16.033  0.6321 -1.5046  1.4820
 2620TIP3   OH229350   3.601   5.044  15.422 -0.3595  0.7014 -0.6255
 2620TIP3    H129351   3.635   4.970  15.473 -2.2867  0.1627 -0.0740
 2620TIP3    H229352   3.673   5.107  15.420  1.1894 -1.0246 -0.7762
 2621TIP3   OH229353   6.008   2.449  16.014  0.8641  0.1539  0.3719
 2621TIP3    H129354   5.983   2.526  16.065  0.4031  1.1101 -1.2904
 2621TIP3    H229355   5.961   2.377  16.056 -1.0649  1.2285  0.0897
 2622TIP3   OH229356   2.902   2.426   6.153 -0.1823 -0.9660  0.0099
 2622TIP3    H129357   2.911   2.479   6.232 -3.3083  0.7147 -0.6668
 2622TIP3    H229358   2.979   2.447   6.100  1.2603 -1.1275  2.0117
 2623TIP3   OH229359   4.153   0.403   0.299 -0.6100 -0.3889 -0.1978
 2623TIP3    H129360   4.188   0.314   0.288 -0.2983 -0.3801  0.6561
 2623TIP3    H229361   4.145   0.414   0.394 -0.8423  0.4230 -0.3069
 2624TIP3   OH229362   5.274   3.396  15.686  0.1218 -0.5672 -0.3394
 2624TIP3    H129363   5.345   3.348  15.643 -0.8149 -2.3455  0.0657
 2624TIP3    H229364   5.300   3.398  15.778  0.6598  0.6176 -0.5115
 2625TIP3   OH229365   5.516   3.512   4.006 -0.3494  0.1274  0.1313
 2625TIP3    H129366   5.510   3.606   3.985  0.3938  0.1047 -0.2035
 2625TIP3    H229367   5.555   3.473   3.927 -0.9301 -0.5080  0.1599
 2626TIP3   OH229368   0.255   3.625   3.905 -0.4602  0.1642 -0.3856
 2626TIP3    H129369   0.336   3.652   3.949  0.5378 -1.4601 -1.1814
 2626TIP3    H229370   0.285   3.579   3.826 -2.1889  0.6716 -1.3605
 2627TIP3   OH229371   4.249   3.804  11.915 -0.6620 -0.0401  0.0151
 2627TIP3    H129372   4.298   3.750  11.977 -0.3403  0.2668  0.0324
 2627TIP3    H229373   4.314   3.831  11.850 -0.9240 -0.0721 -0.2626
 2628TIP3   OH229374   3.380   4.259   4.615 -0.1185 -0.4232 -0.0077
 2628TIP3    H129375   3.446   4.326   4.634  0.6027 -0.8746 -0.8221
 2628TIP3    H229376   3.301   4.288   4.660 -0.0576  1.4170 -1.0542
 2629TIP3   OH229377   4.411   1.092  14.660 -0.1487 -0.5153 -0.1867
 2629TIP3    H129378   4.418   1.185  14.642  1.1635 -0.6300 -0.3204
 2629TIP3    H229379   4.344   1.060  14.600 -0.0472  0.2016 -0.6741
 2630TIP3   OH229380   1.031   4.659  11.346  0.2894 -0.4652 -0.8177
 2630TIP3    H129381   0.957   4.720  11.339 -0.0610 -0.9134 -1.1017
 2630TIP3    H229382   1.106   4.708  11.312  0.2351  0.1846 -0.0136
 2631TIP3   OH229383   0.516   0.431   0.790  0.2959  0.7411  0.0758
 2631TIP3    H129384   0.566   0.406   0.868  0.8622 -0.1633 -0.5780
 2631TIP3    H229385   0.460   0.355   0.772  0.4940  0.7707 -0.6664
 2632TIP3   OH229386   3.318   0.012  17.108 -0.4514 -0.0966 -0.0344
 2632TIP3    H129387   3.346   0.039  17.196  0.2511  2.3273 -0.9637
 2632TIP3    H229388   3.223   0.017  17.111 -0.4243  0.1670  0.5576
 2633TIP3   OH229389   1.459   1.611  10.948  0.7041 -0.1740 -0.2664
 2633TIP3    H129390   1.401   1.618  11.024  0.0187  0.4268 -0.8363
 2633TIP3    H229391   1.469   1.517  10.933 -0.4768 -0.2789 -0.4292
 2634TIP3   OH229392   6.205   6.296   3.729 -0.0817 -0.3376  0.5330
 2634TIP3    H129393   6.185   6.287   3.635 -0.4364 -0.7213  0.6435
 2634TIP3    H229394   6.172   6.215   3.768  1.0744 -0.6765  0.8254
 2635TIP3   OH229395   5.921   2.133  11.111  0.5659  0.0919  0.1001
 2635TIP3    H129396   5.857   2.062  11.109 -0.1064  0.7214 -1.3592
 2635TIP3    H229397   5.882   2.198  11.170  0.0645  0.2705 -0.4184
 2636TIP3   OH229398   0.641   4.702  14.794 -0.3831  0.3806  0.4538
 2636TIP3    H129399   0.692   4.630  14.758  0.2287  0.6312  0.8058
 2636TIP3    H229400   0.650   4.773  14.731  0.1602  0.6050  0.7751
 2637TIP3   OH229401   1.254   2.368  16.735 -0.1314 -0.1431  0.7949
 2637TIP3    H129402   1.334   2.369  16.787  1.5817 -2.8438 -1.5927
 2637TIP3    H229403   1.187   2.331  16.793  1.9807 -4.0896  0.8898
 2638TIP3   OH229404   0.621   2.363  11.338  0.2998 -1.2667 -0.1422
 2638TIP3    H129405   0.570   2.427  11.388  0.2783 -2.8682  1.9295
 2638TIP3    H229406   0.694   2.340  11.395  2.9216  0.3164 -2.7187
 2639TIP3   OH229407   2.179   0.119   0.194  0.1947  0.3597 -0.4204
 2639TIP3    H129408   2.115   0.082   0.133  1.2578 -0.0589 -1.3040
 2639TIP3    H229409   2.152   0.210   0.205  1.1142  0.9953 -3.0835
 2640TIP3   OH229410   0.938   6.414   2.452 -0.1638 -0.0346  0.2016
 2640TIP3    H129411   0.929   6.462   2.534 -1.2637 -0.0417  0.0978
 2640TIP3    H229412   0.906   6.326   2.472 -3.0556  0.7110 -0.9124
 2641TIP3   OH229413   5.387   6.259  17.141 -0.9355  0.3098  0.0188
 2641TIP3    H129414   5.421   6.323  17.079 -1.4958  0.3956 -0.2047
 2641TIP3    H229415   5.372   6.180  17.089 -0.8841  0.2069  0.1574
 2642TIP3   OH229416   2.964   4.724   4.374  0.4767 -0.4269 -0.1345
 2642TIP3    H129417   2.915   4.737   4.293 -0.1935 -1.1213  0.1535
 2642TIP3    H229418   3.015   4.804   4.384 -1.9980  1.1098  0.5259
 2643TIP3   OH229419   1.753   4.915  14.619  0.2968  0.1386  0.2748
 2643TIP3    H129420   1.767   4.939  14.711 -0.3204 -0.3345  0.4982
 2643TIP3    H229421   1.706   4.831  14.623  1.2212 -0.4257 -0.4825
 2644TIP3   OH229422   2.462   0.051  13.686  0.3481  0.0655 -0.5666
 2644TIP3    H129423   2.394   0.102  13.729  1.8629  1.1587  0.5923
 2644TIP3    H229424   2.442   0.059  13.592 -2.5330 -1.7167 -0.1729
 2645TIP3   OH229425   3.456   5.323  13.739 -0.4255 -0.3294 -0.5500
 2645TIP3    H129426   3.499   5.262  13.680  2.3387  0.6851  0.3220
 2645TIP3    H229427   3.450   5.275  13.822 -0.7866 -0.3894 -0.6102
 2646TIP3   OH229428   5.967   1.315  12.976  0.2418 -0.7885 -0.2646
 2646TIP3    H129429   5.914   1.241  12.947  0.0644 -0.8639  0.2353
 2646TIP3    H229430   5.966   1.377  12.904  0.2126 -1.1844 -0.6035
 2647TIP3   OH229431   3.854   1.420  15.758 -0.2422 -0.4170 -0.1509
 2647TIP3    H129432   3.843   1.453  15.669 -0.8889 -0.0865  0.0487
 2647TIP3    H229433   3.767   1.428  15.798  0.7300  2.5466  1.5652
 2648TIP3   OH229434   1.007   1.712  11.881 -0.1845  0.0333 -0.5584
 2648TIP3    H129435   0.938   1.672  11.829 -0.4392 -0.9227  0.4778
 2648TIP3    H229436   0.962   1.748  11.957  0.2607  0.8083 -0.6582
 2649TIP3   OH229437   3.585   0.485   3.589  0.1694  0.0689  0.3816
 2649TIP3    H129438   3.635   0.550   3.639  0.6391 -0.5941  0.7731
 2649TIP3    H229439   3.495   0.497   3.619  0.2552  0.5403  0.4603
 2650TIP3   OH229440   3.968   3.773  14.900  0.0072 -0.5629  0.8671
 2650TIP3    H129441   4.040   3.793  14.839  0.7742  0.2192  2.0178
 2650TIP3    H229442   3.893   3.755  14.843  0.4620  1.1250 -0.3113
 2651TIP3   OH229443   2.869   2.933  15.929  0.0273  0.2715 -0.1469
 2651TIP3    H129444   2.796   2.871  15.934 -0.7626  1.2711  1.2383
 2651TIP3    H229445   2.947   2.878  15.933 -0.6378 -0.7947 -1.3862
 2652TIP3   OH229446   1.694   5.067   0.635  0.2893 -0.3878 -0.0118
 2652TIP3    H129447   1.709   4.979   0.600 -2.7596 -0.0510 -2.4128
 2652TIP3    H229448   1.742   5.125   0.575  1.8036 -0.3313  1.2215
 2653TIP3   OH229449   5.679   2.702  17.288 -0.1799 -0.4419 -0.0418
 2653TIP3    H129450   5.600   2.721  17.337 -0.2067 -0.3508 -0.1190
 2653TIP3    H229451   5.664   2.616  17.249 -1.4344  0.8309 -2.4506
 2654TIP3   OH229452   4.186   3.660   5.996  0.4518 -0.3653 -0.6983
 2654TIP3    H129453   4.093   3.679   6.006  0.1869 -0.8893 -1.9830
 2654TIP3    H229454   4.225   3.681   6.081 -0.7518  0.3598 -0.3210
 2655TIP3   OH229455   4.023   3.804   0.063  0.2758 -0.2756  0.1855
 2655TIP3    H129456   4.051   3.884   0.018 -0.0462  0.0921  0.6271
 2655TIP3    H229457   4.099   3.746   0.060  1.3510  0.9808  2.0242
 2656TIP3   OH229458   4.815   3.369  16.293  0.2035 -0.4436  0.1877
 2656TIP3    H129459   4.814   3.446  16.350  1.5312 -0.3040  0.0504
 2656TIP3    H229460   4.724   3.341  16.289  0.2238 -1.1384  3.2706
 2657TIP3   OH229461   2.221   2.462   4.342  0.5054  0.3011 -0.1215
 2657TIP3    H129462   2.194   2.481   4.432 -1.9685 -2.0005 -0.3104
 2657TIP3    H229463   2.299   2.408   4.351  0.8377  0.8897  0.6004
 2658TIP3   OH229464   4.280   1.585   6.158  0.4570 -0.0183 -0.5366
 2658TIP3    H129465   4.342   1.524   6.200 -0.3570 -1.3439 -1.2247
 2658TIP3    H229466   4.287   1.665   6.210  1.1396 -0.8738  0.7348
 2659TIP3   OH229467   6.106   5.819  10.217 -0.0934  0.0718  0.1395
 2659TIP3    H129468   6.066   5.763  10.150  1.0092  0.3165 -0.7522
 2659TIP3    H229469   6.199   5.819  10.195  0.0912  1.2712  0.8644
 2660TIP3   OH229470   1.671   2.882  11.036  0.0143 -0.3215  0.2933
 2660TIP3    H129471   1.678   2.841  11.122  0.5185 -0.5913  0.1250
 2660TIP3    H229472   1.582   2.862  11.007 -0.0393 -0.5275  0.6010
 2661TIP3   OH229473   5.183   5.903   5.298  0.1903 -0.5160 -0.1218
 2661TIP3    H129474   5.167   5.811   5.277  1.7070 -0.6961 -0.5339
 2661TIP3    H229475   5.129   5.920   5.375 -1.5054 -1.2468 -1.1108
 2662TIP3   OH229476   2.674   0.432  12.232  0.1039  0.2189 -0.1942
 2662TIP3    H129477   2.717   0.511  12.200  2.2114 -0.6708  0.3223
 2662TIP3    H229478   2.746   0.371  12.249 -1.1047 -0.2909  3.6152
 2663TIP3   OH229479   2.043   1.195   4.980  0.0249  0.1145  0.6108
 2663TIP3    H129480   2.000   1.211   4.896  1.5328  0.0547 -0.1710
 2663TIP3    H229481   2.066   1.282   5.012  1.9476 -0.0176 -0.3595
 2664TIP3   OH229482   1.093   6.105  14.994 -0.3145 -0.2373  1.2142
 2664TIP3    H129483   1.099   6.085  15.088  1.5204 -0.8126  0.9776
 2664TIP3    H229484   1.179   6.084  14.959 -1.3911 -1.2541 -0.8561
 2665TIP3   OH229485   4.870   3.430  13.968 -0.2109  0.3772  0.4572
 2665TIP3    H129486   4.790   3.482  13.975 -0.3979  0.2701 -0.7273
 2665TIP3    H229487   4.938   3.485  14.008 -0.3511  1.6688 -1.0066
 2666TIP3   OH229488   2.640   2.085  16.434 -0.1356  0.2474 -0.0362
 2666TIP3    H129489   2.666   2.158  16.377  0.0319 -1.0057 -1.5903
 2666TIP3    H229490   2.548   2.070  16.412  0.1965 -0.8724 -0.6892
 2667TIP3   OH229491   2.145   4.042   3.758  0.3173  0.3719  0.0890
 2667TIP3    H129492   2.160   3.958   3.714 -3.8762 -0.1987 -0.5222
 2667TIP3    H229493   2.149   4.107   3.688  1.3848  0.4433  0.2052
 2668TIP3   OH229494   6.512   0.256   4.449  0.2226 -0.3466 -0.1118
 2668TIP3    H129495   6.464   0.264   4.531  0.5563  2.3797 -0.1225
 2668TIP3    H229496   6.444   0.239   4.383 -0.2800 -0.5105  0.4439
 2669TIP3   OH229497   4.283   1.442  14.219  0.2611  0.1382 -0.2557
 2669TIP3    H129498   4.218   1.505  14.186 -0.1767 -2.0921 -3.8007
 2669TIP3    H229499   4.231   1.366  14.245  1.1853 -0.5068 -0.2750
 2670TIP3   OH229500   5.119   6.722   2.277 -0.0494  0.2055  0.0835
 2670TIP3    H129501   5.145   6.744   2.187  0.5417  2.0423  0.6927
 2670TIP3    H229502   5.132   6.627   2.283  2.2199  0.4137 -1.0215
 2671TIP3   OH229503   2.182   1.474   0.957  0.1264  0.5256 -0.0445
 2671TIP3    H129504   2.236   1.399   0.931 -0.7799 -0.1376 -0.0793
 2671TIP3    H229505   2.228   1.550   0.922 -0.2541 -0.2231 -2.3203
 2672TIP3   OH229506   2.127   2.803   3.154  0.2016 -0.1856  0.1339
 2672TIP3    H129507   2.206   2.791   3.101  0.1810 -2.1050  0.5175
 2672TIP3    H229508   2.143   2.753   3.234 -0.2031  1.8190  1.5313
 2673TIP3   OH229509   4.478   3.756  16.268  0.1824 -0.0064  0.2287
 2673TIP3    H129510   4.470   3.803  16.350  1.5716 -0.9508  0.9261
 2673TIP3    H229511   4.438   3.671  16.284  0.0648 -0.0410 -0.2172
 2674TIP3   OH229512   4.193   3.653   4.807  0.1457 -0.3627  0.0505
 2674TIP3    H129513   4.127   3.717   4.782 -0.2900 -0.1205  1.7625
 2674TIP3    H229514   4.167   3.624   4.895  1.0033 -1.9965 -0.2160
 2675TIP3   OH229515   0.664   0.833   2.419 -0.5347  0.2102  0.3069
 2675TIP3    H129516   0.615   0.914   2.431 -0.3265  0.4014 -0.1178
 2675TIP3    H229517   0.697   0.838   2.330  2.5813  1.3621  1.4531
 2676TIP3   OH229518   4.079   2.661  13.654  0.1962 -0.5782 -0.2084
 2676TIP3    H129519   4.109   2.710  13.578 -1.0215  0.5028  0.0023
 2676TIP3    H229520   4.066   2.727  13.722 -1.7243 -1.1363 -0.0070
 2677TIP3   OH229521   1.253   5.034   3.338  0.1450  0.1116 -0.4181
 2677TIP3    H129522   1.206   5.039   3.421  1.8094  1.6241  0.4693
 2677TIP3    H229523   1.322   5.101   3.345  3.0931 -2.6969 -1.2510
 2678TIP3   OH229524   5.861   4.896   0.887 -0.1561  0.0935 -0.4295
 2678TIP3    H129525   5.896   4.873   0.800 -0.0426 -0.7602 -0.1652
 2678TIP3    H229526   5.902   4.833   0.946 -1.7534 -0.5988 -0.0405
 2679TIP3   OH229527   2.513   4.538   4.157 -0.0836 -0.0309 -0.5109
 2679TIP3    H129528   2.521   4.523   4.063 -0.1738 -1.3747 -0.3087
 2679TIP3    H229529   2.451   4.472   4.187  1.4691 -0.9085  0.8281
 2680TIP3   OH229530   3.564   0.616   2.116  0.3085 -0.1207 -0.1282
 2680TIP3    H129531   3.521   0.673   2.052  0.1844 -1.1553 -0.9860
 2680TIP3    H229532   3.587   0.674   2.189 -0.5192  0.8694 -0.6427
 2681TIP3   OH229533   3.621   2.503   1.890 -0.0801 -0.6898 -0.3049
 2681TIP3    H129534   3.566   2.425   1.889  1.7618 -2.0197 -0.8709
 2681TIP3    H229535   3.611   2.540   1.803  0.2501 -1.1887 -0.5613
 2682TIP3   OH229536   0.549   3.706   3.990  0.1802  0.1366 -0.0819
 2682TIP3    H129537   0.516   3.795   3.995 -0.5449 -0.1208 -0.1877
 2682TIP3    H229538   0.556   3.677   4.081  2.1365  0.9212  0.0231
 2683TIP3   OH229539   4.970   1.755  15.346  0.0769  0.8316  0.2654
 2683TIP3    H129540   4.907   1.707  15.400  1.7770 -1.4189  0.3523
 2683TIP3    H229541   4.928   1.760  15.260 -0.8192  0.6298  0.6809
 2684TIP3   OH229542   0.146   3.068   1.619 -0.4157 -0.1233 -0.2664
 2684TIP3    H129543   0.169   2.981   1.651 -2.4227 -0.7072 -0.3002
 2684TIP3    H229544   0.195   3.078   1.537  0.7364 -0.7183  0.3397
 2685TIP3   OH229545   1.361   4.548  14.545 -0.3429 -0.1941 -0.5220
 2685TIP3    H129546   1.361   4.644  14.540  2.1577  0.0066  1.8037
 2685TIP3    H229547   1.310   4.520  14.469  0.5938  2.9406 -2.4326
 2686TIP3   OH229548   6.708   3.354  16.158  0.5227  0.2902 -0.7375
 2686TIP3    H129549   6.686   3.261  16.155 -0.1683  0.4178  0.3446
 2686TIP3    H229550   6.804   3.356  16.149  0.5279 -0.5182 -0.8851
 2687TIP3   OH229551   2.897   1.427  14.639  0.2327  1.0312 -0.3581
 2687TIP3    H129552   2.893   1.396  14.730  1.6395 -1.5307 -1.1289
 2687TIP3    H229553   2.989   1.452  14.626  0.5392 -0.7047 -1.7064
 2688TIP3   OH229554   5.833   1.623  10.976 -0.3876  0.2144  0.1938
 2688TIP3    H129555   5.904   1.631  10.913 -0.8194  0.8379 -0.2218
 2688TIP3    H229556   5.765   1.574  10.929  0.0786 -1.0818  0.8619
 2689TIP3   OH229557   1.214   5.242  15.514  0.4829  0.7907  0.2291
 2689TIP3    H129558   1.141   5.221  15.573  0.9208 -1.2168  0.0902
 2689TIP3    H229559   1.207   5.178  15.443  0.3713  2.7474 -1.5671
 2690TIP3   OH229560   4.547   1.525   4.830  0.0672  0.6233  0.0860
 2690TIP3    H129561   4.583   1.457   4.771 -2.2355  0.8018 -1.5770
 2690TIP3    H229562   4.601   1.602   4.813  2.1980 -0.5134  1.4118
 2691TIP3   OH229563   1.423   5.210  12.621  0.1578  0.3812  0.3149
 2691TIP3    H129564   1.344   5.257  12.594 -0.3936 -0.8469 -0.2544
 2691TIP3    H229565   1.492   5.276  12.620 -0.3226  0.8992 -1.8574
 2692TIP3   OH229566   1.950   4.430  17.006 -0.0620  0.1161  0.6737
 2692TIP3    H129567   1.941   4.442  17.101 -0.9436  0.5916  0.5409
 2692TIP3    H229568   2.024   4.371  16.996 -0.4318 -0.5300  1.7009
 2693TIP3   OH229569   2.788   0.064   2.603  0.8306  0.1733  0.0692
 2693TIP3    H129570   2.735  -0.015   2.587 -0.2656  1.1422 -1.2846
 2693TIP3    H229571   2.756   0.127   2.538  2.0004  1.5874  0.8417
 2694TIP3   OH229572   1.926   5.222   2.374 -0.1411 -0.1906  0.5303
 2694TIP3    H129573   1.846   5.261   2.340  0.9600  1.3946 -0.2648
 2694TIP3    H229574   1.955   5.282   2.443  1.4431  0.3270 -0.5575
 2695TIP3   OH229575   1.357   6.203  12.318 -0.2382 -0.2650  0.0865
 2695TIP3    H129576   1.319   6.205  12.406 -0.6452 -0.0468 -0.0893
 2695TIP3    H229577   1.449   6.180  12.331 -0.4392 -0.8298  0.5226
 2696TIP3   OH229578   1.609   1.124  15.905 -0.8010 -0.0287 -0.3008
 2696TIP3    H129579   1.538   1.177  15.869 -0.3862  0.9608  0.3371
 2696TIP3    H229580   1.605   1.139  15.999 -2.1905 -2.9729  0.1740
 2697TIP3   OH229581   2.921   1.422  16.866 -0.0876  0.4333  0.5151
 2697TIP3    H129582   2.858   1.367  16.912 -1.6666  3.1184  1.6735
 2697TIP3    H229583   2.891   1.421  16.775  0.0037 -0.7438  0.4914
 2698TIP3   OH229584   1.536   6.765   3.687  0.3395 -0.3866 -0.3054
 2698TIP3    H129585   1.590   6.687   3.676 -1.2838 -1.7393  1.1503
 2698TIP3    H229586   1.574   6.809   3.764  1.5985  0.5978 -1.4518
 2699TIP3   OH229587   2.273   0.555   6.163  0.0109  0.4800 -0.2127
 2699TIP3    H129588   2.273   0.637   6.214 -0.9378 -1.2630  2.7031
 2699TIP3    H229589   2.322   0.577   6.083  1.3171  3.3971  1.2877
 2700TIP3   OH229590   5.027   2.815   5.791  0.2101  0.7195 -0.6711
 2700TIP3    H129591   4.944   2.840   5.830 -0.1612  0.7942 -1.4903
 2700TIP3    H229592   5.080   2.781   5.864 -1.2807 -1.2687 -0.4690
 2701TIP3   OH229593   1.695   6.322  15.158  0.2448 -0.8329  0.0836
 2701TIP3    H129594   1.682   6.244  15.103  1.2104  0.4310 -2.0246
 2701TIP3    H229595   1.607   6.348  15.185 -0.0390 -3.0077  1.3545
 2702TIP3   OH229596   2.845   6.180  10.720  0.7600 -0.0785  0.2888
 2702TIP3    H129597   2.875   6.089  10.721  0.2555 -0.2710 -0.8316
 2702TIP3    H229598   2.787   6.185  10.644  1.1031  1.2858  0.1038
 2703TIP3   OH229599   0.390   2.042  12.287  0.1656 -0.2843 -0.3534
 2703TIP3    H129600   0.397   1.952  12.320 -1.0900  0.6193  2.5349
 2703TIP3    H229601   0.296   2.061  12.288  0.4688  1.3006 -0.2797
 2704TIP3   OH229602   1.587   3.884  16.776  0.3550 -0.1225  0.0148
 2704TIP3    H129603   1.596   3.869  16.682  1.0570  1.1663 -0.1335
 2704TIP3    H229604   1.510   3.941  16.783  0.6918  0.3141  0.1663
 2705TIP3   OH229605   0.183   1.545  12.412 -0.7619  0.5407 -0.0273
 2705TIP3    H129606   0.249   1.497  12.363 -0.5283  0.2928  0.5210
 2705TIP3    H229607   0.103   1.536  12.361  0.0217  2.3749 -1.6338
 2706TIP3   OH229608   0.630   2.796   0.988  0.3751 -0.9007  0.2081
 2706TIP3    H129609   0.567   2.838   0.930  1.4164  0.6837  0.2039
 2706TIP3    H229610   0.704   2.857   0.992  0.8431 -1.5590  2.2057
 2707TIP3   OH229611   0.561   0.152   3.346 -0.4299 -0.8343  0.3739
 2707TIP3    H129612   0.615   0.223   3.313  0.1091 -1.3685  0.0992
 2707TIP3    H229613   0.480   0.195   3.375 -1.2960 -0.4222 -2.4333
 2708TIP3   OH229614   5.081   4.709  15.927  0.0222 -0.3875  0.2310
 2708TIP3    H129615   5.086   4.632  15.870  0.4189  1.3033 -2.0839
 2708TIP3    H229616   4.988   4.713  15.953 -0.4893 -0.3141 -1.5397
 2709TIP3   OH229617   6.124   2.365  12.950 -0.0631  0.5086  0.5526
 2709TIP3    H129618   6.089   2.293  12.897  0.2640  0.5825  0.2354
 2709TIP3    H229619   6.211   2.335  12.976  1.2913  1.9847 -2.0201
 2710TIP3   OH229620   3.087   5.072  15.966  0.5030  0.2260 -0.0082
 2710TIP3    H129621   3.066   4.979  15.973  3.1197 -0.4238 -0.5616
 2710TIP3    H229622   3.106   5.099  16.056 -1.9124  0.6759  0.4121
 2711TIP3   OH229623   5.025   1.333   5.937 -0.1513 -0.4384  0.4549
 2711TIP3    H129624   5.024   1.352   5.843  1.1263 -0.2800  0.4653
 2711TIP3    H229625   4.961   1.394   5.974  0.8027  0.9032 -0.0653
 2712TIP3   OH229626   2.438   5.227  16.609 -0.4757  0.4907 -0.2275
 2712TIP3    H129627   2.350   5.248  16.581 -0.3857 -0.0817 -0.9337
 2712TIP3    H229628   2.492   5.235  16.530 -0.0695 -0.1757 -0.0280
 2713TIP3   OH229629   1.056   4.399   4.254  0.5141 -0.1179  1.1491
 2713TIP3    H129630   0.983   4.413   4.194  1.2360  1.5712  0.6428
 2713TIP3    H229631   1.015   4.366   4.334 -0.6771 -0.2719  0.4861
 2714TIP3   OH229632   3.955   0.167   0.626 -0.7751 -0.5079  0.3513
 2714TIP3    H129633   4.043   0.130   0.634 -1.0228 -0.7092  2.3462
 2714TIP3    H229634   3.948   0.192   0.534  1.8371  0.7174  0.4394
 2715TIP3   OH229635   1.039   6.333  14.799 -0.1929 -0.6908 -0.5689
 2715TIP3    H129636   1.054   6.354  14.707  1.6870 -0.6618 -0.2727
 2715TIP3    H229637   1.062   6.240  14.806  2.9529  0.1188  0.5367
 2716TIP3   OH229638   6.292   5.946  12.833 -0.0353  0.1249  0.3661
 2716TIP3    H129639   6.295   6.007  12.907 -1.5925  0.9923 -0.2622
 2716TIP3    H229640   6.371   5.964  12.783  0.2161  0.6411  0.9500
 2717TIP3   OH229641   1.708   3.489   5.221  0.0197  0.0111 -0.1343
 2717TIP3    H129642   1.793   3.503   5.178 -0.3934  0.9875 -0.6351
 2717TIP3    H229643   1.690   3.396   5.208  0.6942 -0.0542 -0.6122
 2718TIP3   OH229644   0.581   6.576  11.881  0.3236 -0.3840 -0.0745
 2718TIP3    H129645   0.599   6.670  11.893 -0.0920 -0.1978 -0.8620
 2718TIP3    H229646   0.496   6.573  11.837 -0.2657 -1.1807  1.0984
 2719TIP3   OH229647   5.522   1.106  10.684  0.0295  0.3092 -0.5383
 2719TIP3    H129648   5.570   1.057  10.617  0.6898  0.9132 -0.5086
 2719TIP3    H229649   5.476   1.039  10.735 -0.0124 -0.1921 -1.2309
 2720TIP3   OH229650   1.370   2.639  15.782  0.2105  0.4892 -0.2504
 2720TIP3    H129651   1.410   2.626  15.696 -0.9012 -0.4430 -0.6234
 2720TIP3    H229652   1.280   2.608  15.773 -0.6164  2.5499  0.6013
 2721TIP3   OH229653   4.201   6.470  14.357 -0.1360  0.1748  0.3521
 2721TIP3    H129654   4.200   6.401  14.423  0.4163 -0.6289 -0.4666
 2721TIP3    H229655   4.216   6.551  14.407 -1.9451 -0.1285  1.4476
 2722TIP3   OH229656   3.804   4.230   0.015  0.5187  0.0659 -0.2694
 2722TIP3    H129657   3.788   4.248   0.108  2.7737  0.9480 -0.0163
 2722TIP3    H229658   3.754   4.298  -0.031 -1.9094 -1.3439  0.2038
 2723TIP3   OH229659   5.778   4.722  13.129 -0.4251  0.3057 -0.2542
 2723TIP3    H129660   5.733   4.695  13.209 -1.9408  1.4193 -0.7009
 2723TIP3    H229661   5.716   4.703  13.058 -0.1790  1.8107 -0.8948
 2724TIP3   OH229662   2.905   3.865  16.861  0.1471 -0.0918 -0.1924
 2724TIP3    H129663   2.958   3.877  16.940 -0.2027  0.4288 -0.0326
 2724TIP3    H229664   2.968   3.852  16.791  0.4681 -0.2694  0.1308
 2725TIP3   OH229665   1.292   5.050  12.384 -0.6592  0.1016 -0.2579
 2725TIP3    H129666   1.356   5.003  12.437 -1.1027 -1.4361 -1.0612
 2725TIP3    H229667   1.297   5.140  12.415  0.7358 -0.3209  0.7969
 2726TIP3   OH229668   5.968   3.116  12.326 -0.0277  0.3035  0.2313
 2726TIP3    H129669   6.012   3.132  12.243 -0.7293  1.6710  0.1139
 2726TIP3    H229670   5.969   3.200  12.371  0.9593 -0.5930  1.9119
 2727TIP3   OH229671   4.989   1.725   4.323  0.0758  0.5987 -0.6550
 2727TIP3    H129672   4.947   1.726   4.409  0.6315 -0.4971 -0.3632
 2727TIP3    H229673   4.917   1.736   4.261 -0.7039 -1.4407 -0.1589
 2728TIP3   OH229674   0.233   0.924  13.504 -0.0332 -0.2454 -0.5070
 2728TIP3    H129675   0.256   0.851  13.447 -0.3039 -0.8407  0.1427
 2728TIP3    H229676   0.215   0.884  13.589  0.3303  0.6291 -0.0059
 2729TIP3   OH229677   0.820   5.149   1.830  0.0879 -0.3227  0.0173
 2729TIP3    H129678   0.763   5.224   1.813 -0.9162 -0.5920  2.0176
 2729TIP3    H229679   0.897   5.164   1.776 -1.9485 -0.0504 -2.9276
 2730TIP3   OH229680   2.122   1.218  11.961 -0.1362  0.1100  0.0314
 2730TIP3    H129681   2.091   1.299  12.000 -1.3901  0.1933 -1.0892
 2730TIP3    H229682   2.187   1.184  12.023 -0.4987  1.3287  1.0941
 2731TIP3   OH229683   1.392   3.345   0.342 -0.1198 -0.1930 -0.0436
 2731TIP3    H129684   1.417   3.403   0.414  1.5767 -0.4373 -0.4228
 2731TIP3    H229685   1.311   3.304   0.372  0.2297  0.1729  1.4652
 2732TIP3   OH229686   4.952   4.441   2.200  0.0688  0.0005 -0.1635
 2732TIP3    H129687   4.885   4.372   2.196  2.9048 -2.9835  1.4817
 2732TIP3    H229688   4.934   4.487   2.281  1.2817 -2.2773  1.4668
 2733TIP3   OH229689   3.434   0.360  15.161 -0.2489  0.1158  0.2794
 2733TIP3    H129690   3.362   0.343  15.100  0.6676  2.1695 -1.4459
 2733TIP3    H229691   3.425   0.293  15.228 -3.9808  0.5353  0.2871
 2734TIP3   OH229692   3.354   4.955  15.346 -0.3213  0.3811 -0.2552
 2734TIP3    H129693   3.438   4.997  15.367  1.2216 -2.7530  0.0707
 2734TIP3    H229694   3.378   4.881  15.290 -3.0999  0.5595 -1.7527
 2735TIP3   OH229695   2.838   2.059   3.194  0.0229 -0.5648 -0.2445
 2735TIP3    H129696   2.765   1.998   3.183  0.3091 -1.0911  0.7469
 2735TIP3    H229697   2.851   2.096   3.107 -1.0624 -0.8805 -0.5528
 2736TIP3   OH229698   1.601   0.513   3.118  0.3230 -0.3886  0.6419
 2736TIP3    H129699   1.621   0.602   3.145  1.4396 -0.2513 -0.6073
 2736TIP3    H229700   1.556   0.475   3.193  0.5648  0.9674  1.4870
 2737TIP3   OH229701   1.362   2.275  10.981  0.4516 -0.1859  0.4955
 2737TIP3    H129702   1.383   2.368  10.972 -1.3955  0.1687 -0.3222
 2737TIP3    H229703   1.330   2.248  10.895 -0.6835 -1.1456  1.1938
 2738TIP3   OH229704   6.565   3.421  16.951  0.1230  0.2447  0.4531
 2738TIP3    H129705   6.649   3.387  16.922  0.4471 -0.3873  2.1155
 2738TIP3    H229706   6.538   3.363  17.022 -1.6540  0.5152  0.0289
 2739TIP3   OH229707   1.856   0.046   3.152 -0.2163 -1.4224  0.3601
 2739TIP3    H129708   1.830   0.051   3.060 -2.1327 -2.9452  0.7872
 2739TIP3    H229709   1.826   0.129   3.190  0.6340 -0.7633 -0.3741
 2740TIP3   OH229710   4.094   1.873  12.912 -0.1777 -0.0303 -0.0260
 2740TIP3    H129711   4.054   1.958  12.929 -1.3330 -0.5288 -0.2175
 2740TIP3    H229712   4.050   1.813  12.972  0.0837 -0.6415 -0.4341
 2741TIP3   OH229713   1.673   4.303  11.862  0.5886 -0.4649  0.0728
 2741TIP3    H129714   1.709   4.377  11.812  0.3691 -1.2206 -1.2354
 2741TIP3    H229715   1.580   4.322  11.870  0.6528 -0.2614  0.3424
 2742TIP3   OH229716   3.812   1.867   5.907  0.2601 -0.2767 -0.6868
 2742TIP3    H129717   3.826   1.778   5.941  2.9372 -0.4234 -2.0231
 2742TIP3    H229718   3.810   1.922   5.986  0.0924 -1.3506  0.0716
 2743TIP3   OH229719   0.194   6.570   4.775 -0.2703 -0.4054  0.0125
 2743TIP3    H129720   0.160   6.490   4.815  0.6637 -0.8209 -0.0130
 2743TIP3    H229721   0.172   6.639   4.837 -3.0520 -0.3194 -0.9732
 2744TIP3   OH229722   5.479   4.326  15.107 -0.1997 -0.7634 -0.2900
 2744TIP3    H129723   5.427   4.246  15.119 -1.3654  0.0348  0.0762
 2744TIP3    H229724   5.473   4.372  15.191 -1.4262  0.7974 -1.2027
 2745TIP3   OH229725   5.573   3.514  13.669 -0.1748 -0.2096  0.1377
 2745TIP3    H129726   5.551   3.423  13.689  0.4382 -0.1473  1.1079
 2745TIP3    H229727   5.662   3.525  13.701  0.2227  0.3643 -1.1553
 2746TIP3   OH229728   3.708   4.828  15.741 -0.9517  0.1972 -0.2890
 2746TIP3    H129729   3.727   4.831  15.647 -2.9655 -0.5472 -0.7315
 2746TIP3    H229730   3.721   4.736  15.765  0.5170  0.5673  0.3823
 2747TIP3   OH229731   0.868   1.151   1.516 -0.1709  0.1357  0.3111
 2747TIP3    H129732   0.882   1.125   1.425 -0.3474  2.0881 -0.2874
 2747TIP3    H229733   0.806   1.223   1.511 -0.8495 -0.3126  2.0553
 2748TIP3   OH229734   2.170   4.013  16.239 -0.2646  0.0580 -0.5445
 2748TIP3    H129735   2.204   4.064  16.166  0.6768  1.8131  1.0766
 2748TIP3    H229736   2.078   4.040  16.246  0.2367  1.6049  0.3280
 2749TIP3   OH229737   2.212   4.264  12.291  0.2422  0.2044  0.5696
 2749TIP3    H129738   2.296   4.291  12.327  0.7375 -0.0819 -0.3483
 2749TIP3    H229739   2.201   4.174  12.321  1.1688 -0.4080 -0.8641
 2750TIP3   OH229740   5.103   1.402   0.952  0.5190 -0.3812 -0.4731
 2750TIP3    H129741   5.040   1.451   0.899  0.7797 -0.2482 -0.6647
 2750TIP3    H229742   5.054   1.328   0.987 -0.4200  1.1198  1.4907
 2751TIP3   OH229743   5.473   4.419   0.372 -0.0370  0.4259  0.4144
 2751TIP3    H129744   5.470   4.346   0.310  0.4785 -0.3686  1.3116
 2751TIP3    H229745   5.507   4.493   0.321  4.1502 -1.1987  0.6608
 2752TIP3   OH229746   4.533   1.190  15.554 -0.3898 -0.5674 -0.7096
 2752TIP3    H129747   4.590   1.148  15.618  0.8072 -0.1558 -1.4697
 2752TIP3    H229748   4.552   1.145  15.472 -0.5526  0.1312 -1.1332
 2753TIP3   OH229749   3.354   3.329  13.339  0.0055 -0.4923  1.1496
 2753TIP3    H129750   3.433   3.345  13.288  0.1053  0.4914  1.5953
 2753TIP3    H229751   3.289   3.302  13.275 -0.0752  1.4407  0.3675
 2754TIP3   OH229752   4.328   4.877   3.864  0.0262 -0.4888  0.7182
 2754TIP3    H129753   4.292   4.830   3.938 -0.8556  0.3602  0.8367
 2754TIP3    H229754   4.355   4.962   3.900  0.6134 -0.4890  0.2954
 2755TIP3   OH229755   4.317   4.906  13.360  0.5251  0.3861  0.3876
 2755TIP3    H129756   4.305   4.812  13.344 -1.5245  0.3339  1.9917
 2755TIP3    H229757   4.260   4.948  13.295 -0.6740  0.4154  1.4299
 2756TIP3   OH229758   2.485   0.452   0.095 -0.1153 -0.0519  0.1879
 2756TIP3    H129759   2.464   0.469   0.003 -1.2449 -2.0245  0.0664
 2756TIP3    H229760   2.402   0.427   0.135  0.6049 -0.4812  1.4428
 2757TIP3   OH229761   1.864   4.469  12.654  0.7129 -0.2219  0.1673
 2757TIP3    H129762   1.784   4.447  12.607  0.2353  1.0546  0.3583
 2757TIP3    H229763   1.933   4.467  12.588  0.0328  1.6660 -0.6351
 2758TIP3   OH229764   6.142   0.112  10.625  0.1617 -0.1645  0.1505
 2758TIP3    H129765   6.199   0.114  10.547 -0.0092  1.3904  0.0472
 2758TIP3    H229766   6.054   0.120  10.590  0.1194  1.0746  0.5358
 2759TIP3   OH229767   4.836   6.165   2.835 -0.4239 -0.2228 -0.4470
 2759TIP3    H129768   4.804   6.143   2.923 -1.5152 -0.1295 -0.8178
 2759TIP3    H229769   4.772   6.228   2.801 -1.0404 -1.6738 -2.0211
 2760TIP3   OH229770   0.642   5.649  16.426 -0.0226  0.7596 -0.0848
 2760TIP3    H129771   0.566   5.706  16.435  0.7850  1.6412  1.4054
 2760TIP3    H229772   0.716   5.708  16.413  0.8126  0.0737  1.3772
 2761TIP3   OH229773   1.539   6.817   5.888 -0.6433  0.3048  0.2728
 2761TIP3    H129774   1.587   6.894   5.919 -0.9660  0.2501  0.9370
 2761TIP3    H229775   1.479   6.796   5.960 -0.6471 -0.4921  0.0467
 2762TIP3   OH229776   1.080   5.833  16.629  0.6940  0.4313 -0.4215
 2762TIP3    H129777   1.059   5.926  16.620 -0.3259  0.2469 -0.0417
 2762TIP3    H229778   0.997   5.792  16.656  1.3652 -0.4443  0.3555
 2763TIP3   OH229779   4.944   2.772  11.412 -0.1157 -0.2163  0.8199
 2763TIP3    H129780   4.993   2.699  11.374  0.7822  0.5916  0.4144
 2763TIP3    H229781   4.961   2.846  11.354 -0.5066  0.4845  1.5777
 2764TIP3   OH229782   6.215   2.342   3.173 -0.1469 -0.0402 -0.4692
 2764TIP3    H129783   6.224   2.329   3.078  1.2420 -0.8604 -0.2511
 2764TIP3    H229784   6.236   2.256   3.210  0.1805  0.4990  0.6171
 2765TIP3   OH229785   5.216   5.252  15.129 -0.2012  0.1839  0.0433
 2765TIP3    H129786   5.306   5.278  15.148 -0.4844  1.8543 -0.7891
 2765TIP3    H229787   5.175   5.331  15.095 -1.6124 -0.9259 -0.8982
 2766TIP3   OH229788   4.397   1.165   3.014  0.2412 -0.5530 -0.3286
 2766TIP3    H129789   4.484   1.129   2.993  1.0670  1.3404 -0.2771
 2766TIP3    H229790   4.373   1.217   2.938 -0.2313  0.0505  0.2237
 2767TIP3   OH229791   6.512   4.616  15.113 -0.3047 -0.5907  0.1972
 2767TIP3    H129792   6.447   4.684  15.097 -0.4882 -1.1407 -1.4695
 2767TIP3    H229793   6.554   4.642  15.195 -1.3514  0.7565  0.3238
 2768TIP3   OH229794   4.319   2.742   2.983 -0.1487 -0.0326 -0.0332
 2768TIP3    H129795   4.382   2.805   3.019  1.7759 -1.1537 -1.3877
 2768TIP3    H229796   4.280   2.701   3.061  0.3813  1.0479  0.8237
 2769TIP3   OH229797   6.426   0.194   2.823  0.3826 -0.1428 -0.0744
 2769TIP3    H129798   6.468   0.119   2.866  3.5388  1.5521 -0.0202
 2769TIP3    H229799   6.332   0.178   2.833  0.9918 -2.9007  1.9739
 2770TIP3   OH229800   6.742   6.274   0.488  0.6136  0.0704 -0.0404
 2770TIP3    H129801   6.675   6.222   0.444  0.2387  1.8089 -1.5957
 2770TIP3    H229802   6.716   6.273   0.581 -0.6805 -0.5564 -0.3939
 2771TIP3   OH229803   4.077   5.397   1.647 -0.0357 -0.4561  0.5687
 2771TIP3    H129804   3.999   5.452   1.652  0.7085  0.7205 -0.3160
 2771TIP3    H229805   4.091   5.385   1.553  1.2377 -0.0620  0.6987
 2772TIP3   OH229806   0.777   2.265  14.249  0.4588 -0.2769  0.4485
 2772TIP3    H129807   0.828   2.339  14.280 -0.6868  1.6528 -2.0578
 2772TIP3    H229808   0.832   2.224  14.182 -0.0054  0.0210 -0.1317
 2773TIP3   OH229809   2.300   1.817  11.665  0.1459 -0.1487  0.3157
 2773TIP3    H129810   2.252   1.863  11.734  0.4848 -0.0024  0.4525
 2773TIP3    H229811   2.246   1.827  11.587 -0.7892 -1.2432  0.8044
 2774TIP3   OH229812   4.532   0.506  13.239 -0.1732 -0.5084 -0.0327
 2774TIP3    H129813   4.543   0.454  13.160 -0.2095 -1.9641  0.8978
 2774TIP3    H229814   4.622   0.527  13.266 -0.1671  0.1732 -0.5689
 2775TIP3   OH229815   3.523   0.721  12.243  0.5425 -0.1775 -0.1341
 2775TIP3    H129816   3.455   0.741  12.307 -1.6056  0.3136 -2.5033
 2775TIP3    H229817   3.583   0.795  12.248  0.5660 -0.2972  1.5322
 2776TIP3   OH229818   4.507   5.006  11.033 -0.1698 -0.1359 -0.2664
 2776TIP3    H129819   4.519   4.940  11.101  2.5752 -2.1148 -2.5806
 2776TIP3    H229820   4.431   4.976  10.983  0.3257 -0.8947 -0.5673
 2777TIP3   OH229821   6.097   5.812  10.500  0.4962 -0.4766 -0.0668
 2777TIP3    H129822   6.044   5.737  10.528  0.3115 -0.0392  0.7738
 2777TIP3    H229823   6.102   5.804  10.405 -0.8284 -0.6859 -0.1210
 2778TIP3   OH229824   2.160   5.054   6.768  0.8074  1.0091  0.4413
 2778TIP3    H129825   2.215   5.116   6.720  1.5365  0.0378  0.0057
 2778TIP3    H229826   2.125   4.996   6.701 -0.1308  1.1441  0.8122
 2779TIP3   OH229827   6.515   4.805  13.904  0.6854 -0.0329 -0.1014
 2779TIP3    H129828   6.542   4.842  13.820 -2.6096  1.0902 -0.7069
 2779TIP3    H229829   6.504   4.711  13.887  1.2877 -0.0187 -0.5762
 2780TIP3   OH229830   0.582   6.810  17.001  0.2865  0.8664 -1.2667
 2780TIP3    H129831   0.508   6.856  16.963 -0.8380 -0.6122 -0.9075
 2780TIP3    H229832   0.549   6.722  17.021  0.5364  1.7385  3.7915
 2781TIP3   OH229833   2.195   1.359   0.077  0.5680  0.3841 -0.2153
 2781TIP3    H129834   2.166   1.409   0.000  1.3097 -0.4422 -1.0519
 2781TIP3    H229835   2.199   1.423   0.148 -0.6222  1.0589 -0.7387
 2782TIP3   OH229836   2.195   3.697   5.927  0.3384 -0.1626  0.3156
 2782TIP3    H129837   2.113   3.649   5.916  0.5305 -0.0867 -1.5948
 2782TIP3    H229838   2.174   3.787   5.901  1.0802 -0.1913 -0.3769
 2783TIP3   OH229839   0.327   3.251   3.143 -0.1193  0.2468 -0.3390
 2783TIP3    H129840   0.268   3.304   3.090 -0.1068 -1.0620 -1.7045
 2783TIP3    H229841   0.279   3.169   3.157  1.4200 -0.9363 -1.6804
 2784TIP3   OH229842   3.314   2.029  13.780 -0.0247 -0.8296  0.7537
 2784TIP3    H129843   3.309   2.095  13.849  1.6365  0.5348 -0.3778
 2784TIP3    H229844   3.226   2.028  13.742  0.5098  2.5432 -0.7846
 2785TIP3   OH229845   1.943   6.751  10.361 -0.0440 -0.5355 -0.3450
 2785TIP3    H129846   1.881   6.823  10.349 -0.1221 -0.5682 -0.1343
 2785TIP3    H229847   2.029   6.792  10.357 -0.1229 -0.1721  1.5638
 2786TIP3   OH229848   1.218   3.462  11.058  0.4131 -0.3053 -0.6642
 2786TIP3    H129849   1.221   3.500  11.146 -0.5133 -1.4880 -0.1178
 2786TIP3    H229850   1.192   3.536  11.002 -1.1599 -0.0431  0.3567
 2787TIP3   OH229851   3.225   4.518   0.453  0.3304 -0.1659 -0.1048
 2787TIP3    H129852   3.183   4.433   0.443 -0.6342  0.3435 -0.4662
 2787TIP3    H229853   3.172   4.564   0.518  1.3616 -0.1598  0.7509
 2788TIP3   OH229854   6.244   5.138  14.690  0.3481  0.2503  0.0976
 2788TIP3    H129855   6.315   5.201  14.681  0.2981  0.0946 -1.6255
 2788TIP3    H229856   6.257   5.077  14.617  0.2486 -1.5856  1.5718
 2789TIP3   OH229857   3.693   6.695  16.692 -0.1617  0.5502  0.8860
 2789TIP3    H129858   3.785   6.691  16.719  0.5640  2.6063 -1.1315
 2789TIP3    H229859   3.658   6.770  16.739 -0.2386  1.0529  0.0340
 2790TIP3   OH229860   3.873   1.826  11.559 -0.3058 -1.0337  0.5920
 2790TIP3    H129861   3.796   1.860  11.603  0.5998  0.9761  0.6967
 2790TIP3    H229862   3.844   1.746  11.517 -3.2264  1.2099 -1.8772
 2791TIP3   OH229863   0.835   6.546  10.149  0.6735 -0.1223  0.0953
 2791TIP3    H129864   0.798   6.567  10.063  0.5231  0.1876  0.2346
 2791TIP3    H229865   0.812   6.621  10.204  0.0299 -0.6943  0.6276
 2792TIP3   OH229866   4.187   5.917  15.150  0.0299  0.0476 -0.6690
 2792TIP3    H129867   4.192   5.853  15.221 -0.1206 -0.3092 -0.9828
 2792TIP3    H229868   4.097   5.910  15.119 -1.1445  3.0063  1.7553
 2793TIP3   OH229869   2.870   2.258   2.103 -0.2857  0.5599  0.4684
 2793TIP3    H129870   2.965   2.265   2.089 -0.5276  1.7398 -0.6132
 2793TIP3    H229871   2.841   2.348   2.113 -1.7072  0.4208 -1.9959
 2794TIP3   OH229872   2.163   4.794   0.385 -0.3031 -0.0063 -0.5199
 2794TIP3    H129873   2.216   4.854   0.333  0.4099 -0.8845 -0.8239
 2794TIP3    H229874   2.156   4.836   0.470  0.8357  0.1598 -0.4959
 2795TIP3   OH229875   5.010   1.324   2.652 -0.3077 -0.4531  0.4114
 2795TIP3    H129876   4.984   1.374   2.730  0.3485 -0.4578  0.6321
 2795TIP3    H229877   4.956   1.361   2.582 -0.4004  0.0273  0.7295
 2796TIP3   OH229878   1.949   6.283  12.033 -0.0221  0.2213  0.0682
 2796TIP3    H129879   1.859   6.251  12.029 -0.2020  0.7499 -0.2216
 2796TIP3    H229880   1.940   6.378  12.041  0.5155  0.3315 -0.6019
 2797TIP3   OH229881   1.794   2.581   1.428  0.4950 -0.3280 -0.2241
 2797TIP3    H129882   1.812   2.546   1.515 -0.6443  0.0805  0.1911
 2797TIP3    H229883   1.740   2.658   1.445  0.7003  0.0508 -1.2706
 2798TIP3   OH229884   0.896   0.164   2.852 -0.7241 -0.5714 -0.2532
 2798TIP3    H129885   0.838   0.095   2.818 -1.7973 -0.1554  0.7298
 2798TIP3    H229886   0.886   0.237   2.791  1.6773 -1.8178 -2.2684
 2799TIP3   OH229887   3.898   1.915  15.234  0.0684 -0.0728  0.4481
 2799TIP3    H129888   3.843   1.911  15.155 -1.0142 -1.2380  1.2489
 2799TIP3    H229889   3.841   1.885  15.304  1.9316 -1.8909  1.2175
 2800TIP3   OH229890   1.921   1.755   3.865 -1.0691  0.7401  0.0788
 2800TIP3    H129891   2.015   1.763   3.880 -0.8009 -0.0025 -1.1717
 2800TIP3    H229892   1.892   1.691   3.931 -0.5388  0.2879 -0.1241
 2801TIP3   OH229893   5.538   6.693  11.786 -0.6143  0.2100  0.0689
 2801TIP3    H129894   5.456   6.647  11.805  0.6901 -1.5671  1.5749
 2801TIP3    H229895   5.580   6.639  11.719  0.5172 -0.3360  1.1961
 2802TIP3   OH229896   1.788   0.383  12.530 -0.1682 -0.2512  0.8226
 2802TIP3    H129897   1.829   0.469  12.536 -0.4001 -0.1601  1.1073
 2802TIP3    H229898   1.862   0.322  12.526 -0.0019 -0.0093  0.1066
 2803TIP3   OH229899   6.039   6.571   5.362 -0.0288 -0.2315 -0.1835
 2803TIP3    H129900   5.998   6.494   5.322  0.4784 -0.3095 -0.5586
 2803TIP3    H229901   5.980   6.596   5.433 -1.1783  0.1828 -1.2790
 2804TIP3   OH229902   3.950   2.710   4.901 -0.6469 -0.3189  0.6751
 2804TIP3    H129903   3.971   2.803   4.888 -0.6034 -0.2342  1.3196
 2804TIP3    H229904   3.930   2.677   4.814 -2.1111  0.6630  0.6275
 2805TIP3   OH229905   0.596   4.305   3.990  0.2309 -0.0508  0.4342
 2805TIP3    H129906   0.661   4.250   3.945  0.8434  1.6201 -0.7842
 2805TIP3    H229907   0.519   4.300   3.934  0.3673  0.5142  0.1941
 2806TIP3   OH229908   3.133   1.025   4.926  0.1176 -0.7501  0.4541
 2806TIP3    H129909   3.086   0.993   4.849 -1.8277  1.1244  0.7911
 2806TIP3    H229910   3.127   0.953   4.989 -2.1244 -0.6891  0.3789
 2807TIP3   OH229911   1.407   4.343  11.756 -0.2856  0.0260 -0.2497
 2807TIP3    H129912   1.426   4.435  11.772 -2.0625  0.5697 -1.1195
 2807TIP3    H229913   1.452   4.323  11.674 -0.6073  0.3692 -0.5127
 2808TIP3   OH229914   4.074   0.057  13.237  0.1711 -0.1373  0.9526
 2808TIP3    H129915   4.045   0.056  13.328 -0.0737 -0.4055  0.8736
 2808TIP3    H229916   4.002   0.018  13.189  1.3845 -2.5074  0.9755
 2809TIP3   OH229917   6.497   5.553  15.583  0.0522 -0.0849  0.0985
 2809TIP3    H129918   6.440   5.483  15.551 -0.4151 -0.2700  1.3359
 2809TIP3    H229919   6.486   5.623  15.519 -1.1343 -0.3305  0.0163
 2810TIP3   OH229920   4.250   0.822   0.066 -0.2557  0.7723  0.3668
 2810TIP3    H129921   4.284   0.743   0.108  1.5199  1.3357  0.0360
 2810TIP3    H229922   4.157   0.823   0.088 -0.2965 -1.4039  0.3703
 2811TIP3   OH229923   6.255   1.981   1.977 -0.6001  0.2638  0.2428
 2811TIP3    H129924   6.313   1.981   1.901  0.4829  1.6690  1.0695
 2811TIP3    H229925   6.303   2.028   2.045 -1.4425 -1.2135  1.9034
 2812TIP3   OH229926   1.947   6.024  13.423 -0.0535 -0.2723 -0.0503
 2812TIP3    H129927   2.008   5.953  13.443 -1.9795 -1.8021  0.4694
 2812TIP3    H229928   1.996   6.103  13.447  2.3733 -1.3374 -1.2938
 2813TIP3   OH229929   5.289   2.762   3.209  0.2450  0.5235  0.1534
 2813TIP3    H129930   5.373   2.724   3.183  0.3342  1.2813 -0.6629
 2813TIP3    H229931   5.248   2.693   3.262  0.2178 -0.9356 -1.6821
 2814TIP3   OH229932   1.648   1.070   1.258 -0.2512 -0.2607 -0.0384
 2814TIP3    H129933   1.639   1.058   1.353 -1.9547  0.5479 -0.0820
 2814TIP3    H229934   1.664   0.982   1.224  0.0578 -0.5978  0.9678
 2815TIP3   OH229935   5.927   1.301  16.403  0.1899 -0.2620 -0.0470
 2815TIP3    H129936   6.004   1.246  16.393  0.0155 -0.4856 -0.1538
 2815TIP3    H229937   5.924   1.320  16.497  0.8846  0.4866 -0.1683
 2816TIP3   OH229938   2.432   5.374   2.233  0.6392 -0.0428  0.8052
 2816TIP3    H129939   2.477   5.324   2.164  0.1039 -0.7904  0.9942
 2816TIP3    H229940   2.424   5.462   2.197 -1.5077 -0.9190 -0.9625
 2817TIP3   OH229941   0.041   6.479   2.323  0.3547  0.0402  0.1428
 2817TIP3    H129942   0.106   6.409   2.337  0.3013 -0.0613 -0.1129
 2817TIP3    H229943   0.070   6.524   2.244 -0.1528 -0.3134 -0.2520
 2818TIP3   OH229944   0.321   5.014  14.934 -0.0585 -0.4719 -0.4230
 2818TIP3    H129945   0.409   4.978  14.945  0.3369  0.5332 -0.2380
 2818TIP3    H229946   0.335   5.107  14.914 -1.1610  0.4510  2.7838
 2819TIP3   OH229947   6.581   5.008   0.423 -0.3297  0.4821 -0.0356
 2819TIP3    H129948   6.614   5.042   0.506  1.1611  1.8310 -1.1444
 2819TIP3    H229949   6.640   5.044   0.357 -0.7626 -1.5470 -1.5868
 2820TIP3   OH229950   3.905   5.012   4.443  0.5023  0.8153  0.1917
 2820TIP3    H129951   3.843   5.080   4.468 -0.4870 -0.7256  2.0930
 2820TIP3    H229952   3.891   4.942   4.508  3.3999 -0.0477 -0.0532
 2821TIP3   OH229953   0.702   6.018   6.204  0.2492 -0.3821 -0.7353
 2821TIP3    H129954   0.611   6.005   6.177  0.0186 -0.2814 -0.0283
 2821TIP3    H229955   0.750   6.033   6.123 -0.6226  1.0962 -0.9841
 2822TIP3   OH229956   4.797   1.498   1.528  0.2714 -0.1250  0.3919
 2822TIP3    H129957   4.734   1.485   1.598  1.3276 -1.3384  1.1363
 2822TIP3    H229958   4.830   1.410   1.508  0.7267  0.3299 -0.9203
 2823TIP3   OH229959   3.379   6.416   2.380 -0.7616  0.0564  0.0011
 2823TIP3    H129960   3.296   6.446   2.418 -1.5154 -0.5195 -1.1820
 2823TIP3    H229961   3.394   6.331   2.421 -1.0787 -0.1225 -0.2487
 2824TIP3   OH229962   4.678   0.083  15.402  0.0922 -0.2774 -0.0306
 2824TIP3    H129963   4.635   0.139  15.466  1.6095 -0.9511  1.6302
 2824TIP3    H229964   4.765   0.067  15.440  1.0004 -0.7170 -2.2444
 2825TIP3   OH229965   2.072   4.780   5.369  0.2659 -0.5385  0.5772
 2825TIP3    H129966   2.122   4.716   5.318  0.9505 -0.7089  1.4411
 2825TIP3    H229967   2.120   4.862   5.357  1.6922 -1.0280  2.6810
 2826TIP3   OH229968   0.209   1.490  14.177 -0.0339 -0.2150  0.0693
 2826TIP3    H129969   0.265   1.484  14.254  0.7404  0.3678 -0.4418
 2826TIP3    H229970   0.140   1.426  14.193 -0.6141  0.8208  1.8428
 2827TIP3   OH229971   3.672   0.277   6.357  1.0474 -0.1525 -0.3746
 2827TIP3    H129972   3.634   0.192   6.381  0.9570  0.2398  0.9411
 2827TIP3    H229973   3.750   0.255   6.306 -0.2714 -0.9842 -2.0950
 2828TIP3   OH229974   1.524   0.071  13.495  0.5976 -0.0239  0.1092
 2828TIP3    H129975   1.533   0.003  13.428  1.3190 -3.2587  3.3260
 2828TIP3    H229976   1.614   0.088  13.524  0.2126  0.6052  0.9339
 2829TIP3   OH229977   4.422   0.650   4.136 -0.0082 -0.2541  0.1047
 2829TIP3    H129978   4.510   0.622   4.111  0.6400  2.0028 -0.3291
 2829TIP3    H229979   4.368   0.633   4.058  0.3370 -0.3871 -0.1063
 2830TIP3   OH229980   1.521   1.739  12.430 -0.1822 -0.3375 -0.0437
 2830TIP3    H129981   1.437   1.742  12.477  0.0064  0.8116  0.2377
 2830TIP3    H229982   1.565   1.821  12.454  0.9931 -0.8922 -0.2462
 2831TIP3   OH229983   3.869   3.678  12.782 -0.3490 -0.0738 -0.3324
 2831TIP3    H129984   3.803   3.747  12.772 -0.1951  0.2514  0.7632
 2831TIP3    H229985   3.863   3.626  12.702 -1.1885  0.5994 -0.7109
 2832TIP3   OH229986   2.007   5.162  11.380  0.1004  0.3159  0.3042
 2832TIP3    H129987   2.093   5.168  11.338  1.0838 -0.2426  2.1812
 2832TIP3    H229988   1.980   5.252  11.392  0.8194  0.5096  0.4927
 2833TIP3   OH229989   5.624   0.247  15.599  0.0441  0.0297 -0.1953
 2833TIP3    H129990   5.568   0.324  15.609  1.3326  0.9600 -0.0416
 2833TIP3    H229991   5.590   0.185  15.664 -1.7313 -0.0107 -1.1041
 2834TIP3   OH229992   5.799   5.385  11.593  0.0514  0.4313 -0.4819
 2834TIP3    H129993   5.834   5.296  11.606  0.4009  0.2442 -2.5711
 2834TIP3    H229994   5.863   5.428  11.537  0.2901  2.2984  1.1785
 2835TIP3   OH229995   1.976   5.131   1.100 -0.3560 -0.0305 -0.4790
 2835TIP3    H129996   1.957   5.066   1.167  1.1433 -2.4864 -2.3551
 2835TIP3    H229997   1.892   5.147   1.057 -1.0093  0.3825  0.9412
 2836TIP3   OH229998   0.312   4.522  12.590 -0.0334  0.2641 -1.1422
 2836TIP3    H129999   0.367   4.483  12.658  0.8317 -0.0904 -2.0317
 2836TIP3    H230000   0.254   4.582  12.637 -0.0789 -0.6773  0.0164
 2837TIP3   OH230001   2.235   1.935   3.184  0.5971 -0.2549 -0.2663
 2837TIP3    H130002   2.263   1.847   3.208 -0.2237 -0.5632 -0.4343
 2837TIP3    H230003   2.273   1.951   3.098  2.2851  0.2668  0.5638
 2838TIP3   OH230004   5.327   5.498  14.139  0.0757  0.2355  0.6393
 2838TIP3    H130005   5.277   5.474  14.217 -1.6917 -0.1375 -0.5743
 2838TIP3    H230006   5.365   5.415  14.108  1.8621  0.5901  1.8141
 2839TIP3   OH230007   2.647   2.962  11.568  0.2642 -0.4042  0.3503
 2839TIP3    H130008   2.726   3.013  11.587 -1.6610  2.5448  0.5618
 2839TIP3    H230009   2.629   2.979  11.475 -1.3287  0.6695  0.8430
 2840TIP3   OH230010   2.834   1.716  11.700 -0.7365 -0.3767 -0.2800
 2840TIP3    H130011   2.878   1.704  11.784  2.2415  2.1770 -1.3752
 2840TIP3    H230012   2.763   1.777  11.717  0.4776  0.9206  0.2537
 2841TIP3   OH230013   4.268   5.936  13.905 -0.3800  0.5089  0.6988
 2841TIP3    H130014   4.336   6.001  13.921 -0.9637  1.1188  0.7360
 2841TIP3    H230015   4.273   5.918  13.811  0.9094 -0.6672  0.9814
 2842TIP3   OH230016   1.102   2.225  13.251  0.2196  0.4365  0.3726
 2842TIP3    H130017   1.195   2.243  13.266  0.5069  1.1708 -1.9897
 2842TIP3    H230018   1.102   2.152  13.190 -0.7243  1.0737 -0.4054
 2843TIP3   OH230019   1.782   1.968   1.904 -0.1007  0.1045 -0.0471
 2843TIP3    H130020   1.764   2.045   1.849  0.3689 -0.4179 -0.9365
 2843TIP3    H230021   1.772   2.000   1.994  1.0951  1.4643 -0.3798
 2844TIP3   OH230022   1.269   6.565  13.860  0.5920 -0.0517  0.2840
 2844TIP3    H130023   1.357   6.570  13.896  0.9656 -0.3487 -0.5943
 2844TIP3    H230024   1.275   6.502  13.789 -0.8188 -1.7960  1.6511
 2845TIP3   OH230025   4.374   0.737  13.225  0.6407 -0.0136 -0.3652
 2845TIP3    H130026   4.351   0.756  13.316 -1.9281 -0.1596 -0.9299
 2845TIP3    H230027   4.422   0.654  13.230  0.4182 -0.0855  0.8545
 2846TIP3   OH230028   1.176   6.360  13.402 -0.5411  0.1227 -0.3994
 2846TIP3    H130029   1.145   6.425  13.339  1.1899  0.3126 -1.0986
 2846TIP3    H230030   1.113   6.288  13.396 -0.6146  0.3066 -2.0925
 2847TIP3   OH230031   3.545   5.249  15.835  0.1134 -0.7660  0.0387
 2847TIP3    H130032   3.582   5.336  15.825 -0.3659 -0.4712  0.7965
 2847TIP3    H230033   3.621   5.191  15.838  0.4194 -0.4074 -0.7899
 2848TIP3   OH230034   3.866   5.595   2.590  0.6993 -0.3517 -0.9126
 2848TIP3    H130035   3.854   5.631   2.678 -1.4334  1.0357 -1.7288
 2848TIP3    H230036   3.905   5.666   2.539  1.1766 -0.8751 -1.2817
 2849TIP3   OH230037   0.158   2.947   0.249  0.0053 -0.3751 -0.0776
 2849TIP3    H130038   0.096   2.971   0.180  0.6151  1.2680 -0.0739
 2849TIP3    H230039   0.119   2.870   0.291 -1.7538  0.2993 -0.4398
 2850TIP3   OH230040   4.963   3.268  11.284  0.1924 -0.0115 -0.3922
 2850TIP3    H130041   4.978   3.227  11.369 -0.6311  0.2264 -0.1280
 2850TIP3    H230042   5.019   3.219  11.224  0.3260 -0.5670  0.1785
 2851TIP3   OH230043   6.632   6.509   5.905 -0.4542 -0.5102  0.4991
 2851TIP3    H130044   6.571   6.524   5.832 -0.2025  0.5249  0.5009
 2851TIP3    H230045   6.576   6.490   5.980 -0.7919  0.5059  0.5164
 2852TIP3   OH230046   2.467   0.339   0.881  0.4375 -0.0564  0.5882
 2852TIP3    H130047   2.486   0.264   0.938  2.5058  0.1647  0.1984
 2852TIP3    H230048   2.451   0.411   0.941 -0.8563 -0.6263  0.9524
 2853TIP3   OH230049   0.292   1.200   5.518 -0.0224  0.3874  0.1577
 2853TIP3    H130050   0.377   1.238   5.540  0.7083 -0.4629 -1.0948
 2853TIP3    H230051   0.275   1.138   5.588  1.3331 -0.8605 -0.5866
 2854TIP3   OH230052   6.181   6.448   4.091 -0.3861 -1.0153 -0.2074
 2854TIP3    H130053   6.235   6.439   4.012 -1.1930  1.1588 -1.0157
 2854TIP3    H230054   6.109   6.387   4.076 -0.1263 -1.1942 -0.7886
 2855TIP3   OH230055   1.660   1.396   4.986  0.5490  1.2001 -0.3274
 2855TIP3    H130056   1.580   1.369   5.032 -0.4370  4.1413 -0.2445
 2855TIP3    H230057   1.723   1.412   5.057  0.4625  1.2554 -0.2627
 2856TIP3   OH230058   1.717   4.606  12.049 -0.0058 -0.2541  0.0242
 2856TIP3    H130059   1.775   4.536  12.018  0.9850  0.4946  0.1435
 2856TIP3    H230060   1.644   4.560  12.091 -0.5124 -1.2485 -1.8858
 2857TIP3   OH230061   2.355   2.193   3.246  0.0528  0.7522  0.3849
 2857TIP3    H130062   2.270   2.235   3.258 -0.4315 -0.2342  0.4993
 2857TIP3    H230063   2.339   2.101   3.266  0.8045  0.2829 -1.0829
 2858TIP3   OH230064   4.466   5.898   1.340  0.0658 -0.5297  0.0178
 2858TIP3    H130065   4.466   5.985   1.300 -2.3168  1.4156  3.9236
 2858TIP3    H230066   4.558   5.884   1.364  0.5761  0.6638 -1.1441
 2859TIP3   OH230067   5.682   4.441   3.178  0.2677  0.5437 -0.2600
 2859TIP3    H130068   5.642   4.482   3.255  0.3724 -0.3979  0.3110
 2859TIP3    H230069   5.609   4.430   3.116 -0.0162  0.4234  0.0905
 2860TIP3   OH230070   0.938   5.970  12.237 -0.0045 -0.2340  0.2397
 2860TIP3    H130071   0.879   6.041  12.212 -0.1239 -0.3411  0.2196
 2860TIP3    H230072   0.974   5.937  12.154  1.6811  1.2075  0.3726
 2861TIP3   OH230073   0.477   2.521   0.703 -0.1946  0.0478 -0.0932
 2861TIP3    H130074   0.419   2.575   0.650  0.8559 -0.5250 -1.8655
 2861TIP3    H230075   0.445   2.432   0.691 -0.1588 -0.0516  0.5141
 2862TIP3   OH230076   2.513   0.056   3.380  0.0697 -0.2800 -0.0701
 2862TIP3    H130077   2.548   0.006   3.453  1.4819 -0.0702 -0.5818
 2862TIP3    H230078   2.440   0.105   3.417 -0.4306 -1.6377  0.7485
 2863TIP3   OH230079   5.157   0.339   1.318 -0.0749  0.0228  0.3910
 2863TIP3    H130080   5.210   0.357   1.396  0.6992  0.6611 -0.2789
 2863TIP3    H230081   5.154   0.243   1.313  0.1683 -0.0204  0.9943
 2864TIP3   OH230082   4.413   4.314   1.018  0.6975 -0.1728  0.0937
 2864TIP3    H130083   4.460   4.384   1.062  0.3887 -0.7373  1.3673
 2864TIP3    H230084   4.337   4.297   1.074  0.4280 -1.0895 -0.5269
 2865TIP3   OH230085   0.105   5.714   3.017 -0.2527  0.3704  0.4343
 2865TIP3    H130086   0.127   5.745   2.929 -1.3715  1.8655  0.6488
 2865TIP3    H230087   0.124   5.621   3.015  0.0895  0.4523 -1.2826
 2866TIP3   OH230088   4.053   2.467  14.935 -0.0871  0.0803  0.2715
 2866TIP3    H130089   3.991   2.468  14.862 -1.0450  0.6233  1.0896
 2866TIP3    H230090   4.064   2.375  14.957 -2.5202  0.0978  1.7323
 2867TIP3   OH230091   2.134   0.708   4.575  0.4214  0.4874 -0.1593
 2867TIP3    H130092   2.147   0.645   4.646 -0.8302  1.1264  0.6537
 2867TIP3    H230093   2.040   0.726   4.575  0.5438  1.2068 -1.3781
 2868TIP3   OH230094   6.202   5.046   0.021  0.5003 -0.1879 -0.0271
 2868TIP3    H130095   6.276   5.005   0.066 -0.1561 -1.5022 -0.1138
 2868TIP3    H230096   6.140   5.066   0.092  1.0838  1.2677  0.0970
 2869TIP3   OH230097   1.370   0.211  16.199  0.3378  0.0434  0.3833
 2869TIP3    H130098   1.283   0.228  16.234  0.7622  0.1577  1.3912
 2869TIP3    H230099   1.418   0.293  16.213  0.4398  0.1666 -0.6730
 2870TIP3   OH230100   3.884   5.765   0.355  0.2640 -0.0804  0.1765
 2870TIP3    H130101   3.835   5.757   0.273  0.6907 -0.9113  0.0039
 2870TIP3    H230102   3.936   5.845   0.344 -1.2035  0.9291  0.4447
 2871TIP3   OH230103   2.451   2.553   1.229 -0.2848 -0.2470  1.0154
 2871TIP3    H130104   2.499   2.614   1.173 -0.9196 -0.6760 -0.0089
 2871TIP3    H230105   2.517   2.490   1.257  0.5672  1.3574  2.7737
 2872TIP3   OH230106   0.726   6.767   0.956 -0.5963  0.0794  0.3807
 2872TIP3    H130107   0.789   6.803   0.893 -1.1390  0.3634  0.0016
 2872TIP3    H230108   0.641   6.794   0.923 -0.8048  1.8037  2.2066
 2873TIP3   OH230109   6.173   1.353   1.534 -0.0632  0.2401 -0.3528
 2873TIP3    H130110   6.186   1.312   1.449  0.7424  0.9859 -0.5983
 2873TIP3    H230111   6.236   1.309   1.591 -0.2246  0.1199 -0.2648
 2874TIP3   OH230112   2.281   6.412   2.575 -0.0767  0.2831 -0.1221
 2874TIP3    H130113   2.201   6.391   2.623  0.0143  1.9380  0.8108
 2874TIP3    H230114   2.275   6.361   2.494 -2.5004  1.0359 -0.4530
 2875TIP3   OH230115   2.653   2.581  13.512 -0.2559 -0.1474  0.2637
 2875TIP3    H130116   2.637   2.486  13.511 -0.0533 -0.2104  1.8476
 2875TIP3    H230117   2.742   2.590  13.544 -0.6119  0.6064  1.0663
 2876TIP3   OH230118   4.125   3.029   5.131  0.1623 -0.1782  0.1532
 2876TIP3    H130119   4.146   2.982   5.049  0.2617  0.1893 -0.0336
 2876TIP3    H230120   4.040   2.995   5.157 -0.9397  1.3634 -1.3324
 2877TIP3   OH230121   4.404   2.275   1.114  0.2079  0.4689  0.1445
 2877TIP3    H130122   4.488   2.260   1.157 -0.6803  1.1178  2.2010
 2877TIP3    H230123   4.422   2.339   1.046  1.9915 -1.8791 -1.6928
 2878TIP3   OH230124   6.405   1.242   0.437 -0.2279 -0.1331 -0.2040
 2878TIP3    H130125   6.314   1.211   0.430 -0.5435  0.7844 -0.2908
 2878TIP3    H230126   6.457   1.163   0.449 -0.8375 -0.8344 -2.0434
 2879TIP3   OH230127   3.722   1.075  12.020  0.0397 -0.5635  0.5905
 2879TIP3    H130128   3.661   1.029  11.962 -0.8610  0.8323  0.4032
 2879TIP3    H230129   3.670   1.147  12.057  1.4706  0.4210  0.7140
 2880TIP3   OH230130   3.155   5.125  16.369 -0.0424 -0.5461 -0.2775
 2880TIP3    H130131   3.102   5.064  16.317 -0.0385  0.4883 -1.5368
 2880TIP3    H230132   3.101   5.145  16.445 -1.7409  0.8840 -1.7849
 2881TIP3   OH230133   2.709   4.927   3.325  0.6175 -0.4509 -0.1710
 2881TIP3    H130134   2.638   4.946   3.386  1.7701  1.0782  0.7242
 2881TIP3    H230135   2.739   4.839   3.350  0.0908 -0.4557  0.4756
 2882TIP3   OH230136   2.419   2.939   4.976 -0.2126 -0.1800  0.2808
 2882TIP3    H130137   2.351   2.890   4.929  0.8430 -0.2612 -1.1733
 2882TIP3    H230138   2.491   2.876   4.986  0.1215  0.2758  0.7715
 2883TIP3   OH230139   3.744   4.356  14.618 -0.2982 -0.5381 -0.0121
 2883TIP3    H130140   3.654   4.389  14.612 -0.2776 -0.5747 -0.5275
 2883TIP3    H230141   3.753   4.328  14.709  0.4192  2.9651  1.0689
 2884TIP3   OH230142   5.901   4.237  11.913 -0.1736  0.6598 -0.3341
 2884TIP3    H130143   5.922   4.310  11.855 -3.5119  2.8057  0.9983
 2884TIP3    H230144   5.865   4.170  11.854  0.9234  0.9075 -1.3020
 2885TIP3   OH230145   4.108   1.268   1.275 -0.0834 -0.6045 -0.1148
 2885TIP3    H130146   4.196   1.250   1.242 -0.1017 -0.0140 -0.4828
 2885TIP3    H230147   4.106   1.227   1.362  1.3886  1.5421  0.9833
 2886TIP3   OH230148   2.193   4.136  11.193  0.0910  0.0615  0.1168
 2886TIP3    H130149   2.123   4.074  11.211 -1.0999  1.1860 -0.5886
 2886TIP3    H230150   2.229   4.157  11.279  1.0067 -2.1497  0.3195
 2887TIP3   OH230151   3.725   0.092   0.731  0.7614 -0.3429 -0.7057
 2887TIP3    H130152   3.675   0.086   0.650  0.0694 -1.4641 -0.2216
 2887TIP3    H230153   3.816   0.083   0.705  0.6901  1.3966 -1.5712
 2888TIP3   OH230154   2.304   3.991  10.381 -0.4315 -0.4809 -0.9959
 2888TIP3    H130155   2.358   4.069  10.365  0.2432 -0.6731  0.2859
 2888TIP3    H230156   2.309   3.977  10.475 -0.5282 -2.1118 -1.2184
 2889TIP3   OH230157   3.424   1.847   3.186  0.6922  0.0353  0.3119
 2889TIP3    H130158   3.470   1.931   3.186  0.4072  0.1952  0.1542
 2889TIP3    H230159   3.391   1.839   3.096  0.2753  0.0031  0.4667
 2890TIP3   OH230160   1.308   3.375   0.943 -0.7632 -0.5318  0.1504
 2890TIP3    H130161   1.392   3.385   0.987 -0.6081  0.4498 -0.3608
 2890TIP3    H230162   1.300   3.281   0.926 -0.1965 -0.7421  1.0209
 2891TIP3   OH230163   0.361   1.705   2.618 -0.4151 -0.0502 -0.1559
 2891TIP3    H130164   0.306   1.626   2.614 -0.2482 -0.1333 -0.8833
 2891TIP3    H230165   0.419   1.690   2.693  0.1839 -1.0083 -0.7876
 2892TIP3   OH230166   1.520   5.962  13.441  0.1145 -0.2289  0.4849
 2892TIP3    H130167   1.591   5.903  13.465  0.0981  0.1824  1.5803
 2892TIP3    H230168   1.561   6.031  13.390  0.4646 -0.0878  0.9633
 2893TIP3   OH230169   3.343   4.618   3.404 -0.3823  0.6793 -0.6351
 2893TIP3    H130170   3.410   4.652   3.464 -0.3510 -0.7957  0.1801
 2893TIP3    H230171   3.388   4.613   3.319  0.4730 -0.0510 -0.1524
 2894TIP3   OH230172   5.018   2.832  14.675 -0.5733  0.6377 -0.7126
 2894TIP3    H130173   5.024   2.816  14.769 -0.7689  1.5056 -0.5429
 2894TIP3    H230174   4.952   2.770  14.644 -0.5795  0.4189 -0.2602
 2895TIP3   OH230175   5.281   1.858  15.888  0.5057 -0.2636  0.4140
 2895TIP3    H130176   5.216   1.807  15.840  0.2940  0.8068 -0.4381
 2895TIP3    H230177   5.232   1.932  15.924  1.3221  0.7482 -0.5492
 2896TIP3   OH230178   5.003   0.713   1.771 -0.8692  0.2561  0.5325
 2896TIP3    H130179   5.050   0.661   1.836 -1.7207  0.1658  1.0818
 2896TIP3    H230180   5.048   0.695   1.688 -0.0380  0.0578  1.0282
 2897TIP3   OH230181   2.538   6.464  13.673 -0.3940 -0.6932 -0.4031
 2897TIP3    H130182   2.572   6.414  13.747 -1.7593 -0.6046  0.2960
 2897TIP3    H230183   2.613   6.474  13.615  0.9087 -0.0755  1.3376
 2898TIP3   OH230184   1.725   2.080   4.806  0.2122 -0.0481 -0.4573
 2898TIP3    H130185   1.819   2.079   4.791  0.6771 -1.5237  2.2520
 2898TIP3    H230186   1.692   2.150   4.750  3.0444  1.1408 -0.6966
 2899TIP3   OH230187   3.097   3.182  13.920  0.1389 -0.2136  0.1525
 2899TIP3    H130188   3.174   3.126  13.930  0.3946  0.2975  1.1261
 2899TIP3    H230189   3.096   3.207  13.828  0.4279 -1.2387 -0.1334
 2900TIP3   OH230190   6.001   3.325   6.396  0.3470 -0.3822 -0.4094
 2900TIP3    H130191   5.999   3.393   6.463  0.2878 -0.1061 -0.6883
 2900TIP3    H230192   6.005   3.243   6.445  2.1764 -0.1156 -0.0855
 2901TIP3   OH230193   5.841   5.041   2.892  0.5624 -0.1100 -0.1939
 2901TIP3    H130194   5.787   5.056   2.814 -1.1221 -1.3512  0.6987
 2901TIP3    H230195   5.861   4.947   2.890  0.7227 -0.0996  0.7184
 2902TIP3   OH230196   6.276   5.458   6.134  0.2580  0.1904  0.3646
 2902TIP3    H130197   6.233   5.500   6.060 -0.3200 -0.4866  0.3151
 2902TIP3    H230198   6.326   5.386   6.096  1.4433  0.9606  0.4222
 2903TIP3   OH230199   0.186   2.680  14.393 -0.0067  0.6475  0.2499
 2903TIP3    H130200   0.272   2.663  14.430 -0.6906 -2.5797  0.5189
 2903TIP3    H230201   0.186   2.774  14.374  3.1008  0.9297  1.3501
 2904TIP3   OH230202   2.824   2.071   0.779 -0.4437  0.2216  0.0307
 2904TIP3    H130203   2.861   2.158   0.761  0.0326  0.2058  0.8758
 2904TIP3    H230204   2.901   2.015   0.793 -0.7322 -0.4923 -1.1959
 2905TIP3   OH230205   4.522   2.388  11.427  0.0073 -0.2311  0.1683
 2905TIP3    H130206   4.602   2.346  11.396  0.7920  0.8564  0.6703
 2905TIP3    H230207   4.452   2.354  11.370  1.0412 -0.1279 -1.1841
 2906TIP3   OH230208   6.785   5.684  17.064  0.0387 -0.1722 -0.0555
 2906TIP3    H130209   6.864   5.713  17.110  0.4235 -0.4900 -0.5225
 2906TIP3    H230210   6.725   5.659  17.134 -0.8526  3.1058  0.4573
 2907TIP3   OH230211   3.751   6.608   5.179  0.2601  0.1809  0.0863
 2907TIP3    H130212   3.745   6.618   5.274 -1.2609  1.5077 -0.1291
 2907TIP3    H230213   3.665   6.574   5.153  1.4670 -2.5466 -0.5694
 2908TIP3   OH230214   1.469   5.020  15.152  0.3088 -0.0131 -0.8408
 2908TIP3    H130215   1.495   5.054  15.067 -0.6881 -0.5328 -1.3580
 2908TIP3    H230216   1.484   5.093  15.212  1.5452  0.1722 -1.3563
 2909TIP3   OH230217   0.258   3.122  13.292 -0.5129  0.2409  0.0200
 2909TIP3    H130218   0.198   3.082  13.229 -0.3342  0.4230 -0.2656
 2909TIP3    H230219   0.251   3.067  13.370 -1.2241  0.3898  0.0681
 2910TIP3   OH230220   6.266   6.643   5.502  0.4549  0.0639  0.2100
 2910TIP3    H130221   6.231   6.713   5.557 -0.7214 -1.0601  0.9079
 2910TIP3    H230222   6.189   6.596   5.470  1.1371  0.4822 -2.1432
 2911TIP3   OH230223   4.244   2.731  13.443  0.3902  0.1256 -0.0563
 2911TIP3    H130224   4.264   2.685  13.361 -1.1684  1.4541 -1.2000
 2911TIP3    H230225   4.330   2.755  13.479  1.0526 -0.0101 -1.5360
 2912TIP3   OH230226   5.650   6.320  11.882 -0.3486 -0.3761  0.5352
 2912TIP3    H130227   5.630   6.357  11.968  0.7954 -0.3746  0.8000
 2912TIP3    H230228   5.745   6.323  11.875 -0.5210  2.2959 -1.9206
 2913TIP3   OH230229   4.895   3.891  14.495  0.4037  0.0859  0.1298
 2913TIP3    H130230   4.843   3.959  14.452  1.1373 -0.0831 -1.0268
 2913TIP3    H230231   4.884   3.908  14.589  0.5118  1.7511 -0.1490
 2914TIP3   OH230232   4.180   5.070   0.583 -0.0279  0.0774 -0.0057
 2914TIP3    H130233   4.101   5.017   0.596 -0.0102 -0.5270 -2.1542
 2914TIP3    H230234   4.250   5.007   0.568  0.6350  0.6483  0.6087
 2915TIP3   OH230235   0.104   3.081   5.517  0.1575  0.0020 -0.2765
 2915TIP3    H130236   0.091   2.987   5.500  0.5805 -0.1504  0.2215
 2915TIP3    H230237   0.198   3.089   5.535  0.2609  0.6472 -1.0963
 2916TIP3   OH230238   4.974   1.766  11.358  0.2488 -0.2586  0.2689
 2916TIP3    H130239   4.966   1.673  11.338  0.1016  0.0140 -0.9820
 2916TIP3    H230240   4.902   1.783  11.420 -0.6961 -0.6554 -0.6912
 2917TIP3   OH230241   2.510   0.175  12.384  0.1932  0.1522 -0.4661
 2917TIP3    H130242   2.563   0.244  12.424  0.9790 -0.2839 -0.7432
 2917TIP3    H230243   2.435   0.164  12.443 -0.8306  2.4127 -1.2678
 2918TIP3   OH230244   2.647   4.708  13.325  0.0014 -0.5075  0.0892
 2918TIP3    H130245   2.638   4.618  13.294 -1.1971 -0.4897  0.3596
 2918TIP3    H230246   2.625   4.704  13.418 -1.6398  0.3253 -0.2506
 2919TIP3   OH230247   3.508   4.421  11.638  0.6776 -0.2308 -0.1839
 2919TIP3    H130248   3.485   4.344  11.587 -0.3608 -1.5607  2.1705
 2919TIP3    H230249   3.529   4.386  11.725 -0.4913  2.1581  1.1138
 2920TIP3   OH230250   3.802   2.804   6.176  0.8210  0.6293 -0.5924
 2920TIP3    H130251   3.868   2.868   6.201 -0.4035  2.4184 -1.8362
 2920TIP3    H230252   3.784   2.823   6.084 -1.6931  0.4058 -0.1714
 2921TIP3   OH230253   1.769   0.439   5.935  0.8602  0.4501  0.7109
 2921TIP3    H130254   1.711   0.471   6.004  0.5442 -0.7781  1.0272
 2921TIP3    H230255   1.857   0.451   5.971  0.6936 -0.3199  1.4000
 2922TIP3   OH230256   0.516   6.759   5.390  0.0894  0.5515  0.0142
 2922TIP3    H130257   0.478   6.837   5.431 -2.5827 -1.7701  2.1154
 2922TIP3    H230258   0.469   6.750   5.307 -1.2872 -0.1446  0.8600
 2923TIP3   OH230259   4.237   5.071  14.117 -0.1111 -0.1324  0.5640
 2923TIP3    H130260   4.156   5.030  14.087  0.9182 -1.6499 -0.2306
 2923TIP3    H230261   4.297   5.062  14.042  1.6655 -1.5684  2.0990
 2924TIP3   OH230262   0.619   2.231   4.295 -0.7031 -0.1559 -0.2725
 2924TIP3    H130263   0.644   2.145   4.327  2.2108  0.8322  0.2056
 2924TIP3    H230264   0.621   2.288   4.372  2.0816  1.3039 -1.3370
 2925TIP3   OH230265   2.423   5.893   3.321 -0.1165  0.2015  0.0928
 2925TIP3    H130266   2.508   5.849   3.311  0.1352  0.2863  1.6843
 2925TIP3    H230267   2.446   5.983   3.344 -0.6369  0.9026 -2.0134
 2926TIP3   OH230268   3.793   3.325  13.110 -0.2520  0.7284  0.0744
 2926TIP3    H130269   3.869   3.381  13.127 -0.1651  0.4144  0.7400
 2926TIP3    H230270   3.781   3.330  13.015  2.3092 -1.4223 -0.4322
 2927TIP3   OH230271   6.413   2.423   4.802  0.4251  0.4334  0.0375
 2927TIP3    H130272   6.501   2.423   4.763  0.1918  2.1341 -0.5344
 2927TIP3    H230273   6.360   2.370   4.742  0.9685 -0.3043  0.1977
 2928TIP3   OH230274   2.947   5.925   1.274 -0.1626  0.3284  0.1082
 2928TIP3    H130275   2.962   5.833   1.250 -1.1779 -0.5694  2.6536
 2928TIP3    H230276   3.035   5.960   1.291  0.0680 -0.9359  1.6236
 2929TIP3   OH230277   6.456   0.433   1.182  0.1045  0.5852  0.1036
 2929TIP3    H130278   6.440   0.343   1.211  0.7844  0.7010  0.8523
 2929TIP3    H230279   6.382   0.454   1.125 -0.9459  0.1463  1.2975
 2930TIP3   OH230280   6.051   1.450  15.677  0.4915 -0.1378  0.0204
 2930TIP3    H130281   6.005   1.533  15.671  0.1764 -0.2800  0.4572
 2930TIP3    H230282   6.029   1.416  15.763  0.0288 -1.0154 -0.4348
 2931TIP3   OH230283   4.369   3.769  15.988 -0.5719  0.4636 -0.2580
 2931TIP3    H130284   4.424   3.774  15.910 -1.6326  1.2708 -0.9730
 2931TIP3    H230285   4.425   3.798  16.060  0.4589 -0.4399 -0.6788
 2932TIP3   OH230286   2.921   5.286  16.481  0.1767  0.5019  0.0216
 2932TIP3    H130287   2.903   5.315  16.391  1.7962  1.8034  0.0979
 2932TIP3    H230288   2.998   5.336  16.507 -0.0303 -0.1825  1.9994
 2933TIP3   OH230289   6.258   4.129  12.057 -0.1143 -0.3500 -0.2935
 2933TIP3    H130290   6.232   4.111  12.147  1.7409 -1.2439  0.0910
 2933TIP3    H230291   6.351   4.151  12.063 -0.5780  2.0931 -1.6916
 2934TIP3   OH230292   3.146   6.534  17.000  0.4774 -0.5992  0.6546
 2934TIP3    H130293   3.114   6.509  16.913  0.5405 -0.2185  0.5177
 2934TIP3    H230294   3.238   6.507  17.000  1.0747  1.2982 -0.1987
 2935TIP3   OH230295   4.174   5.127   3.754 -0.0837  0.3430 -0.4035
 2935TIP3    H130296   4.263   5.121   3.787  0.6215  1.6078 -1.9868
 2935TIP3    H230297   4.181   5.100   3.662 -1.8799 -2.5204  0.2536
 2936TIP3   OH230298   3.128   4.287   2.311  0.5042 -0.3811  0.2575
 2936TIP3    H130299   3.117   4.253   2.222  1.0149 -0.6004  0.2771
 2936TIP3    H230300   3.115   4.210   2.367  0.7383 -0.3554  0.3457
 2937TIP3   OH230301   4.235   2.454   5.196 -0.7495  0.3717 -0.5874
 2937TIP3    H130302   4.257   2.371   5.154 -0.8920  1.2523 -2.4257
 2937TIP3    H230303   4.222   2.515   5.124 -3.8795  1.2200  0.5845
 2938TIP3   OH230304   2.411   5.951  17.238 -0.0279 -0.9044 -0.1542
 2938TIP3    H130305   2.393   5.921  17.327  0.2881 -0.6429 -0.0021
 2938TIP3    H230306   2.477   6.020  17.248 -0.1575 -0.7148 -0.5712
 2939TIP3   OH230307   0.888   4.345   6.457  0.6677 -0.0073  0.2794
 2939TIP3    H130308   0.804   4.369   6.498  1.3787  1.0862  1.1260
 2939TIP3    H230309   0.863   4.291   6.383 -0.8636  1.0132  0.0124
 2940TIP3   OH230310   1.639   0.309   0.098  0.3182 -0.0768  0.0733
 2940TIP3    H130311   1.734   0.304   0.110  0.0179 -0.7402  2.2339
 2940TIP3    H230312   1.614   0.222   0.066  0.2178 -0.4499  1.1505
 2941TIP3   OH230313   4.834   3.038  13.473 -0.0028 -0.4828  0.8322
 2941TIP3    H130314   4.836   2.949  13.439  0.8277 -0.4221  0.7200
 2941TIP3    H230315   4.910   3.081  13.434 -0.1655  0.1543  1.2060
 2942TIP3   OH230316   5.670   0.228   1.477 -0.6466  0.4999  0.3152
 2942TIP3    H130317   5.764   0.236   1.459 -0.6681  1.6349  0.6816
 2942TIP3    H230318   5.664   0.158   1.542  0.0674  1.2140  1.1730
 2943TIP3   OH230319   4.326   0.439  11.430 -0.0462  0.1632 -0.2409
 2943TIP3    H130320   4.322   0.469  11.521  0.0123  0.3973 -0.3133
 2943TIP3    H230321   4.273   0.502  11.381 -0.1696 -0.0277 -0.3522
 2944TIP3   OH230322   0.834   0.018  12.252  0.3669 -0.0084 -1.0078
 2944TIP3    H130323   0.756   0.021  12.307  1.4744  0.7187  0.5655
 2944TIP3    H230324   0.846  -0.075  12.231  0.1276 -0.3251  0.2620
 2945TIP3   OH230325   1.296   5.938  13.118 -0.2409 -0.2937  0.2029
 2945TIP3    H130326   1.282   5.892  13.200  0.8582  1.4593  1.4214
 2945TIP3    H230327   1.388   5.965  13.121 -0.6270  1.2220 -0.8165
 2946TIP3   OH230328   4.671   6.756   4.412 -0.8748 -0.4458 -0.1390
 2946TIP3    H130329   4.602   6.820   4.432  0.8011  1.0472  1.1280
 2946TIP3    H230330   4.682   6.706   4.493 -1.2907 -1.4874 -0.7200
 2947TIP3   OH230331   5.890   2.814   0.815 -0.0465  0.4279 -0.0375
 2947TIP3    H130332   5.978   2.851   0.816 -0.3626  1.1954  1.2494
 2947TIP3    H230333   5.850   2.847   0.735  1.3016 -1.0717 -1.3478
 2948TIP3   OH230334   3.911   6.155  16.421  0.1628 -0.4822 -0.1858
 2948TIP3    H130335   3.996   6.138  16.380  1.0500  0.8840  1.0495
 2948TIP3    H230336   3.855   6.185  16.348  0.2795 -2.7838 -1.2700
 2949TIP3   OH230337   3.245   4.291   0.007  0.1726  0.2109  0.0377
 2949TIP3    H130338   3.335   4.257   0.004  0.1908  0.1689  1.0315
 2949TIP3    H230339   3.191   4.216  -0.015  0.3151 -0.0405  0.5399
 2950TIP3   OH230340   1.899   3.075  12.302  0.0290 -0.0808  0.6088
 2950TIP3    H130341   1.988   3.045  12.281  0.3821  0.1216  1.7398
 2950TIP3    H230342   1.912   3.140  12.371 -1.0963 -1.0987  1.8234
 2951TIP3   OH230343   0.243   5.549  11.052 -0.1486 -0.8081  0.7474
 2951TIP3    H130344   0.257   5.548  10.958 -0.0621  2.9431  0.6492
 2951TIP3    H230345   0.322   5.592  11.087 -0.7799 -0.9477  2.3824
 2952TIP3   OH230346   1.232   5.228  14.874  0.3517 -0.6672 -0.4172
 2952TIP3    H130347   1.209   5.240  14.966  1.1497 -1.7739 -0.0579
 2952TIP3    H230348   1.315   5.179  14.877 -0.0956 -1.5207 -1.7355
 2953TIP3   OH230349   1.490   5.564   5.635 -0.6615  0.2543  0.1033
 2953TIP3    H130350   1.425   5.605   5.692 -0.2637  1.7700 -0.5191
 2953TIP3    H230351   1.473   5.600   5.548 -0.7431 -1.4412 -0.6068
 2954TIP3   OH230352   0.209   5.013   4.318  0.6858  0.2785  0.4315
 2954TIP3    H130353   0.277   5.004   4.252 -0.5102 -0.9939 -0.6551
 2954TIP3    H230354   0.240   4.962   4.393 -0.1385 -2.2804 -0.9355
 2955TIP3   OH230355   1.093   5.580   4.471  0.2798  0.2126  0.0683
 2955TIP3    H130356   1.156   5.575   4.399  2.7168  1.6395  2.0507
 2955TIP3    H230357   1.143   5.560   4.549 -1.7796  1.0973  1.6564
 2956TIP3   OH230358   5.429   4.218  12.719 -0.2812  0.2408  0.6995
 2956TIP3    H130359   5.461   4.129  12.712  1.8626  1.0133  0.3187
 2956TIP3    H230360   5.455   4.260  12.636 -0.1564  1.5500  1.3807
 2957TIP3   OH230361   5.651   5.097   3.124 -0.2571  0.5265 -0.6242
 2957TIP3    H130362   5.732   5.119   3.077 -0.3164  0.6590 -0.6663
 2957TIP3    H230363   5.645   5.002   3.118 -0.8255  0.6258 -1.8271
 2958TIP3   OH230364   2.758   5.838   0.089  0.6803 -0.4712  0.0308
 2958TIP3    H130365   2.685   5.776   0.080 -0.0195  0.0927  1.5824
 2958TIP3    H230366   2.753   5.892   0.011 -0.7415 -0.2673  0.2429
 2959TIP3   OH230367   1.684   0.268   5.040  0.8786  0.0563  0.3330
 2959TIP3    H130368   1.599   0.286   5.001 -0.6560  1.2601  4.0123
 2959TIP3    H230369   1.673   0.183   5.083  1.5246  0.2527  0.8953
 2960TIP3   OH230370   3.309   2.657   0.863  0.1635 -0.5187  0.1448
 2960TIP3    H130371   3.309   2.563   0.843  0.9368 -0.8207  1.5325
 2960TIP3    H230372   3.400   2.684   0.854  0.1152 -0.1271  0.7629
 2961TIP3   OH230373   1.082   5.860   1.694 -0.7487 -0.1650 -0.5717
 2961TIP3    H130374   1.044   5.836   1.779  1.4115 -1.7086 -0.0064
 2961TIP3    H230375   1.022   5.823   1.629 -2.3546  0.9200  0.2570
 2962TIP3   OH230376   5.347   1.657  15.329  0.4792 -0.5963  0.1317
 2962TIP3    H130377   5.277   1.679  15.268  0.1033 -0.6559  0.5333
 2962TIP3    H230378   5.308   1.592  15.388  1.0612 -1.0763 -0.0116
 2963TIP3   OH230379   4.860   6.618  15.101  0.0202  0.4394 -0.5367
 2963TIP3    H130380   4.877   6.595  15.009  1.6342 -1.6074  0.2242
 2963TIP3    H230381   4.923   6.565  15.150 -0.9638  1.3662  1.7712
 2964TIP3   OH230382   2.938   5.457  15.808  0.5876 -0.2212 -0.2035
 2964TIP3    H130383   2.860   5.444  15.754  0.8171 -0.8325 -0.3873
 2964TIP3    H230384   2.957   5.550  15.800 -1.1210  0.2917  1.2016
 2965TIP3   OH230385   2.821   3.981  13.371  0.8313 -0.2213  0.0963
 2965TIP3    H130386   2.817   3.901  13.424 -0.1920 -0.8059 -0.8599
 2965TIP3    H230387   2.862   4.046  13.429  0.3247 -1.0292  1.3798
 2966TIP3   OH230388   2.039   3.867  14.527  0.7011  0.5579  0.0224
 2966TIP3    H130389   2.097   3.892  14.454 -0.6548 -0.0262 -1.2882
 2966TIP3    H230390   1.958   3.915  14.510 -0.1778 -0.8129  0.2482
 2967TIP3   OH230391   3.815   3.794  15.613  0.3411  0.0338 -0.1071
 2967TIP3    H130392   3.862   3.715  15.642  0.9238  1.0115  1.7259
 2967TIP3    H230393   3.876   3.836  15.552  1.2154  0.4908  1.0595
 2968TIP3   OH230394   4.705   2.982  10.842  0.0641  0.3503 -0.9431
 2968TIP3    H130395   4.792   3.022  10.843  0.6960 -1.0076 -0.7617
 2968TIP3    H230396   4.704   2.929  10.762 -0.5283  0.2108 -0.8428
 2969TIP3   OH230397   4.628   6.789  16.742 -0.3426 -0.2040 -0.0447
 2969TIP3    H130398   4.543   6.745  16.752 -0.1908 -0.7199 -0.9787
 2969TIP3    H230399   4.619   6.870  16.791 -1.1690 -0.5482  0.3819
 2970TIP3   OH230400   6.819   1.430   5.209  0.0899  0.0857  0.5585
 2970TIP3    H130401   6.794   1.397   5.123 -1.6291 -0.0699  1.1057
 2970TIP3    H230402   6.794   1.360   5.270 -1.9809  1.6138  1.5311
 2971TIP3   OH230403   3.567   3.608  12.889  0.2425 -0.1801 -0.0615
 2971TIP3    H130404   3.503   3.589  12.821 -2.0795  0.6704  1.8102
 2971TIP3    H230405   3.620   3.680  12.854 -1.0588  0.3784 -0.8994
 2972TIP3   OH230406   3.426   6.007  12.244  0.3528 -0.4050 -0.3102
 2972TIP3    H130407   3.346   5.987  12.294  1.3646 -0.8079  1.1650
 2972TIP3    H230408   3.437   6.102  12.255  0.7257 -0.5342  0.4854
 2973TIP3   OH230409   0.064   5.673   4.929 -0.2728 -0.4320 -0.5374
 2973TIP3    H130410   0.131   5.671   4.861  0.3838  1.6172 -0.0018
 2973TIP3    H230411   0.082   5.597   4.984  0.7534 -0.6788 -1.2120
 2974TIP3   OH230412   1.175   0.691  14.893 -1.1914 -0.5587  0.1869
 2974TIP3    H130413   1.152   0.658  14.980  1.1836  1.1397  1.5261
 2974TIP3    H230414   1.255   0.644  14.870 -1.4988 -0.5847 -0.8772
 2975TIP3   OH230415   6.800   6.108   5.006 -0.4210  0.3238  0.2834
 2975TIP3    H130416   6.826   6.121   5.098 -0.5715 -0.1616  0.3960
 2975TIP3    H230417   6.826   6.018   4.987 -0.2128  0.4899 -0.2136
 2976TIP3   OH230418   5.334   0.602   2.653  0.7695  0.1479  0.4190
 2976TIP3    H130419   5.295   0.627   2.737 -1.0775 -2.2104  0.3024
 2976TIP3    H230420   5.393   0.530   2.674  0.9511  0.1095 -0.2033
 2977TIP3   OH230421   3.552   5.095   3.608 -0.1435 -0.5858 -0.6764
 2977TIP3    H130422   3.552   5.018   3.550 -1.4531 -1.3343  0.2917
 2977TIP3    H230423   3.644   5.122   3.611  0.2428 -1.7460 -1.5168
 2978TIP3   OH230424   6.545   1.476  16.898  0.4996 -0.7150  0.1066
 2978TIP3    H130425   6.460   1.520  16.903  0.6032 -0.5892  0.7159
 2978TIP3    H230426   6.523   1.384  16.884  0.2605 -0.7565  0.7631
 2979TIP3   OH230427   0.857   4.319   1.320 -0.0125 -0.2456  0.3368
 2979TIP3    H130428   0.914   4.270   1.380  0.6784  2.4044  1.9420
 2979TIP3    H230429   0.769   4.297   1.349  0.1666 -3.2279 -1.2157
 2980TIP3   OH230430   1.199   5.396   0.207 -0.1425  0.6792 -0.9777
 2980TIP3    H130431   1.133   5.360   0.149 -0.4900 -0.3929  0.0618
 2980TIP3    H230432   1.190   5.346   0.289  2.2378  0.1685 -0.9696
 2981TIP3   OH230433   5.757   2.080   2.632  0.0194 -0.5402  0.1773
 2981TIP3    H130434   5.763   1.985   2.632  0.6381 -0.5118 -0.3994
 2981TIP3    H230435   5.820   2.108   2.698 -1.7616 -0.5950  1.9378
 2982TIP3   OH230436   2.458   4.217   0.681 -0.2014 -0.0429 -0.6218
 2982TIP3    H130437   2.546   4.244   0.706 -0.6988  2.2188 -1.1912
 2982TIP3    H230438   2.411   4.210   0.764  0.3462 -0.6979 -0.3577
 2983TIP3   OH230439   4.972   0.296   0.145  0.0249  0.3652  0.0826
 2983TIP3    H130440   5.010   0.373   0.104 -2.3819 -0.2404 -3.4594
 2983TIP3    H230441   5.032   0.225   0.123 -0.2487  0.3817 -0.7000
 2984TIP3   OH230442   0.972   4.052   1.729  0.5901 -0.0210  0.0136
 2984TIP3    H130443   0.994   3.972   1.683  1.4040  1.2841 -1.9272
 2984TIP3    H230444   0.941   4.023   1.815  0.7556 -2.3908 -0.7061
 2985TIP3   OH230445   1.975   3.641  16.627  0.1654  0.4050  0.0908
 2985TIP3    H130446   1.935   3.655  16.713  0.7315  1.6147  0.1667
 2985TIP3    H230447   2.007   3.551  16.630 -1.8306 -0.3189  0.3174
 2986TIP3   OH230448   2.180   3.573  17.216  0.3858  0.1470 -0.3249
 2986TIP3    H130449   2.236   3.538  17.285  0.6920  0.7880 -0.2362
 2986TIP3    H230450   2.141   3.652  17.254 -1.2292 -0.7355 -0.0955
 2987TIP3   OH230451   2.150   1.900  14.052  0.4678  0.4084  0.2910
 2987TIP3    H130452   2.191   1.822  14.013  1.3498  0.6770  0.6679
 2987TIP3    H230453   2.059   1.874  14.067  0.4003 -0.0762 -0.8922
 2988TIP3   OH230454   5.648   0.747   2.408  0.1986  0.4555  0.3814
 2988TIP3    H130455   5.670   0.712   2.494 -0.4201 -2.2906 -0.5281
 2988TIP3    H230456   5.553   0.759   2.410  0.1820  0.3845  0.1107
 2989TIP3   OH230457   2.479   3.563   4.789 -0.4973 -0.3118 -0.4910
 2989TIP3    H130458   2.451   3.644   4.747 -0.6517  0.1921  0.5586
 2989TIP3    H230459   2.450   3.494   4.730  1.9561  0.4839 -2.7381
 2990TIP3   OH230460   4.231   6.630   0.748  0.2110  0.3681 -0.5176
 2990TIP3    H130461   4.244   6.714   0.704  0.3961  0.7777  0.2952
 2990TIP3    H230462   4.317   6.588   0.746  0.2556  0.4553 -0.4063
 2991TIP3   OH230463   6.752   5.796  13.185 -0.4351  0.5052  0.2450
 2991TIP3    H130464   6.781   5.725  13.128 -2.7222  0.9542 -1.5367
 2991TIP3    H230465   6.833   5.840  13.211  0.7199 -0.1495 -2.0723
 2992TIP3   OH230466   3.194   2.478   1.318  0.2050 -0.9720  0.0408
 2992TIP3    H130467   3.235   2.538   1.256 -0.3555 -0.0002  0.6079
 2992TIP3    H230468   3.139   2.533   1.373 -0.2163 -1.9842  0.6560
 2993TIP3   OH230469   5.927   0.832   4.641  0.0215 -0.4090 -0.2485
 2993TIP3    H130470   5.938   0.925   4.621  1.5239 -0.2486  1.1763
 2993TIP3    H230471   5.833   0.816   4.633 -0.2887  1.3075 -0.1513
 2994TIP3   OH230472   6.155   0.006   6.061  0.1258  0.3204 -0.0246
 2994TIP3    H130473   6.105   0.034   5.984 -0.3642  0.5320  0.3653
 2994TIP3    H230474   6.247   0.011   6.034  0.0402  2.1108 -0.0493
 2995TIP3   OH230475   4.077   1.445  13.113  0.1143 -0.2307  0.3323
 2995TIP3    H130476   4.026   1.366  13.131  1.8562 -1.1359  1.4963
 2995TIP3    H230477   4.026   1.516  13.152 -0.1825 -1.1459  1.6625
 2996TIP3   OH230478   1.641   2.130   1.726  0.0241 -0.0123 -0.1346
 2996TIP3    H130479   1.693   2.124   1.646 -0.2526 -1.6236 -0.2200
 2996TIP3    H230480   1.558   2.090   1.703 -0.8095  1.4031  0.3777
 2997TIP3   OH230481   2.759   0.467   6.224 -0.1961  0.1395  0.5482
 2997TIP3    H130482   2.723   0.500   6.142 -2.0423  0.3038  1.3956
 2997TIP3    H230483   2.727   0.528   6.291  0.7608 -0.3526  1.4751
 2998TIP3   OH230484   4.954   2.947  11.195 -0.4615 -0.5116 -0.2485
 2998TIP3    H130485   4.991   2.989  11.117  1.3355 -0.5101  0.5832
 2998TIP3    H230486   4.919   2.864  11.163 -0.8190  0.0174 -1.2552
 2999TIP3   OH230487   4.415   2.222   4.291  0.0496 -0.4368 -0.3466
 2999TIP3    H130488   4.419   2.255   4.201  1.3037  1.1230  0.2484
 2999TIP3    H230489   4.486   2.158   4.296 -0.2352 -0.7720 -0.5544
 3000TIP3   OH230490   4.560   2.437   1.393 -0.0320  0.3459 -0.1934
 3000TIP3    H130491   4.467   2.439   1.416  0.0322  0.6809  0.0399
 3000TIP3    H230492   4.578   2.524   1.358  0.2734  0.3952  0.0791
 3001TIP3   OH230493   1.181   5.842   4.214  0.1114  0.3182  0.2020
 3001TIP3    H130494   1.276   5.848   4.209  0.0463  1.4164  0.1022
 3001TIP3    H230495   1.156   5.912   4.275 -0.4573 -1.4186  1.9866
 3002TIP3   OH230496   4.137   1.472  15.172  0.3868  0.2126 -0.6902
 3002TIP3    H130497   4.181   1.542  15.219  0.3928 -0.2873  0.0506
 3002TIP3    H230498   4.159   1.392  15.221 -1.3532 -0.0440 -0.3063
 3003TIP3   OH230499   1.516   6.649  11.065 -0.5151 -0.0091  0.3099
 3003TIP3    H130500   1.526   6.739  11.095 -0.5991  0.2309 -0.3710
 3003TIP3    H230501   1.590   6.635  11.006 -0.1901 -0.5700  0.8455
 3004TIP3   OH230502   5.951   3.275   3.172  0.6409  0.2262 -0.1526
 3004TIP3    H130503   5.945   3.371   3.171  0.1755  0.2053  0.2276
 3004TIP3    H230504   5.955   3.250   3.080 -1.1039  0.5001 -0.3166
 3005TIP3   OH230505   2.549   5.170  13.567 -0.1585 -0.0457  0.1163
 3005TIP3    H130506   2.562   5.182  13.473  0.4989 -1.1607  0.0641
 3005TIP3    H230507   2.466   5.213  13.585 -0.3394  0.0818 -0.9953
 3006TIP3   OH230508   4.030   2.764  10.910 -0.8426  0.2521 -0.5527
 3006TIP3    H130509   4.113   2.736  10.869  1.1098  4.0076  0.6356
 3006TIP3    H230510   4.009   2.694  10.971  2.0680 -0.2741 -0.0865
 3007TIP3   OH230511   3.807   3.636   3.233 -0.2338  0.0647 -0.1079
 3007TIP3    H130512   3.831   3.661   3.144  1.8606  1.0284  0.6902
 3007TIP3    H230513   3.835   3.710   3.287 -3.4772  0.4307  1.1262
 3008TIP3   OH230514   5.365   0.386   5.406 -0.0875 -0.3181 -0.7758
 3008TIP3    H130515   5.333   0.319   5.345 -0.0038 -1.0136 -0.0620
 3008TIP3    H230516   5.458   0.366   5.417 -0.3697 -0.9873  0.5609
 3009TIP3   OH230517   3.913   3.185  14.456  0.8465 -0.0254 -0.5418
 3009TIP3    H130518   3.820   3.164  14.446  0.8984 -0.0645 -0.9440
 3009TIP3    H230519   3.956   3.139  14.384  1.2897 -0.7246  0.1570
 3010TIP3   OH230520   0.766   5.563   0.197  0.0370  0.0476 -0.2342
 3010TIP3    H130521   0.840   5.585   0.140  0.7802  2.3208  1.5247
 3010TIP3    H230522   0.802   5.502   0.261 -0.1964 -0.6247 -0.7375
 3011TIP3   OH230523   3.212   0.799  12.611 -0.6198 -0.5187  0.7486
 3011TIP3    H130524   3.240   0.718  12.569 -0.8229  0.9248 -2.3157
 3011TIP3    H230525   3.116   0.794  12.610 -0.6186 -0.6390  1.3555
 3012TIP3   OH230526   2.435   4.457  13.913  0.2135 -0.0366 -0.2573
 3012TIP3    H130527   2.408   4.423  13.998  1.3308  0.9854  0.5200
 3012TIP3    H230528   2.392   4.542  13.906  0.1392 -0.1092 -0.7093
 3013TIP3   OH230529   2.711   6.666  16.065  0.0106 -0.1270 -0.0227
 3013TIP3    H130530   2.628   6.663  16.018  0.9303 -0.1499 -1.6724
 3013TIP3    H230531   2.716   6.755  16.100 -1.1749 -0.4399  0.9715
 3014TIP3   OH230532   4.748   6.383  15.408 -0.2417  0.1112  0.0645
 3014TIP3    H130533   4.815   6.326  15.445 -0.6831  1.0324  2.3938
 3014TIP3    H230534   4.784   6.471  15.418 -0.7625  0.4376 -0.9162
 3015TIP3   OH230535   2.718   2.257   0.326 -0.5712  0.6804 -0.3019
 3015TIP3    H130536   2.785   2.250   0.394 -0.5640  0.7626 -0.2993
 3015TIP3    H230537   2.639   2.285   0.374 -1.2337 -1.7046  0.0536
 3016TIP3   OH230538   3.135   6.494  13.924  0.1830  0.2346  0.8402
 3016TIP3    H130539   3.223   6.527  13.905  0.0956 -1.1585 -2.2613
 3016TIP3    H230540   3.082   6.572  13.934  1.2654  1.0749  0.1723
 3017TIP3   OH230541   5.312   1.086   4.155 -0.2864  0.1425 -0.0798
 3017TIP3    H130542   5.396   1.096   4.111 -0.1488  1.1145  0.3748
 3017TIP3    H230543   5.333   1.099   4.248 -1.0696  1.2154 -0.0491
 3018TIP3   OH230544   5.255   0.031  13.160 -0.0104  0.4493  0.1986
 3018TIP3    H130545   5.266   0.111  13.110  0.5981  0.1478 -0.1462
 3018TIP3    H230546   5.339   0.016  13.203 -0.0762 -0.0711  0.1584
 3019TIP3   OH230547   2.461   1.460  17.079  0.5402  0.0043 -0.6023
 3019TIP3    H130548   2.459   1.547  17.040 -0.4330  0.3676  0.2424
 3019TIP3    H230549   2.545   1.457  17.126  0.7993  0.3031 -1.0417
 3020TIP3   OH230550   5.219   3.964   5.045 -0.3860 -0.2066 -0.1563
 3020TIP3    H130551   5.215   3.924   4.958 -0.6627 -1.6304  0.4977
 3020TIP3    H230552   5.306   3.942   5.078 -0.8936 -1.1418  0.6024
 3021TIP3   OH230553   0.072   4.825  14.662 -0.2265  0.1332  0.0388
 3021TIP3    H130554   0.050   4.831  14.569  0.1686  0.3217 -0.0442
 3021TIP3    H230555   0.087   4.916  14.688 -0.5058  0.0947  0.3276
 3022TIP3   OH230556   3.876   5.597   3.425  0.2240  0.7706 -0.1673
 3022TIP3    H130557   3.897   5.642   3.343 -0.5993  1.1980 -0.1474
 3022TIP3    H230558   3.857   5.668   3.487  0.1271  0.4309  0.1934
 3023TIP3   OH230559   3.685   5.081  17.143  0.1659 -0.7115  0.3696
 3023TIP3    H130560   3.606   5.111  17.188  0.0382 -0.8127  0.2139
 3023TIP3    H230561   3.682   5.125  17.058  0.1686 -0.8762  0.2822
 3024TIP3   OH230562   0.496   0.339  11.202  0.5767  0.5359 -0.2221
 3024TIP3    H130563   0.490   0.244  11.191 -3.8660  0.5688  1.1477
 3024TIP3    H230564   0.570   0.351  11.262  0.2883 -2.1862  0.7669
 3025TIP3   OH230565   5.741   5.484  15.098  0.1760  0.5120  0.3267
 3025TIP3    H130566   5.807   5.553  15.113  0.2273  0.9096 -1.6517
 3025TIP3    H230567   5.757   5.455  15.009  0.4454 -2.4335  1.2955
 3026TIP3   OH230568   1.714   4.024   5.917 -0.2310  0.3780  0.2944
 3026TIP3    H130569   1.780   3.967   5.955  1.2758  0.6614 -1.8299
 3026TIP3    H230570   1.700   4.092   5.984  0.6443 -0.4201  1.2994
 3027TIP3   OH230571   0.858   5.286  15.622  0.3892  0.2384  0.0831
 3027TIP3    H130572   0.891   5.209  15.577 -1.6434 -0.7149  0.1865
 3027TIP3    H230573   0.929   5.312  15.681  0.2651 -2.8493  1.6540
 3028TIP3   OH230574   4.599   5.667   1.764  0.0502  0.1305 -1.0263
 3028TIP3    H130575   4.519   5.669   1.712  0.1233  0.1174 -1.1385
 3028TIP3    H230576   4.613   5.758   1.790  0.7551  0.3559 -2.1565
 3029TIP3   OH230577   0.718   3.879  14.683  0.0731 -0.5904  0.0992
 3029TIP3    H130578   0.738   3.966  14.647 -1.0694 -0.3190  0.0969
 3029TIP3    H230579   0.630   3.888  14.719 -1.0030 -2.3884 -1.9577
 3030TIP3   OH230580   4.172   1.492  16.632  0.7249  0.0341  0.9022
 3030TIP3    H130581   4.205   1.553  16.565  1.0718  0.2689  1.2783
 3030TIP3    H230582   4.087   1.528  16.656  0.8800  0.3097  1.0434
 3031TIP3   OH230583   2.974   0.658  14.025  0.2712  0.6165  0.7906
 3031TIP3    H130584   2.964   0.626  13.935  1.5037  1.0739  0.4803
 3031TIP3    H230585   3.068   0.655  14.041  0.2490  2.3297  1.3943
 3032TIP3   OH230586   2.800   4.549   5.002 -0.5301 -0.0456 -0.1130
 3032TIP3    H130587   2.885   4.534   5.043 -0.3281 -3.0346 -1.4910
 3032TIP3    H230588   2.818   4.610   4.930  0.4992 -0.8123 -0.5115
 3033TIP3   OH230589   5.088   1.538  13.200 -0.2904 -0.7354  0.2315
 3033TIP3    H130590   5.141   1.528  13.121 -1.0354 -0.3852 -0.3270
 3033TIP3    H230591   5.123   1.616  13.243 -1.1084  0.1909 -0.7547
 3034TIP3   OH230592   2.234   4.517   2.842 -0.0792  0.5054  0.4548
 3034TIP3    H130593   2.253   4.608   2.862  0.0979  0.0575  2.4017
 3034TIP3    H230594   2.302   4.491   2.780 -0.0175  1.6381  0.0483
 3035TIP3   OH230595   1.405   2.071  12.361 -0.2470  0.0532 -0.8562
 3035TIP3    H130596   1.497   2.076  12.335 -0.2127  1.9937 -0.3934
 3035TIP3    H230597   1.397   2.131  12.435 -1.7138 -0.7124 -0.3639
 3036TIP3   OH230598   0.420   3.693   2.552  0.0543  0.3594  0.4637
 3036TIP3    H130599   0.339   3.682   2.602 -0.4241 -1.7442 -0.7081
 3036TIP3    H230600   0.488   3.698   2.618 -0.5817 -2.3110  1.3931
 3037TIP3   OH230601   0.114   3.695  15.786 -1.0053 -0.5709 -0.1801
 3037TIP3    H130602   0.183   3.633  15.763  0.1307  0.7425 -0.4675
 3037TIP3    H230603   0.069   3.713  15.704  0.0804  0.6116 -0.5488
 3038TIP3   OH230604   3.921   1.315  11.935  0.7789 -0.3460 -0.1764
 3038TIP3    H130605   3.890   1.286  12.021  2.5569 -0.0708  0.5800
 3038TIP3    H230606   3.975   1.242  11.904  0.5266 -0.2421 -0.8701
 3039TIP3   OH230607   4.814   4.308   5.613  0.1358 -0.4737  0.7889
 3039TIP3    H130608   4.893   4.356   5.591  0.5555 -1.1552  0.7872
 3039TIP3    H230609   4.816   4.230   5.556 -1.6423  0.5834 -0.7775
 3040TIP3   OH230610   6.779   2.553  16.746 -0.3413 -0.4825  0.5781
 3040TIP3    H130611   6.775   2.633  16.694  0.4237 -0.5533  0.4029
 3040TIP3    H230612   6.872   2.528  16.745 -0.6505 -1.6537  0.1920
 3041TIP3   OH230613   3.263   2.945   3.146 -0.2729 -0.5875  0.2582
 3041TIP3    H130614   3.278   3.031   3.106 -3.1464  1.5399  3.4886
 3041TIP3    H230615   3.187   2.910   3.100 -0.6383 -0.2932  0.6423
 3042TIP3   OH230616   6.748   2.827   0.061 -0.0119 -0.3673  0.1670
 3042TIP3    H130617   6.680   2.761   0.078  2.0495 -2.6693 -0.1973
 3042TIP3    H230618   6.757   2.829  -0.034 -1.8815  2.4370 -0.0159
 3043TIP3   OH230619   5.471   0.300   0.409  0.0402  0.1817 -0.3452
 3043TIP3    H130620   5.483   0.341   0.323 -2.4473  0.8237 -0.4186
 3043TIP3    H230621   5.384   0.261   0.405  0.6806 -1.5026  1.2187
 3044TIP3   OH230622   0.642   5.482  11.303  0.1133 -0.2420  0.2651
 3044TIP3    H130623   0.690   5.542  11.246 -0.5100  0.3951  0.4128
 3044TIP3    H230624   0.697   5.475  11.381 -0.0436  0.5011  0.4411
 3045TIP3   OH230625   4.488   2.973   2.987  0.0360  0.2581 -0.6784
 3045TIP3    H130626   4.580   2.947   2.991  0.2414  1.0058 -0.4913
 3045TIP3    H230627   4.490   3.069   2.988 -0.7614  0.2721 -0.2668
 3046TIP3   OH230628   2.543   3.953   6.727 -0.1346  0.3403 -0.2904
 3046TIP3    H130629   2.553   4.000   6.644 -0.6065  3.0123  1.1104
 3046TIP3    H230630   2.582   4.011   6.793 -1.8191 -0.6659  1.6731
 3047TIP3   OH230631   5.069   1.068   1.977  0.4607  0.2531  0.4454
 3047TIP3    H130632   5.120   1.127   1.921 -1.7528  1.3447 -0.4790
 3047TIP3    H230633   5.117   0.985   1.973  2.8052  1.5466  0.5635
 3048TIP3   OH230634   1.982   5.072   3.660 -0.5232 -0.2515 -0.0307
 3048TIP3    H130635   1.966   5.148   3.716 -1.2831 -1.0115  0.7824
 3048TIP3    H230636   1.902   5.019   3.666  0.4075 -1.6564  0.2528
 3049TIP3   OH230637   0.159   2.171  12.448 -0.1410 -0.0714  0.5840
 3049TIP3    H130638   0.107   2.127  12.380 -3.1780 -0.0496  2.7691
 3049TIP3    H230639   0.168   2.106  12.518 -2.4116  1.7963  2.7299
 3050TIP3   OH230640   5.718   4.237  17.249  0.1735 -0.1479 -0.0889
 3050TIP3    H130641   5.632   4.244  17.292 -0.0798  0.9736 -0.7612
 3050TIP3    H230642   5.713   4.299  17.177  1.0819 -1.0636 -0.9380
 3051TIP3   OH230643   2.513   2.658   1.514  0.5252 -0.0222  0.2206
 3051TIP3    H130644   2.474   2.742   1.489 -0.0467 -0.2478  0.3439
 3051TIP3    H230645   2.604   2.664   1.484  0.1540  0.1627 -0.8902
 3052TIP3   OH230646   6.758   6.109   3.749 -0.3431 -0.5034  0.1993
 3052TIP3    H130647   6.807   6.034   3.716  1.9496  1.0703 -0.1278
 3052TIP3    H230648   6.796   6.126   3.835 -0.9769  0.1715  0.3531
 3053TIP3   OH230649   4.207   5.763  15.390  0.3407 -0.5699 -1.2503
 3053TIP3    H130650   4.236   5.676  15.360 -0.3884 -0.3284 -2.7072
 3053TIP3    H230651   4.243   5.771  15.478 -0.1241 -2.6163 -0.8516
 3054TIP3   OH230652   3.067   1.800   4.843 -0.0470  0.1850 -0.1130
 3054TIP3    H130653   3.131   1.866   4.870 -0.6479  0.8195 -0.2515
 3054TIP3    H230654   2.985   1.827   4.884 -0.8478  0.8318 -2.0940
 3055TIP3   OH230655   0.110   3.370  16.752 -0.3517 -0.2773 -0.1814
 3055TIP3    H130656   0.169   3.312  16.802 -0.2563 -0.6497 -0.7142
 3055TIP3    H230657   0.024   3.357  16.793 -0.1426 -0.0604  0.3282
 3056TIP3   OH230658   3.318   3.805  14.894 -0.3721  0.1617 -0.1096
 3056TIP3    H130659   3.343   3.867  14.826 -1.4418  0.3486 -0.3490
 3056TIP3    H230660   3.345   3.846  14.976  1.9682 -0.5861 -0.4783
 3057TIP3   OH230661   5.740   0.365  13.722 -0.3580  0.1889  0.8489
 3057TIP3    H130662   5.691   0.417  13.785  0.4350 -0.6562  2.1744
 3057TIP3    H230663   5.830   0.395  13.729 -0.0350 -0.8174  1.0602
 3058TIP3   OH230664   2.005   2.417  15.310 -0.1316 -0.0203 -0.1214
 3058TIP3    H130665   2.060   2.495  15.317 -1.7205  1.2385 -1.1857
 3058TIP3    H230666   2.018   2.386  15.220 -1.3078  0.4218 -0.4549
 3059TIP3   OH230667   1.121   0.294   2.131  0.0305 -0.0157 -0.5049
 3059TIP3    H130668   1.137   0.210   2.175  1.2935  0.3017 -0.3555
 3059TIP3    H230669   1.208   0.326   2.107 -0.5401  0.6188 -1.7601
 3060TIP3   OH230670   6.253   5.578  13.378  0.1562 -0.0363  0.7317
 3060TIP3    H130671   6.255   5.499  13.432 -0.3007 -0.0192  0.7679
 3060TIP3    H230672   6.220   5.646  13.437  0.1092  0.0856  0.5629
 3061TIP3   OH230673   3.075   0.851  15.078 -0.1700  0.0470  0.2366
 3061TIP3    H130674   3.096   0.917  15.144  0.2520 -1.3657  1.5351
 3061TIP3    H230675   3.137   0.780  15.094 -1.6782 -1.3772 -0.0991
 3062TIP3   OH230676   4.009   0.279  15.694  0.4330  0.0015  0.0858
 3062TIP3    H130677   4.012   0.231  15.611 -0.0339 -0.7303  0.4863
 3062TIP3    H230678   4.084   0.339  15.690  0.8927 -0.6019 -0.5163
 3063TIP3   OH230679   4.144   2.016  16.295 -0.3605  0.6524  0.0368
 3063TIP3    H130680   4.150   2.073  16.372  0.5799 -0.3124  0.6831
 3063TIP3    H230681   4.229   1.973  16.290 -0.4569  0.5879 -1.4709
 3064TIP3   OH230682   4.808   4.843  16.624  0.0074  0.2607  0.6034
 3064TIP3    H130683   4.817   4.899  16.702 -0.2066  1.4505 -0.2206
 3064TIP3    H230684   4.740   4.885  16.572  0.2612 -0.4565 -0.3174
 3065TIP3   OH230685   5.226   3.632   1.939 -0.0153  0.0554  0.0648
 3065TIP3    H130686   5.172   3.695   1.891 -1.6894  0.1910  2.0368
 3065TIP3    H230687   5.315   3.648   1.908 -0.8782  0.9040 -2.1142
 3066TIP3   OH230688   1.056   2.446   5.846 -0.4651 -0.4013  0.4876
 3066TIP3    H130689   0.980   2.392   5.867 -1.7208  1.0923 -0.1684
 3066TIP3    H230690   1.028   2.535   5.865  1.6200  0.0313  1.6339
 3067TIP3   OH230691   5.945   2.373   4.206 -0.4217 -0.1306 -0.0159
 3067TIP3    H130692   5.960   2.279   4.218 -0.9384  0.0560  2.5793
 3067TIP3    H230693   5.986   2.394   4.122  1.2421 -2.3427  0.1883
 3068TIP3   OH230694   4.927   3.148   5.923 -0.5937 -0.1357  0.2586
 3068TIP3    H130695   4.972   3.225   5.958 -0.7505 -0.2869  0.7959
 3068TIP3    H230696   4.944   3.152   5.829  0.7577 -0.3197  0.4761
 3069TIP3   OH230697   2.968   1.506  15.984 -0.0157  0.3697 -0.5751
 3069TIP3    H130698   3.035   1.561  16.023  1.0396 -0.7109 -0.8494
 3069TIP3    H230699   2.970   1.529  15.891  1.0200 -0.7555 -0.8280
 3070TIP3   OH230700   6.701   2.269  13.402 -0.0266 -0.1914 -0.4462
 3070TIP3    H130701   6.705   2.319  13.483  0.5313 -0.9231 -0.0205
 3070TIP3    H230702   6.608   2.249  13.391 -0.3735  1.6757 -1.0830
 3071TIP3   OH230703   2.086   1.723   5.124  0.0668 -0.1915 -0.3255
 3071TIP3    H130704   2.146   1.771   5.066 -0.7674  1.2506 -0.0206
 3071TIP3    H230705   2.026   1.790   5.156  0.1666 -1.0698  1.7730
 3072TIP3   OH230706   5.249   5.292  14.587 -0.0671  0.1891  0.4918
 3072TIP3    H130707   5.202   5.355  14.533 -1.2549 -0.8341  0.3090
 3072TIP3    H230708   5.332   5.278  14.540 -0.3780  0.5840 -0.1805
 3073TIP3   OH230709   3.958   1.445  12.389  0.2328 -0.8527 -0.7649
 3073TIP3    H130710   4.041   1.436  12.435 -0.6286 -1.2693  0.7462
 3073TIP3    H230711   3.974   1.514  12.324  0.9739  1.1041  1.4119
 3074TIP3   OH230712   1.486   3.106  15.877  0.6180 -0.0402  0.6800
 3074TIP3    H130713   1.408   3.151  15.847 -1.2494 -2.4969  1.6599
 3074TIP3    H230714   1.558   3.167  15.858 -1.2726  1.4661 -1.9812
 3075TIP3   OH230715   2.785   3.411  17.075  0.0414  0.2903  0.2257
 3075TIP3    H130716   2.868   3.364  17.081  0.7249  1.2442 -1.2468
 3075TIP3    H230717   2.774   3.451  17.161  0.9037 -0.1905  0.5693
 3076TIP3   OH230718   1.384   0.916   4.611  0.3933  0.2477 -0.0557
 3076TIP3    H130719   1.459   0.881   4.659 -0.0670  0.4863  0.8423
 3076TIP3    H230720   1.324   0.842   4.602 -0.2359  0.5931  1.1657
 3077TIP3   OH230721   1.099   0.985   5.221 -0.3920 -0.2040 -0.8608
 3077TIP3    H130722   1.186   0.950   5.244 -0.1207  0.6099 -0.6292
 3077TIP3    H230723   1.039   0.913   5.240  0.1366 -0.4860 -0.2080
 3078TIP3   OH230724   2.643   2.262  15.607  0.4853 -0.0657 -0.6255
 3078TIP3    H130725   2.574   2.240  15.544  0.9648 -2.7006 -0.2795
 3078TIP3    H230726   2.701   2.186  15.607  1.3871  0.5640  1.7957
 3079TIP3   OH230727   1.750   4.320  13.727 -0.0122 -0.1487 -0.5451
 3079TIP3    H130728   1.796   4.270  13.795 -0.4623 -1.8005 -1.4383
 3079TIP3    H230729   1.713   4.395  13.774  1.1326 -0.3409  0.7103
 3080TIP3   OH230730   5.710   1.006  13.433  0.0719  0.3799  0.1100
 3080TIP3    H130731   5.741   1.064  13.364  2.0653 -1.6489 -0.7637
 3080TIP3    H230732   5.622   1.038  13.453  0.3593  2.4493 -1.7102
 3081TIP3   OH230733   2.826   1.966   2.794  0.6964 -0.1087 -0.3132
 3081TIP3    H130734   2.853   1.875   2.807  1.5197  0.1124 -0.4259
 3081TIP3    H230735   2.742   1.960   2.748 -0.0594 -0.8310  1.1230
 3082TIP3   OH230736   3.422   4.083  11.963  0.2584  0.7669 -0.6786
 3082TIP3    H130737   3.390   4.061  12.050  0.0053 -1.0419 -1.1970
 3082TIP3    H230738   3.343   4.109  11.915  0.1295  0.0852 -0.8467
 3083TIP3   OH230739   4.609   4.827  11.233  0.0865 -0.2202  0.0404
 3083TIP3    H130740   4.602   4.736  11.264  0.3373 -0.8095 -1.5678
 3083TIP3    H230741   4.702   4.848  11.241  0.0360 -0.1187  0.3675
 3084TIP3   OH230742   0.752   1.127  14.847  0.2883  0.4357 -0.5390
 3084TIP3    H130743   0.689   1.057  14.862 -1.5221  1.8554 -1.3789
 3084TIP3    H230744   0.826   1.106  14.905 -0.7210 -1.5144  0.0676
 3085TIP3   OH230745   3.313   5.710  13.515 -0.3080  0.5102 -0.2583
 3085TIP3    H130746   3.292   5.642  13.579 -0.4113  1.6833  0.9878
 3085TIP3    H230747   3.407   5.701  13.500 -0.2631  0.2869  0.1469
 3086TIP3   OH230748   1.420   6.603   5.560  1.0334 -0.2413  0.2694
 3086TIP3    H130749   1.497   6.637   5.605  0.8821  0.2082  0.1847
 3086TIP3    H230750   1.443   6.605   5.467  0.4354  1.1298  0.1385
 3087TIP3   OH230751   1.974   5.660   4.547 -0.1639 -0.7819 -0.7590
 3087TIP3    H130752   1.987   5.578   4.593 -0.1755 -0.9244 -1.0068
 3087TIP3    H230753   2.035   5.656   4.472 -2.1513 -1.7852 -2.3563
 3088TIP3   OH230754   3.685   4.056   4.026  0.1963 -0.1598 -0.0617
 3088TIP3    H130755   3.668   4.007   4.107  2.1919 -0.1076  0.4282
 3088TIP3    H230756   3.604   4.104   4.010 -1.0705 -2.0176  0.5781
 3089TIP3   OH230757   6.124   3.315   1.597 -0.0395  0.3955 -0.6132
 3089TIP3    H130758   6.063   3.279   1.533  0.7188  0.0955 -1.1790
 3089TIP3    H230759   6.180   3.241   1.621  1.8925  1.2893 -2.2045
 3090TIP3   OH230760   5.226   2.889  13.730  0.7136  0.0631 -0.8918
 3090TIP3    H130761   5.310   2.901  13.774  0.5468 -0.0976 -0.5264
 3090TIP3    H230762   5.166   2.862  13.799  0.6141 -0.9081 -1.3317
 3091TIP3   OH230763   1.203   6.791  14.410 -0.1647 -0.7181 -0.2871
 3091TIP3    H130764   1.173   6.815  14.322 -0.0859 -0.5858 -0.2779
 3091TIP3    H230765   1.235   6.873  14.447 -2.2574 -0.3150  0.6965
 3092TIP3   OH230766   2.326   1.977   1.614  0.1875  0.7520  0.2847
 3092TIP3    H130767   2.317   1.890   1.575  0.3992  0.5422  0.6966
 3092TIP3    H230768   2.261   2.031   1.569 -1.1270 -0.0426  1.1910
 3093TIP3   OH230769   3.987   3.955   1.642 -0.1653  0.3862 -0.6581
 3093TIP3    H130770   3.959   4.045   1.625 -1.1246 -0.2598 -2.6796
 3093TIP3    H230771   4.080   3.962   1.663 -0.1348  1.8215 -1.2321
 3094TIP3   OH230772   6.714   4.021   4.047  0.0196 -0.1652  0.6792
 3094TIP3    H130773   6.677   4.050   3.964 -1.3600  0.3030  1.4311
 3094TIP3    H230774   6.704   3.926   4.045  0.4124 -0.1962  0.1178
 3095TIP3   OH230775   1.459   0.548   5.123  0.4340 -0.1607  0.3402
 3095TIP3    H130776   1.381   0.499   5.100  1.4500 -0.4979 -2.5239
 3095TIP3    H230777   1.482   0.516   5.210 -2.0830 -0.6792  0.8721
 3096TIP3   OH230778   1.182   2.642  11.304  0.6500 -0.3307 -0.1644
 3096TIP3    H130779   1.203   2.732  11.280  0.1028  0.1881  1.2669
 3096TIP3    H230780   1.177   2.595  11.221  1.8945  0.7480 -0.8636
 3097TIP3   OH230781   5.330   1.495  16.688  0.0580 -0.1742  0.1966
 3097TIP3    H130782   5.350   1.529  16.776  1.3546 -1.1730  0.3074
 3097TIP3    H230783   5.416   1.487  16.646 -0.6299  1.1556 -1.4922
 3098TIP3   OH230784   3.039   5.618   6.504  0.3371 -0.5038  0.1642
 3098TIP3    H130785   3.005   5.679   6.438  0.7556 -0.7673 -0.2972
 3098TIP3    H230786   3.004   5.651   6.587 -0.1698 -0.1537 -0.1823
 3099TIP3   OH230787   4.478   3.671   5.125 -0.0498  0.7054 -0.3432
 3099TIP3    H130788   4.480   3.691   5.031 -1.4308 -0.7532 -0.7015
 3099TIP3    H230789   4.386   3.663   5.146  0.2852  0.1957  0.9733
 3100TIP3   OH230790   0.366   5.521  13.570 -0.3279  0.4582  0.2419
 3100TIP3    H130791   0.448   5.489  13.607  0.8019  1.6968 -1.1385
 3100TIP3    H230792   0.369   5.616  13.580 -0.9594  0.6325 -1.0715
 3101TIP3   OH230793   1.162   3.728   6.452 -0.1849  0.2087 -0.1754
 3101TIP3    H130794   1.253   3.735   6.480  0.2055 -0.9364 -1.1161
 3101TIP3    H230795   1.139   3.816   6.424  0.0278  0.9301  1.8298
 3102TIP3   OH230796   3.483   5.263   3.832 -0.3342 -0.0382 -0.1269
 3102TIP3    H130797   3.571   5.288   3.858 -0.4524 -0.5208  0.7698
 3102TIP3    H230798   3.495   5.201   3.760  0.0387  0.3236 -0.3738
 3103TIP3   OH230799   2.203   3.136   5.435  0.0913 -0.0339 -0.2500
 3103TIP3    H130800   2.182   3.130   5.342  1.0624 -2.4499 -0.3505
 3103TIP3    H230801   2.118   3.127   5.479 -0.1710 -0.5686 -0.8578
 3104TIP3   OH230802   2.594   2.125  10.952 -0.3896 -0.1162  0.4646
 3104TIP3    H130803   2.600   2.209  10.907 -0.9480 -0.8033 -0.9102
 3104TIP3    H230804   2.684   2.106  10.978 -0.1313  0.4922  0.0262
 3105TIP3   OH230805   3.913   3.429  11.866 -0.4938 -0.2637 -0.3355
 3105TIP3    H130806   3.834   3.378  11.883 -0.6324  0.1620  0.3185
 3105TIP3    H230807   3.885   3.520  11.875 -0.2116 -0.0632 -1.3261
 3106TIP3   OH230808   4.832   3.352  15.177 -0.2103  0.0118  0.0477
 3106TIP3    H130809   4.736   3.351  15.179 -0.2081  1.0545  0.7866
 3106TIP3    H230810   4.856   3.442  15.198  0.9238 -0.0129 -1.0877
 3107TIP3   OH230811   6.455   2.815   3.959  0.2138 -0.5147 -0.3136
 3107TIP3    H130812   6.512   2.828   3.882 -0.0878 -0.4947 -0.5340
 3107TIP3    H230813   6.380   2.872   3.943  0.0347 -0.6968 -0.1183
 3108TIP3   OH230814   2.903   3.243  11.896  0.3855  0.1901 -0.1310
 3108TIP3    H130815   2.922   3.232  11.990  0.7467  1.5884 -0.0248
 3108TIP3    H230816   2.989   3.237  11.854  0.2083 -0.5698 -0.3997
 3109TIP3   OH230817   0.940   4.786   4.152 -0.3079 -0.9812  0.6369
 3109TIP3    H130818   0.939   4.846   4.078 -0.9817  0.9995  2.1879
 3109TIP3    H230819   0.865   4.813   4.205  0.9490 -1.4550  2.7234
 3110TIP3   OH230820   5.222   2.575  16.361 -0.5455  0.2164  0.0873
 3110TIP3    H130821   5.277   2.602  16.287 -0.6095 -0.0786 -0.0692
 3110TIP3    H230822   5.189   2.488  16.336 -1.4288  0.5734 -0.0151
 3111TIP3   OH230823   6.380   0.454   2.790  0.7133 -0.2419  0.5152
 3111TIP3    H130824   6.288   0.440   2.812  0.2367  1.9168  0.0682
 3111TIP3    H230825   6.421   0.368   2.798 -1.1630 -1.0536  1.5885
 3112TIP3   OH230826   3.442   0.736   5.996  0.2572  0.0793  0.1777
 3112TIP3    H130827   3.399   0.704   6.075 -1.0078  1.0279 -0.1094
 3112TIP3    H230828   3.388   0.702   5.924  0.5358  0.4706 -0.2211
 3113TIP3   OH230829   3.323   6.310  14.689  0.0710 -0.2716 -0.3111
 3113TIP3    H130830   3.323   6.266  14.604  0.6393  1.0349 -1.0001
 3113TIP3    H230831   3.416   6.319  14.711 -0.0810 -1.1000  0.7284
 3114TIP3   OH230832   2.534   6.771   5.946  0.2376  0.4686  0.0746
 3114TIP3    H130833   2.553   6.687   5.987 -1.1143 -0.3412 -0.9269
 3114TIP3    H230834   2.525   6.832   6.019 -1.1353 -0.7422  0.9551
 3115TIP3   OH230835   5.144   6.093  12.404 -0.5819 -0.3405  0.6871
 3115TIP3    H130836   5.120   6.099  12.496 -0.9171  0.9108  0.5361
 3115TIP3    H230837   5.180   6.179  12.383 -0.3026 -0.6877 -0.2889
 3116TIP3   OH230838   3.610   3.869   2.880 -0.8993  0.2605 -0.6456
 3116TIP3    H130839   3.694   3.824   2.887 -1.0566 -0.0808 -0.8790
 3116TIP3    H230840   3.556   3.809   2.829 -1.8974 -0.4053  1.1540
 3117TIP3   OH230841   1.494   2.217  17.238 -0.6650 -0.3971  0.5168
 3117TIP3    H130842   1.486   2.122  17.240 -1.0315 -0.3974 -0.3849
 3117TIP3    H230843   1.475   2.245  17.327  1.8905 -1.3306  1.4055
 3118TIP3   OH230844   0.897   0.545   1.761  0.5623  0.2305  0.0188
 3118TIP3    H130845   0.947   0.626   1.768 -2.7088  2.1404  3.0342
 3118TIP3    H230846   0.924   0.493   1.836  0.5207 -0.2119 -0.2716
 3119TIP3   OH230847   1.085   6.810  15.185 -0.0798  0.3218 -0.0537
 3119TIP3    H130848   1.051   6.731  15.226  0.0359  0.1297 -0.3235
 3119TIP3    H230849   1.092   6.787  15.092 -0.3561  0.7530 -0.1825
 3120TIP3   OH230850   5.144   2.604  16.957  0.5475  0.7739 -0.0453
 3120TIP3    H130851   5.088   2.527  16.948  0.3801  1.0003 -0.9577
 3120TIP3    H230852   5.091   2.667  17.005  0.3830  0.6223 -0.0284
 3121TIP3   OH230853   2.908   0.602   5.672 -0.0375  0.5769  0.4130
 3121TIP3    H130854   2.825   0.579   5.715  0.4838  0.0788  1.1676
 3121TIP3    H230855   2.929   0.689   5.707  0.3843  0.1729  1.1641
 3122TIP3   OH230856   5.136   2.488   1.429 -0.2656  0.4187 -0.1460
 3122TIP3    H130857   5.228   2.465   1.415  0.0806  1.6431  0.0661
 3122TIP3    H230858   5.088   2.408   1.407  0.8894 -0.4359  0.3428
 3123TIP3   OH230859   3.151   5.509  17.008 -0.2074 -0.7844 -0.0249
 3123TIP3    H130860   3.059   5.520  16.983  0.3452 -0.9905 -2.1730
 3123TIP3    H230861   3.188   5.597  17.004  0.1583 -0.9811 -1.0524
 3124TIP3   OH230862   1.180   1.514   3.208 -0.1089 -0.2153 -0.2573
 3124TIP3    H130863   1.190   1.586   3.146 -0.9595  0.1840  0.0651
 3124TIP3    H230864   1.123   1.549   3.277 -0.3197 -1.1080  0.0291
 3125TIP3   OH230865   1.976   1.162  17.047 -0.3161  0.0231 -0.0906
 3125TIP3    H130866   2.065   1.145  17.014 -1.4057 -2.6918 -1.8197
 3125TIP3    H230867   1.984   1.151  17.142  1.2955  0.2830 -0.1673
 3126TIP3   OH230868   6.287   2.816  12.125  0.0990  0.0721  0.0580
 3126TIP3    H130869   6.224   2.752  12.157 -0.6418 -0.1080 -1.7369
 3126TIP3    H230870   6.344   2.767  12.066  0.6855  0.6648  0.1228
 3127TIP3   OH230871   6.371   5.331  13.515 -0.1500 -0.7013  0.3771
 3127TIP3    H130872   6.355   5.260  13.577 -1.3574 -0.8881 -0.1274
 3127TIP3    H230873   6.404   5.287  13.436 -0.5984 -0.6712  0.1718
 3128TIP3   OH230874   0.387   1.034  10.891 -0.0621  0.4203  0.7102
 3128TIP3    H130875   0.346   1.117  10.865  0.8338  0.8129  0.5167
 3128TIP3    H230876   0.321   0.968  10.874  0.4382  0.6674 -2.5888
 3129TIP3   OH230877   6.752   4.751   5.660  0.2990  0.1846 -0.4910
 3129TIP3    H130878   6.804   4.773   5.584  0.4272 -1.5705 -0.9406
 3129TIP3    H230879   6.789   4.668   5.691 -0.0794  0.6181  1.1678
 3130TIP3   OH230880   0.417   5.717  15.949  0.2951 -0.0259 -0.5231
 3130TIP3    H130881   0.359   5.763  16.010  0.2697 -0.9675  0.1712
 3130TIP3    H230882   0.480   5.783  15.921 -1.7041  1.2961 -2.0834
 3131TIP3   OH230883   6.290   1.220  16.529  0.4814 -0.2692 -0.6430
 3131TIP3    H130884   6.221   1.201  16.466  0.2550  1.6746 -0.9906
 3131TIP3    H230885   6.363   1.163  16.502  0.1654  0.0813 -2.2699
 3132TIP3   OH230886   0.318   5.649  11.898 -0.4525  0.3056  0.3593
 3132TIP3    H130887   0.232   5.688  11.882 -0.9115 -0.9066 -0.2089
 3132TIP3    H230888   0.353   5.633  11.810  0.1032  0.2388  0.5916
 3133TIP3   OH230889   0.945   5.682   1.475 -0.3153  0.1907 -0.3330
 3133TIP3    H130890   0.945   5.604   1.530  0.5995  0.0453 -0.5233
 3133TIP3    H230891   0.968   5.650   1.387  1.1572  0.8077 -0.1923
 3134TIP3   OH230892   3.107   1.184   5.137 -0.0255  0.0886 -0.0744
 3134TIP3    H130893   3.103   1.277   5.115 -0.3517  0.0979  0.0178
 3134TIP3    H230894   3.134   1.141   5.056  1.3987  0.3891  0.2249
 3135TIP3   OH230895   5.486   5.556   4.421 -0.3154  0.2039 -0.3431
 3135TIP3    H130896   5.536   5.637   4.410 -1.0937  0.7151 -0.1816
 3135TIP3    H230897   5.533   5.508   4.489  0.3880  0.3360 -0.7411
 3136TIP3   OH230898   2.382   0.907  11.892 -0.3513 -0.5424  0.1441
 3136TIP3    H130899   2.433   0.988  11.902 -0.8148 -0.5282  2.8833
 3136TIP3    H230900   2.315   0.929  11.826  0.9908  0.5327 -0.8852
 3137TIP3   OH230901   2.593   5.342  12.668  0.1512  0.0990  0.2260
 3137TIP3    H130902   2.624   5.315  12.754  3.0687 -0.7438 -1.0329
 3137TIP3    H230903   2.590   5.438  12.672  3.9686  0.2880  0.1098
 3138TIP3   OH230904   0.820   6.541   1.872 -0.0902 -0.1006  0.2689
 3138TIP3    H130905   0.907   6.504   1.856  0.2649  0.6147  0.5046
 3138TIP3    H230906   0.765   6.506   1.802 -0.1186 -2.2365  1.3285
 3139TIP3   OH230907   5.174   2.276  11.058 -0.1831  0.0709 -0.1274
 3139TIP3    H130908   5.221   2.316  10.985  0.8283  1.5869  1.3056
 3139TIP3    H230909   5.233   2.286  11.133 -1.3153 -1.1942  0.9682
 3140TIP3   OH230910   1.178   0.774   0.305  0.1191 -0.2248 -0.3211
 3140TIP3    H130911   1.264   0.734   0.322  0.4988  0.2805 -1.0244
 3140TIP3    H230912   1.145   0.797   0.392  2.3914  3.0657 -0.2436
 3141TIP3   OH230913   4.854   4.547  15.227 -0.0058 -0.2316 -0.7386
 3141TIP3    H130914   4.929   4.591  15.188  0.2158 -0.1876 -0.2719
 3141TIP3    H230915   4.855   4.575  15.319 -1.2762  0.6941 -0.9946
 3142TIP3   OH230916   1.645   6.443  16.119 -0.1064 -0.4380 -0.2685
 3142TIP3    H130917   1.590   6.463  16.044 -1.2413  0.3870  0.7745
 3142TIP3    H230918   1.693   6.364  16.093 -0.1544  0.0976 -2.0155
 3143TIP3   OH230919   4.055   6.612   2.971  0.0543  0.0030  0.1519
 3143TIP3    H130920   4.039   6.580   2.882  1.5919 -0.7297  0.1313
 3143TIP3    H230921   4.037   6.706   2.967 -1.5199 -0.3033 -0.5184
 3144TIP3   OH230922   0.092   3.029  13.069  0.0817 -0.0475 -0.9412
 3144TIP3    H130923   0.062   2.981  12.991  1.1045 -0.0323 -1.3542
 3144TIP3    H230924   0.043   3.111  13.066  0.3622  0.0980 -1.7636
 3145TIP3   OH230925   2.739   0.860  13.213  0.2864  0.0731  0.0030
 3145TIP3    H130926   2.646   0.864  13.235  0.4413 -0.4482  0.7464
 3145TIP3    H230927   2.783   0.856  13.297  0.9881  0.3652 -0.3498
 3146TIP3   OH230928   6.760   4.166  12.440  0.2657 -0.7129  0.0308
 3146TIP3    H130929   6.852   4.194  12.442  0.1627 -0.3636 -0.3446
 3146TIP3    H230930   6.726   4.190  12.526  0.6187 -1.1547  0.3002
 3147TIP3   OH230931   5.176   4.308  12.644 -0.2109  0.2323 -0.0173
 3147TIP3    H130932   5.170   4.402  12.662 -1.8659  0.3258 -1.0046
 3147TIP3    H230933   5.256   4.281  12.689  0.4629  2.1684  0.0136
 3148TIP3   OH230934   6.500   1.433   0.612  0.9326  0.5143  0.4702
 3148TIP3    H130935   6.460   1.516   0.587  3.1157  1.6432  0.5667
 3148TIP3    H230936   6.459   1.368   0.554 -0.0800  1.8041 -0.2935
 3149TIP3   OH230937   2.140   3.062   4.099 -0.1439 -0.3383  0.3594
 3149TIP3    H130938   2.214   3.104   4.057  0.0529  0.3137  1.3548
 3149TIP3    H230939   2.081   3.039   4.027  2.3704 -3.6123 -0.7963
 3150TIP3   OH230940   4.883   6.170   6.007 -0.6285  0.0586 -0.2163
 3150TIP3    H130941   4.859   6.106   6.075 -1.6173  1.9967  1.3296
 3150TIP3    H230942   4.948   6.125   5.953 -3.0841 -3.1061 -0.6697
 3151TIP3   OH230943   5.143   1.178  16.993 -0.1271  0.0373  0.5074
 3151TIP3    H130944   5.153   1.256  17.048 -0.0218  1.2842 -1.2581
 3151TIP3    H230945   5.220   1.178  16.937  0.5066 -2.0543  1.3369
 3152TIP3   OH230946   2.141   0.133   2.713  0.6849  0.9354 -0.6324
 3152TIP3    H130947   2.226   0.096   2.693 -0.2695 -0.7498 -1.6759
 3152TIP3    H230948   2.081   0.059   2.710 -0.9800  2.2652 -0.9358
 3153TIP3   OH230949   4.534   3.151  12.550  1.1467  0.9663  0.5095
 3153TIP3    H130950   4.501   3.079  12.605  1.0462  1.1004  0.6270
 3153TIP3    H230951   4.627   3.156  12.571  1.4072  0.0743 -0.4008
 3154TIP3   OH230952   1.496   4.870   2.641 -0.6134 -0.2646 -0.3357
 3154TIP3    H130953   1.444   4.794   2.670  2.0408 -2.6471 -1.6009
 3154TIP3    H230954   1.553   4.890   2.715 -0.3652 -0.3846 -0.4930
 3155TIP3   OH230955   2.520   4.459   3.051  0.1955  0.0232 -0.6975
 3155TIP3    H130956   2.444   4.497   3.094  0.2963 -1.2103  0.6029
 3155TIP3    H230957   2.484   4.399   2.986  0.0098 -2.0966  1.2930
 3156TIP3   OH230958   1.519   3.692  15.310 -0.8021 -0.4387 -0.3040
 3156TIP3    H130959   1.482   3.740  15.237 -1.5698 -0.3789  0.1154
 3156TIP3    H230960   1.608   3.670  15.283 -0.2784  1.6096 -0.3197
 3157TIP3   OH230961   2.174   2.089  11.604  0.2968 -0.5794  1.0983
 3157TIP3    H130962   2.202   2.180  11.599  0.6003 -0.7203 -0.0302
 3157TIP3    H230963   2.251   2.039  11.576 -0.0603 -1.1495  1.1235
 3158TIP3   OH230964   5.456   3.144  16.797  0.4627 -0.1891  0.0558
 3158TIP3    H130965   5.535   3.186  16.765  0.1157 -0.3079 -0.9768
 3158TIP3    H230966   5.385   3.191  16.754 -0.0447  0.0961  1.1917
 3159TIP3   OH230967   4.141   6.635  13.602 -0.3918 -0.0372 -0.0709
 3159TIP3    H130968   4.136   6.566  13.669  0.3012 -0.5421 -0.5290
 3159TIP3    H230969   4.108   6.593  13.523  0.4081  0.0234 -0.4443
 3160TIP3   OH230970   1.926   0.358   1.456 -0.6091 -0.3890  0.0481
 3160TIP3    H130971   2.002   0.299   1.460  0.0760  0.3991 -1.0297
 3160TIP3    H230972   1.872   0.334   1.531  0.0534 -1.8675  0.0656
 3161TIP3   OH230973   2.598   5.617   0.010  0.3935  0.6999  1.4586
 3161TIP3    H130974   2.619   5.527  -0.015  0.9761  0.9264  1.1334
 3161TIP3    H230975   2.520   5.638  -0.041 -0.1397  0.1495  2.0343
 3162TIP3   OH230976   1.977   5.507   2.315 -0.1860  0.2480 -0.4882
 3162TIP3    H130977   1.980   5.603   2.314  0.6107  0.2202 -1.0814
 3162TIP3    H230978   2.024   5.482   2.394 -0.5097  0.3476 -0.2625
 3163TIP3   OH230979   0.371   4.697   0.124 -0.2624 -0.0450  0.2844
 3163TIP3    H130980   0.454   4.708   0.077 -0.6729 -0.6672 -0.6042
 3163TIP3    H230981   0.397   4.677   0.213  0.5357  1.5735  0.4436
 3164TIP3   OH230982   2.978   1.454  12.830  0.0571 -0.3894 -0.3760
 3164TIP3    H130983   2.984   1.394  12.755  1.9176  1.0723 -1.4198
 3164TIP3    H230984   2.884   1.463  12.846 -0.3964  0.1308 -3.2152
 3165TIP3   OH230985   2.150   1.340  15.766  0.1663  0.3825 -0.1714
 3165TIP3    H130986   2.115   1.424  15.735 -0.4480 -0.1551 -0.9674
 3165TIP3    H230987   2.172   1.292  15.686 -0.3938 -0.5869  0.2354
 3166TIP3   OH230988   1.814   3.979   0.909 -0.3071  0.3505 -0.0594
 3166TIP3    H130989   1.895   3.929   0.911 -1.0087 -0.8440 -0.6939
 3166TIP3    H230990   1.818   4.029   0.828 -0.4670 -0.1415 -0.3671
 3167TIP3   OH230991   3.341   5.908   5.786 -0.3345  0.1277  0.3015
 3167TIP3    H130992   3.412   5.958   5.826 -1.1925  1.1498  0.5773
 3167TIP3    H230993   3.307   5.853   5.856  0.6517 -0.9028 -0.0177
 3168TIP3   OH230994   4.118   2.228  15.049  0.0430 -0.2283 -0.1134
 3168TIP3    H130995   4.160   2.142  15.045 -0.6332 -0.4618 -4.2954
 3168TIP3    H230996   4.032   2.211  15.087  0.2154 -1.2976 -0.1906
 3169TIP3   OH230997   5.545   5.548  11.627 -0.2377  0.6977 -0.5671
 3169TIP3    H130998   5.569   5.630  11.670  0.8286 -0.5153  1.2388
 3169TIP3    H230999   5.623   5.493  11.633 -1.3960 -1.0063 -0.3697
 3170TIP3   OH231000   4.590   0.298   2.419 -0.1448 -0.6446 -0.2333
 3170TIP3    H131001   4.682   0.285   2.396 -0.2038 -0.4688 -0.5592
 3170TIP3    H231002   4.542   0.266   2.343 -0.3451 -0.3934 -0.2092
 3171TIP3   OH231003   0.267   5.791  12.866 -0.2733  0.0344  0.3180
 3171TIP3    H131004   0.324   5.735  12.814  0.8301  0.4044  1.1032
 3171TIP3    H231005   0.194   5.735  12.891  0.2063 -0.7076  0.0688
 3172TIP3   OH231006   1.340   1.702  15.548 -0.4403  0.6372 -0.1980
 3172TIP3    H131007   1.381   1.638  15.606  1.1469  1.0390 -0.8354
 3172TIP3    H231008   1.373   1.679  15.461 -1.4960  1.0460 -0.7120
 3173TIP3   OH231009   6.652   2.425  12.025  0.9748 -0.2641  0.4863
 3173TIP3    H131010   6.618   2.353  11.971  1.4715 -0.4204  0.3799
 3173TIP3    H231011   6.664   2.497  11.964  1.4638 -0.4169  0.4020
 3174TIP3   OH231012   2.186   0.389  12.153  0.4814  0.6962 -0.1719
 3174TIP3    H131013   2.255   0.354  12.097 -1.7884 -0.6233 -2.2037
 3174TIP3    H231014   2.152   0.313  12.200 -1.2223  0.9073 -1.0177
 3175TIP3   OH231015   5.989   1.955  12.775 -0.2078 -0.3097  0.6240
 3175TIP3    H131016   6.080   1.944  12.748 -0.6239 -2.4446 -0.0639
 3175TIP3    H231017   5.950   2.008  12.706  0.6070  0.9756  1.1428
 3176TIP3   OH231018   6.468   0.496  17.044  0.6082 -0.1962 -0.4193
 3176TIP3    H131019   6.535   0.485  17.112  0.6272 -0.8111 -0.5401
 3176TIP3    H231020   6.457   0.591  17.037 -0.0709 -0.1520  1.1104
 3177TIP3   OH231021   2.980   0.506   0.336 -0.0891  0.7126  0.4265
 3177TIP3    H131022   2.914   0.493   0.404  0.0134 -1.0656  0.2082
 3177TIP3    H231023   2.934   0.556   0.268 -1.2218 -0.4695  0.2932
 3178TIP3   OH231024   3.569   1.192   1.213  0.2489  0.1217 -0.0654
 3178TIP3    H131025   3.571   1.126   1.283  0.3068  1.7446  1.4987
 3178TIP3    H231026   3.624   1.155   1.144 -0.8627 -2.1023  0.1977
 3179TIP3   OH231027   5.164   3.254   2.350  0.2965 -0.1702  0.2758
 3179TIP3    H131028   5.191   3.162   2.348 -1.7186 -0.8221  1.4078
 3179TIP3    H231029   5.122   3.268   2.265  1.1398 -0.1160 -0.1361
 3180TIP3   OH231030   1.885   4.907   5.086  0.5488 -0.0690 -0.2446
 3180TIP3    H131031   1.874   4.856   5.165 -0.6905 -0.6551 -0.7870
 3180TIP3    H231032   1.978   4.898   5.064  0.8444 -0.0774  1.0095
 3181TIP3   OH231033   5.072   0.584   4.745  0.0153  0.1443  0.6078
 3181TIP3    H131034   5.118   0.546   4.670  1.2362  0.0485  1.4013
 3181TIP3    H231035   4.980   0.580   4.720  0.3581 -0.5097 -0.6108
 3182TIP3   OH231036   1.195   3.557  11.307  0.8915  0.3380 -0.4692
 3182TIP3    H131037   1.155   3.643  11.315  0.8333  0.3905 -1.2773
 3182TIP3    H231038   1.279   3.564  11.354  0.6806  0.6909 -0.1411
 3183TIP3   OH231039   1.487   6.120   3.572  0.0679 -0.4580 -0.4354
 3183TIP3    H131040   1.483   6.138   3.666 -0.2059  2.7590 -0.9893
 3183TIP3    H231041   1.397   6.132   3.541  0.6186  1.2101 -1.5042
 3184TIP3   OH231042   0.762   4.407   0.347  0.8643 -0.0775 -0.0818
 3184TIP3    H131043   0.719   4.327   0.319  0.6781 -1.0351  2.7493
 3184TIP3    H231044   0.775   4.396   0.442  1.2684  3.0128  0.2934
 3185TIP3   OH231045   1.715   0.712   2.081  0.2810  0.1106  0.4507
 3185TIP3    H131046   1.651   0.783   2.078  0.0322 -0.1361 -0.1787
 3185TIP3    H231047   1.796   0.754   2.112 -0.0557  0.5183  0.7831
 3186TIP3   OH231048   2.201   6.402   6.314 -0.0052  0.1611 -0.0669
 3186TIP3    H131049   2.247   6.318   6.324 -0.0790  0.1358  0.0552
 3186TIP3    H231050   2.238   6.457   6.382  0.5282  0.4426 -0.5791
 3187TIP3   OH231051   3.032   6.622   0.771  0.6439 -0.2593 -0.9731
 3187TIP3    H131052   2.943   6.589   0.786  0.6675 -0.6484 -1.6819
 3187TIP3    H231053   3.027   6.716   0.791  0.3706 -0.5167  0.2012
 3188TIP3   OH231054   0.249   1.817  17.117 -0.0815 -0.7138 -0.5797
 3188TIP3    H131055   0.344   1.828  17.122  0.2994 -2.8381 -2.2026
 3188TIP3    H231056   0.217   1.903  17.092  1.6873 -0.5616 -2.4981
 3189TIP3   OH231057   0.354   0.901  15.365  0.1143 -0.4743  0.2846
 3189TIP3    H131058   0.311   0.917  15.281  1.8951 -0.5378 -0.6723
 3189TIP3    H231059   0.287   0.920  15.431 -0.7315  1.4266 -1.0878
 3190TIP3   OH231060   1.866   0.587  13.830 -0.0766  0.4411 -0.1651
 3190TIP3    H131061   1.793   0.542  13.789  1.1650 -2.0827  0.2668
 3190TIP3    H231062   1.831   0.620  13.912 -0.1445 -3.0872  1.3274
 3191TIP3   OH231063   6.405   0.279  14.240  0.6774  0.7299 -0.5395
 3191TIP3    H131064   6.374   0.265  14.150  1.0508  0.8861 -0.6931
 3191TIP3    H231065   6.499   0.262  14.235  0.9378  2.0963 -0.4687
 3192TIP3   OH231066   4.632   1.970  16.210  0.9295 -0.7929  0.1494
 3192TIP3    H131067   4.702   2.025  16.247 -0.4665  1.3333 -0.2542
 3192TIP3    H231068   4.558   1.983  16.268  0.3765 -1.7122 -0.3493
 3193TIP3   OH231069   5.421   5.297   5.255  0.2523 -0.8236 -0.0927
 3193TIP3    H131070   5.400   5.358   5.325  0.6859 -0.6784 -0.0871
 3193TIP3    H231071   5.354   5.229   5.261  0.0098 -0.5604  0.1573
 3194TIP3   OH231072   2.666   4.975   3.664  0.4004  0.3885  0.3213
 3194TIP3    H131073   2.725   5.037   3.708  0.1030  0.4557  0.6274
 3194TIP3    H231074   2.584   5.022   3.655 -0.2330 -0.4015  1.7485
 3195TIP3   OH231075   4.574   4.085  13.641 -0.1283  0.0110  0.0552
 3195TIP3    H131076   4.616   4.067  13.557  0.2279  0.7974  0.0637
 3195TIP3    H231077   4.644   4.078  13.706 -0.3987 -0.5821  0.2868
 3196TIP3   OH231078   5.734   1.607   6.618  0.2564  0.4409  0.3437
 3196TIP3    H131079   5.739   1.693   6.576 -1.0525  0.4681  0.2306
 3196TIP3    H231080   5.761   1.545   6.550 -1.6491  0.5058 -0.4897
 3197TIP3   OH231081   5.475   2.044   1.757 -0.1753 -0.1566  0.2739
 3197TIP3    H131082   5.452   2.135   1.739  1.6005  0.0540 -1.0556
 3197TIP3    H231083   5.407   2.013   1.817 -0.6735  2.1074  0.9208
 3198TIP3   OH231084   5.142   1.314  14.658 -0.3494 -0.2523 -0.3356
 3198TIP3    H131085   5.232   1.345  14.649  0.2300 -2.0711 -1.0202
 3198TIP3    H231086   5.117   1.336  14.748  1.0610 -0.4399  0.1102
 3199TIP3   OH231087   4.035   1.515   3.649 -0.9353  0.0118  0.3484
 3199TIP3    H131088   4.009   1.571   3.723 -2.0458  0.5763 -0.4556
 3199TIP3    H231089   4.131   1.521   3.648 -0.8527 -0.6527  2.2389
 3200TIP3   OH231090   2.402   6.033  16.258  0.1508 -0.2472 -0.1966
 3200TIP3    H131091   2.329   6.076  16.215  0.2006 -0.4391 -0.4727
 3200TIP3    H231092   2.377   6.029  16.350 -0.0942 -0.1247 -0.2580
 3201TIP3   OH231093   4.748   0.025   1.619  0.0315 -1.6981 -0.5116
 3201TIP3    H131094   4.831   0.045   1.577  0.2611 -1.1418  0.1956
 3201TIP3    H231095   4.771   0.001   1.709 -0.7090  0.3749  0.2762
 3202TIP3   OH231096   4.248   4.155   3.112 -0.3822 -0.5260 -0.6450
 3202TIP3    H131097   4.174   4.140   3.170 -1.4633  1.9976 -1.2687
 3202TIP3    H231098   4.305   4.216   3.160 -1.5667  2.0297 -2.3480
 3203TIP3   OH231099   6.723   2.810  16.953  0.4948 -0.0396  0.2064
 3203TIP3    H131100   6.748   2.780  16.865  1.9779 -0.2027  0.6711
 3203TIP3    H231101   6.790   2.874  16.977 -1.0763  1.5751  0.3860
 3204TIP3   OH231102   0.062   0.981   0.323 -0.1138 -0.2501  0.1858
 3204TIP3    H131103  -0.025   0.954   0.294 -0.6319 -0.3820  1.8026
 3204TIP3    H231104   0.096   0.905   0.371  0.7765 -0.0998 -0.1969
 3205TIP3   OH231105   3.793   2.561  13.067 -0.2971 -0.5075  0.7229
 3205TIP3    H131106   3.716   2.511  13.041  1.0003 -2.7634  1.0984
 3205TIP3    H231107   3.804   2.626  12.998 -0.5921 -2.3347 -1.0792
 3206TIP3   OH231108   0.536   6.465  12.133  0.0087  0.7952 -0.0766
 3206TIP3    H131109   0.553   6.481  12.040  0.5892  0.3283 -0.0565
 3206TIP3    H231110   0.623   6.454  12.172 -0.2618  0.1087  0.3536
 3207TIP3   OH231111   5.531   4.148  12.133  0.2373  0.1795 -0.6311
 3207TIP3    H131112   5.514   4.242  12.127 -0.2018  0.0221 -1.8616
 3207TIP3    H231113   5.445   4.108  12.122  0.5467 -0.4056 -0.8953
 3208TIP3   OH231114   1.336   5.038  11.673  0.1605  0.4555 -0.3756
 3208TIP3    H131115   1.329   5.000  11.586  4.4451 -1.4261 -0.0638
 3208TIP3    H231116   1.333   4.962  11.732 -3.4167  1.7559  1.2261
 3209TIP3   OH231117   5.732   6.123  15.027 -0.1015  0.8437  0.3948
 3209TIP3    H131118   5.749   6.183  15.099 -0.0482 -0.2831  1.3399
 3209TIP3    H231119   5.637   6.111  15.028  0.1889 -1.6723  2.3604
 3210TIP3   OH231120   3.999   4.449   4.226  0.3886 -0.0524 -0.4853
 3210TIP3    H131121   3.942   4.516   4.262 -2.1886 -3.0875  1.3812
 3210TIP3    H231122   3.960   4.426   4.142  0.2811 -0.3836 -0.3466
 3211TIP3   OH231123   2.438   4.048   3.870 -0.8242 -0.6050  0.5616
 3211TIP3    H131124   2.477   3.963   3.848 -2.2193 -1.1926  0.3395
 3211TIP3    H231125   2.379   4.028   3.943  0.7999  0.6332  2.2504
 3212TIP3   OH231126   3.146   0.635  14.653 -0.1188 -0.0497 -0.2327
 3212TIP3    H131127   3.169   0.581  14.577 -2.2224  2.2297 -2.5878
 3212TIP3    H231128   3.125   0.571  14.722  4.6998 -2.1531 -0.5514
 3213TIP3   OH231129   4.519   2.762  13.439  0.1567  0.2389  0.0267
 3213TIP3    H131130   4.549   2.691  13.383 -0.8124  0.2363 -0.5106
 3213TIP3    H231131   4.573   2.756  13.518  1.0671 -0.1793 -0.6260
 3214TIP3   OH231132   0.702   1.528   1.905 -0.4634  0.1575  0.4730
 3214TIP3    H131133   0.616   1.543   1.945 -0.9546  1.9991 -1.1757
 3214TIP3    H231134   0.760   1.591   1.949 -0.5268  0.6866 -0.2008
 3215TIP3   OH231135   5.276   4.861  12.523  0.6932  0.7153 -0.0160
 3215TIP3    H131136   5.295   4.779  12.478 -1.0767 -0.3015  1.0207
 3215TIP3    H231137   5.339   4.924  12.487  1.1343 -0.7382 -1.8527
 3216TIP3   OH231138   1.584   2.089  11.287 -0.0122  0.0525 -0.8312
 3216TIP3    H131139   1.553   2.171  11.325  1.4725  1.1447 -1.9172
 3216TIP3    H231140   1.660   2.114  11.235 -0.5954 -1.7579 -2.6173
 3217TIP3   OH231141   6.754   3.828  14.039  0.4847 -0.0773 -0.1860
 3217TIP3    H131142   6.734   3.898  14.101  0.5527  0.1188 -0.3830
 3217TIP3    H231143   6.802   3.872  13.969 -1.2584  0.0790 -1.3144
 3218TIP3   OH231144   2.688   5.642  15.086 -0.3517 -0.0640  0.0953
 3218TIP3    H131145   2.762   5.619  15.030 -0.0572  1.6879 -0.2718
 3218TIP3    H231146   2.729   5.675  15.166 -0.7344  0.4262  0.0912
 3219TIP3   OH231147   0.152   0.346  12.599 -0.5580 -0.0692  0.0892
 3219TIP3    H131148   0.222   0.411  12.591 -0.6736 -0.1170 -1.4350
 3219TIP3    H231149   0.150   0.302  12.514 -1.2358 -1.3117  0.7224
 3220TIP3   OH231150   1.705   1.441  10.704  0.4363  0.2283 -0.7245
 3220TIP3    H131151   1.766   1.384  10.750  0.7040  1.8611  0.9908
 3220TIP3    H231152   1.662   1.383  10.641  1.1403 -1.7326  0.5356
 3221TIP3   OH231153   6.792   2.440  11.066  0.7642  0.2139 -0.6277
 3221TIP3    H131154   6.852   2.502  11.107 -0.5837  1.5237 -0.6103
 3221TIP3    H231155   6.744   2.492  11.001 -1.4597 -0.4221  0.4384
 3222TIP3   OH231156   1.722   4.637   6.699  0.1034 -0.1509  0.6251
 3222TIP3    H131157   1.646   4.692   6.679 -0.9360 -1.5731  0.5709
 3222TIP3    H231158   1.694   4.549   6.677  2.2992 -0.5331 -0.8214
 3223TIP3   OH231159   4.167   4.599   5.838  0.1467 -0.2112 -0.4734
 3223TIP3    H131160   4.224   4.580   5.763 -0.3103  1.1746 -1.1891
 3223TIP3    H231161   4.113   4.520   5.847  1.1693 -0.9446 -0.7162
 3224TIP3   OH231162   2.314   6.755  13.209  0.1055 -0.4453  0.0487
 3224TIP3    H131163   2.399   6.795  13.191 -0.5640  1.2150  0.4761
 3224TIP3    H231164   2.270   6.754  13.124  0.9933 -2.4673 -0.4315
 3225TIP3   OH231165   5.983   0.070   3.953 -0.2403 -0.3176  0.1809
 3225TIP3    H131166   5.987  -0.002   3.889  1.0521  0.1280 -0.2567
 3225TIP3    H231167   5.947   0.144   3.903 -1.1017 -0.5203  0.5001
 3226TIP3   OH231168   2.799   1.125   3.273  0.5311 -0.2092  0.5312
 3226TIP3    H131169   2.803   1.093   3.363 -0.1502 -0.5152  0.4609
 3226TIP3    H231170   2.886   1.109   3.238  1.4092  1.6967  1.7267
 3227TIP3   OH231171   3.722   4.123   0.715 -0.2127  0.0058  0.2970
 3227TIP3    H131172   3.783   4.163   0.652 -0.4845 -0.4208 -0.2389
 3227TIP3    H231173   3.762   4.038   0.735  0.1444  0.3598  1.1071
 3228TIP3   OH231174   6.341   5.465  15.233  0.0423  0.0128 -0.1578
 3228TIP3    H131175   6.353   5.551  15.275 -0.9142  0.3413 -0.5394
 3228TIP3    H231176   6.361   5.402  15.302  0.6737  0.5456  0.1484
 3229TIP3   OH231177   4.999   1.023   3.118  0.0686 -0.1703  0.1172
 3229TIP3    H131178   5.010   0.987   3.029 -0.0024 -0.9321  0.4141
 3229TIP3    H231179   4.996   1.117   3.105 -0.8426 -0.3102 -0.8051
 3230TIP3   OH231180   1.325   0.808  13.194  0.0960  0.8859  0.4307
 3230TIP3    H131181   1.278   0.754  13.257 -0.3738  0.2364 -0.4779
 3230TIP3    H231182   1.263   0.878  13.172 -0.0849  0.5957  0.0006
 3231TIP3   OH231183   3.278   5.068  16.688 -0.0232  0.1555 -0.4939
 3231TIP3    H131184   3.199   5.016  16.673 -0.6308 -0.0836  2.9888
 3231TIP3    H231185   3.249   5.139  16.746  2.0709  0.7938 -0.1787
 3232TIP3   OH231186   6.220   1.747  12.317  0.2927  0.0386 -0.6462
 3232TIP3    H131187   6.131   1.715  12.303 -0.2500  1.2155  0.0327
 3232TIP3    H231188   6.247   1.781  12.232  0.3164 -0.8447 -0.9949
 3233TIP3   OH231189   3.286   1.675   1.581  0.0345  0.3119  0.3924
 3233TIP3    H131190   3.262   1.607   1.644  1.1430 -0.0448  0.4457
 3233TIP3    H231191   3.254   1.642   1.497 -1.8719  1.0103  0.8258
 3234TIP3   OH231192   3.179   2.808  11.281 -0.4072 -0.2355  0.3406
 3234TIP3    H131193   3.106   2.870  11.275 -0.7841 -0.6611  0.4477
 3234TIP3    H231194   3.238   2.847  11.345 -0.6010  0.0584  0.3430
 3235TIP3   OH231195   6.766   0.473  16.235 -0.1034  0.2545  0.0107
 3235TIP3    H131196   6.720   0.439  16.158 -0.8492  0.4808  0.3462
 3235TIP3    H231197   6.786   0.396  16.288 -2.3844  0.3710  1.0933
 3236TIP3   OH231198   0.736   3.750  12.368  0.0303 -0.4179 -0.0168
 3236TIP3    H131199   0.766   3.820  12.312 -0.0373  0.8543  1.5057
 3236TIP3    H231200   0.645   3.735  12.342  0.0886 -0.0271 -0.4319
 3237TIP3   OH231201   2.199   1.517   3.101 -0.0854  0.5142  0.4073
 3237TIP3    H131202   2.230   1.440   3.055 -0.4807  1.1214 -0.9058
 3237TIP3    H231203   2.278   1.563   3.129  0.1441 -0.7632  1.8856
 3238TIP3   OH231204   2.833   4.497  12.256 -0.3389  0.3348 -0.2781
 3238TIP3    H131205   2.808   4.587  12.279  0.6893  0.3547  0.8468
 3238TIP3    H231206   2.820   4.447  12.336  1.0407 -0.0955 -0.3014
 3239TIP3   OH231207   5.249   4.303  13.751  0.1303 -0.0499 -0.0677
 3239TIP3    H131208   5.239   4.222  13.801 -2.7281  0.6264  0.5513
 3239TIP3    H231209   5.339   4.331  13.768  0.7672 -2.4123  0.7063
 3240TIP3   OH231210   2.745   0.990   3.870  0.1668  0.2114 -0.1234
 3240TIP3    H131211   2.830   1.032   3.887 -0.1617  0.0718  1.9378
 3240TIP3    H231212   2.745   0.912   3.926  0.4662 -2.2396 -3.3402
 3241TIP3   OH231213   4.257   2.763  13.897 -0.1817  0.3118 -0.2004
 3241TIP3    H131214   4.335   2.767  13.952  0.6370  2.3150 -1.4634
 3241TIP3    H231215   4.281   2.704  13.825 -0.5160 -0.5878  0.4091
 3242TIP3   OH231216   5.468   2.755  12.021 -0.9008  0.4689  0.2841
 3242TIP3    H131217   5.510   2.694  11.961 -1.5060  0.1624  0.1687
 3242TIP3    H231218   5.535   2.821  12.038 -0.2503 -0.2113  0.3956
 3243TIP3   OH231219   1.761   4.022   4.902  0.4465 -0.5921  0.2792
 3243TIP3    H131220   1.748   4.116   4.898  0.0399 -0.6580  0.0368
 3243TIP3    H231221   1.728   3.996   4.988  3.2172 -0.1093  1.5474
 3244TIP3   OH231222   4.381   6.585  10.916 -0.2470  0.3615  0.4230
 3244TIP3    H131223   4.302   6.547  10.953 -0.1579  0.1217  0.3694
 3244TIP3    H231224   4.433   6.509  10.888 -1.0937  0.5789 -1.8478
 3245TIP3   OH231225   1.611   6.203  13.651 -0.0567 -0.0221 -0.1008
 3245TIP3    H131226   1.630   6.279  13.596 -0.4292 -1.0810 -1.7487
 3245TIP3    H231227   1.583   6.135  13.589 -1.4029 -0.9728  1.4817
 3246TIP3   OH231228   6.414   6.541   5.078  0.3710 -0.0510  0.0896
 3246TIP3    H131229   6.399   6.512   4.988 -0.0450  2.9791 -0.8850
 3246TIP3    H231230   6.496   6.500   5.104  1.2218  0.1691 -2.1873
 3247TIP3   OH231231   3.519   2.233  16.359  0.0312  0.1208  0.1677
 3247TIP3    H131232   3.508   2.310  16.415 -1.2900 -0.1344  0.2621
 3247TIP3    H231233   3.592   2.185  16.399 -0.1601  0.5235  1.0214
 3248TIP3   OH231234   5.864   4.027  11.736 -0.5805 -0.4353 -0.0043
 3248TIP3    H131235   5.791   4.008  11.676 -1.1629  0.1237  0.5259
 3248TIP3    H231236   5.942   4.014  11.682 -1.0727 -0.8565 -0.6322
 3249TIP3   OH231237   5.464   0.034  16.560  0.6685 -0.5359 -0.0026
 3249TIP3    H131238   5.375  -0.001  16.555  0.7421 -0.6501 -0.6080
 3249TIP3    H231239   5.480   0.072  16.473  1.6875 -1.7161 -0.3614
 3250TIP3   OH231240   0.958   2.216  15.912 -0.2732  0.1127  0.0917
 3250TIP3    H131241   0.962   2.305  15.876 -0.8707 -0.1180 -0.5463
 3250TIP3    H231242   0.939   2.160  15.837 -1.6873 -0.3513  0.7819
 3251TIP3   OH231243   5.979   2.404   1.010  0.4500  0.6017 -0.4862
 3251TIP3    H131244   5.923   2.451   0.948 -0.1266  2.0871  1.1349
 3251TIP3    H231245   6.047   2.365   0.955 -1.1852  0.1676 -2.2999
 3252TIP3   OH231246   0.040   0.034  15.730  0.1989  0.3882  0.4409
 3252TIP3    H131247  -0.023   0.016  15.660  1.1180  1.1021 -0.5846
 3252TIP3    H231248   0.103   0.095  15.691  1.3254 -0.0307  1.5653
 3253TIP3   OH231249   6.292   6.315  11.837  0.2905  0.1788 -0.0990
 3253TIP3    H131250   6.297   6.221  11.857  1.6691  0.2094 -0.2370
 3253TIP3    H231251   6.377   6.336  11.798  0.3684  1.7008  0.8349
 3254TIP3   OH231252   2.449   6.787  11.347  0.1450 -0.3471 -0.4055
 3254TIP3    H131253   2.518   6.853  11.347 -2.1289  2.1657 -2.3462
 3254TIP3    H231254   2.465   6.735  11.268 -0.7375  0.8811 -1.4056
 3255TIP3   OH231255   2.200   1.517   2.816  0.2349  0.1358 -0.3125
 3255TIP3    H131256   2.287   1.476   2.812  0.8407  1.3267  0.3818
 3255TIP3    H231257   2.198   1.575   2.740  0.8603  1.6382  0.7797
 3256TIP3   OH231258   0.522   5.304   0.395 -0.3216  0.4299  0.0606
 3256TIP3    H131259   0.528   5.378   0.456 -0.9586 -0.2435  0.9655
 3256TIP3    H231260   0.478   5.339   0.318 -0.1912  1.1140  0.2969
 3257TIP3   OH231261   1.132   4.921  12.659  0.7891  0.6641  0.4192
 3257TIP3    H131262   1.141   4.943  12.751  0.0053  0.0101  0.6531
 3257TIP3    H231263   1.220   4.894  12.632  0.7002 -0.5644  1.3431
 3258TIP3   OH231264   4.094   1.278   3.005 -0.0255  0.0712 -0.0563
 3258TIP3    H131265   4.063   1.190   3.028 -1.9503  0.6000 -0.5947
 3258TIP3    H231266   4.167   1.262   2.944 -0.2211 -1.1577  0.0196
 3259TIP3   OH231267   2.607   4.469   0.661  0.9035  0.1122 -0.1956
 3259TIP3    H131268   2.548   4.491   0.734  0.3046 -0.9741 -0.3421
 3259TIP3    H231269   2.684   4.430   0.703  0.3305 -1.0047 -0.1713
 3260TIP3   OH231270   1.899   4.014  15.515  0.5618  0.1564 -0.5323
 3260TIP3    H131271   1.897   3.949  15.584  0.4580 -0.2696 -0.9369
 3260TIP3    H231272   1.811   4.012  15.477  1.1508 -0.9044 -1.8792
 3261TIP3   OH231273   6.044   1.730  15.148  0.2095  0.0306 -0.5976
 3261TIP3    H131274   6.130   1.713  15.186 -0.8699 -1.0906  1.4210
 3261TIP3    H231275   6.029   1.823  15.166  0.8704  0.1606 -0.6934
 3262TIP3   OH231276   3.410   4.009  16.930  0.3394  0.3223 -0.1056
 3262TIP3    H131277   3.444   3.975  16.848 -1.1057 -0.4557 -0.3916
 3262TIP3    H231278   3.447   4.098  16.936  1.2818  0.0104 -1.0665
 3263TIP3   OH231279   5.174   6.604  15.345  0.2037  0.4498 -0.2240
 3263TIP3    H131280   5.175   6.697  15.325 -2.1209  0.7044  0.6761
 3263TIP3    H231281   5.207   6.597  15.434 -1.7352  0.6577  0.5230
 3264TIP3   OH231282   3.454   1.461   5.683  0.0322  0.3352  0.2819
 3264TIP3    H131283   3.405   1.387   5.647  0.4753 -0.7471  1.8622
 3264TIP3    H231284   3.544   1.447   5.652  0.3678 -0.4746  1.5895
 3265TIP3   OH231285   1.681   4.195   3.267  0.1318  0.8228  0.1681
 3265TIP3    H131286   1.691   4.192   3.362  0.2801 -2.3925  0.1157
 3265TIP3    H231287   1.587   4.196   3.253  0.1054  0.8805  0.3516
 3266TIP3   OH231288   2.412   4.660  14.321 -0.1352  0.1076  0.1577
 3266TIP3    H131289   2.369   4.725  14.265 -1.1349  1.0341  1.9632
 3266TIP3    H231290   2.345   4.593  14.335  0.6150 -0.9194 -0.9814
 3267TIP3   OH231291   4.833   4.100   1.327 -0.3943 -0.2854  0.4357
 3267TIP3    H131292   4.818   4.006   1.316 -0.1875 -0.2747  0.0559
 3267TIP3    H231293   4.812   4.117   1.419  0.3749 -0.8590  0.7247
 3268TIP3   OH231294   1.535   5.137  15.650  0.3469 -0.3677  0.4036
 3268TIP3    H131295   1.536   5.076  15.576 -0.2125 -0.2861  0.3277
 3268TIP3    H231296   1.458   5.112  15.701  0.5554 -0.2238  0.7934
 3269TIP3   OH231297   2.725   0.181  14.160  0.3901 -0.4077  0.0604
 3269TIP3    H131298   2.788   0.236  14.112 -1.1492  1.1518 -0.2516
 3269TIP3    H231299   2.715   0.103  14.105  1.2800 -0.2222 -0.3819
 3270TIP3   OH231300   3.111   4.229  12.447 -0.4522  0.4208 -0.1204
 3270TIP3    H131301   3.025   4.190  12.427 -0.5538  0.9059 -0.6352
 3270TIP3    H231302   3.158   4.159  12.492 -0.8339 -0.1242 -0.5462
 3271TIP3   OH231303   2.697   3.323  12.144 -0.2439 -0.1147  0.0110
 3271TIP3    H131304   2.766   3.385  12.118  0.1014 -0.7818 -0.6943
 3271TIP3    H231305   2.706   3.250  12.082  1.3420 -2.2993  2.6777
 3272TIP3   OH231306   5.675   2.935   3.656 -0.0288  0.0874  0.5922
 3272TIP3    H131307   5.713   2.847   3.660 -1.5956 -0.6806 -0.6344
 3272TIP3    H231308   5.581   2.919   3.644 -0.5295  1.9339  1.8671
 3273TIP3   OH231309   1.109   3.356   6.071  0.0040 -0.2195 -0.2439
 3273TIP3    H131310   1.177   3.322   6.129  0.0227 -1.6021 -1.0598
 3273TIP3    H231311   1.081   3.438   6.113  0.8779 -0.5643  1.0555
 3274TIP3   OH231312   3.065   0.028   6.492 -0.6051 -0.0044  0.0460
 3274TIP3    H131313   3.002  -0.034   6.457  2.7660 -2.0847 -2.7547
 3274TIP3    H231314   3.132  -0.027   6.533  0.8679  1.9133  0.2996
 3275TIP3   OH231315   0.535   3.143   5.150 -0.5288 -0.3789 -0.0085
 3275TIP3    H131316   0.501   3.167   5.237 -0.8614 -1.6439  0.2167
 3275TIP3    H231317   0.467   3.174   5.089 -0.3915  0.3249  0.1831
 3276TIP3   OH231318   0.714   4.449   5.463 -0.3286 -0.1026 -0.1243
 3276TIP3    H131319   0.664   4.380   5.421 -0.8911 -0.2616  0.7852
 3276TIP3    H231320   0.790   4.405   5.501 -1.2626 -0.4193  1.4204
 3277TIP3   OH231321   3.193   1.201   3.710 -0.5920  0.1207  0.0973
 3277TIP3    H131322   3.133   1.269   3.740  0.2274  1.4179 -1.2068
 3277TIP3    H231323   3.139   1.144   3.655 -0.9137  0.5833 -0.0669
 3278TIP3   OH231324   2.567   0.772   4.023 -0.4755 -0.2093  0.6025
 3278TIP3    H131325   2.581   0.803   4.112  0.4352 -0.9707  0.7325
 3278TIP3    H231326   2.499   0.705   4.031 -0.2239 -0.4452  0.7584
 3279TIP3   OH231327   1.207   4.851   0.795  0.0229 -0.0695 -0.4746
 3279TIP3    H131328   1.287   4.823   0.838  0.3722 -0.5565 -1.4199
 3279TIP3    H231329   1.140   4.848   0.864  1.1737  2.1896  0.7832
 3280TIP3   OH231330   5.022   3.071   6.263 -0.6869  0.1096  0.2485
 3280TIP3    H131331   5.026   3.129   6.339 -1.4000 -0.8730  1.0520
 3280TIP3    H231332   5.069   3.118   6.194 -0.5691  1.2830  1.1164
 3281TIP3   OH231333   1.610   5.115  13.615  0.5330  0.4441 -0.3194
 3281TIP3    H131334   1.618   5.090  13.707  1.4746  2.6050  0.2337
 3281TIP3    H231335   1.516   5.125  13.599  0.2119 -2.3655 -0.2994
 3282TIP3   OH231336   2.372   5.891   0.212  0.1903 -0.4212  0.4855
 3282TIP3    H131337   2.413   5.914   0.296 -1.0434  0.9419  0.7372
 3282TIP3    H231338   2.376   5.796   0.208 -0.2865 -0.5401  2.3937
 3283TIP3   OH231339   3.415   4.662  11.897 -0.2097 -0.0779 -0.1389
 3283TIP3    H131340   3.403   4.736  11.957 -0.2578 -1.3820  1.5030
 3283TIP3    H231341   3.491   4.616  11.931  0.0810 -0.5501 -1.4099
 3284TIP3   OH231342   6.122   3.852   2.935  0.3990 -0.0567 -0.0822
 3284TIP3    H131343   6.129   3.899   2.852 -1.1032  0.3002 -0.0280
 3284TIP3    H231344   6.055   3.900   2.984  1.1808 -0.3533  1.2811
 3285TIP3   OH231345   5.619   0.692  15.258 -0.5835 -0.3566 -0.4254
 3285TIP3    H131346   5.581   0.780  15.252 -1.2287 -0.7880 -3.9678
 3285TIP3    H231347   5.713   0.706  15.248 -0.4965  0.0933  0.9826
 3286TIP3   OH231348   5.851   2.570   4.753  0.0038  0.3001 -0.1175
 3286TIP3    H131349   5.819   2.526   4.674  0.0853  0.6412 -0.3389
 3286TIP3    H231350   5.779   2.629   4.778  0.3932  0.9513 -0.5267
 3287TIP3   OH231351   2.637   6.180  13.194 -0.2247 -0.0394 -0.1622
 3287TIP3    H131352   2.630   6.214  13.283 -0.8727 -2.0051  0.5842
 3287TIP3    H231353   2.560   6.215  13.149 -1.7808 -1.7760  1.0590
 3288TIP3   OH231354   5.970   3.819  11.909  0.5417 -0.0623  0.3639
 3288TIP3    H131355   5.958   3.846  12.001 -0.0226 -0.2889  0.3544
 3288TIP3    H231356   5.919   3.883  11.859  0.5546 -0.1542  0.2336
 3289TIP3   OH231357   4.641   1.959   1.652 -0.1754  0.2946  0.2689
 3289TIP3    H131358   4.734   1.970   1.634 -0.3546  0.6347 -0.4359
 3289TIP3    H231359   4.625   1.865   1.639 -0.4538  0.6340 -2.0818
 3290TIP3   OH231360   4.404   1.675  14.780 -0.6105  0.1050  0.2480
 3290TIP3    H131361   4.390   1.664  14.686 -0.6105 -0.4509  0.3125
 3290TIP3    H231362   4.499   1.683  14.790 -0.5556 -0.5733  0.2768
 3291TIP3   OH231363   3.741   3.303  16.538  0.4913  0.1528 -0.3351
 3291TIP3    H131364   3.677   3.244  16.577  0.2656 -0.9239 -2.2843
 3291TIP3    H231365   3.801   3.325  16.609 -1.5191  0.4778  1.2944
 3292TIP3   OH231366   4.820   6.150   4.123  0.4019 -0.1071 -0.2152
 3292TIP3    H131367   4.815   6.242   4.151 -0.1885 -0.3400  0.4576
 3292TIP3    H231368   4.735   6.133   4.084  0.1923 -0.6233  0.4622
 3293TIP3   OH231369   5.190   2.977   0.410 -0.5001 -0.0206  0.6635
 3293TIP3    H131370   5.160   2.895   0.370  0.3953  0.2137 -0.5237
 3293TIP3    H231371   5.142   2.983   0.492 -1.3111 -1.2442  0.2883
 3294TIP3   OH231372   1.820   3.341  10.094  0.1684  0.0789  0.5851
 3294TIP3    H131373   1.767   3.276  10.048 -0.5912  0.5272  0.8221
 3294TIP3    H231374   1.902   3.296  10.112  0.3693 -0.2103 -0.9329
 3295TIP3   OH231375   1.307   3.143  10.542 -0.2018 -0.1110  0.1473
 3295TIP3    H131376   1.252   3.069  10.567 -1.7756  0.3882 -1.6908
 3295TIP3    H231377   1.362   3.110  10.471 -1.5101  0.6766 -1.2648
 3296TIP3   OH231378   3.462   2.192  15.545 -0.1698  0.2339  0.0432
 3296TIP3    H131379   3.527   2.171  15.479 -0.0771 -0.7882  0.4370
 3296TIP3    H231380   3.432   2.280  15.524  0.1398  0.0599 -1.1167
 3297TIP3   OH231381   2.877   0.059  14.645  0.2172 -0.4844  0.3278
 3297TIP3    H131382   2.845   0.146  14.623  0.5087 -0.9949 -2.3024
 3297TIP3    H231383   2.966   0.074  14.678  0.7135  0.1141 -1.2650
 3298TIP3   OH231384   1.420   0.331  11.968  0.0257 -0.4069 -1.0311
 3298TIP3    H131385   1.483   0.349  11.899 -0.2386 -0.2967 -1.2471
 3298TIP3    H231386   1.471   0.330  12.049 -0.0669  2.0548 -0.9126
 3299TIP3   OH231387   5.495   5.305  15.114  0.3541  0.1312 -0.0125
 3299TIP3    H131388   5.459   5.310  15.025 -0.0540  0.5085  0.1671
 3299TIP3    H231389   5.573   5.360  15.111  0.3268  0.1642 -0.1348
 3300TIP3   OH231390   2.458   3.351  16.496  0.9978 -0.4394 -0.2227
 3300TIP3    H131391   2.374   3.378  16.531  0.7155 -0.7325 -0.6724
 3300TIP3    H231392   2.453   3.371  16.402  1.1467 -1.1410 -0.3822
 3301TIP3   OH231393   2.208   1.953  16.980  0.6184 -0.0405  0.1171
 3301TIP3    H131394   2.139   1.976  16.916 -0.2837 -0.8702  0.7741
 3301TIP3    H231395   2.161   1.910  17.051  1.4598  2.0285  1.9672
 3302TIP3   OH231396   6.491   2.718   4.630  0.0938 -0.6358 -0.3302
 3302TIP3    H131397   6.441   2.701   4.710 -0.7002  2.7466 -0.0629
 3302TIP3    H231398   6.557   2.648   4.629 -1.6841 -2.4520  1.7222
 3303TIP3   OH231399   6.504   6.143   5.044  0.4844 -0.3500 -0.1014
 3303TIP3    H131400   6.565   6.070   5.045  1.3681  0.3784  1.0078
 3303TIP3    H231401   6.557   6.219   5.022 -0.2399  0.1132 -0.2856
 3304TIP3   OH231402   6.027   3.907   1.164  0.0458  0.3052 -0.5311
 3304TIP3    H131403   5.932   3.907   1.153  0.0028 -0.0677 -0.1559
 3304TIP3    H231404   6.050   3.815   1.178  0.4582  0.3985 -0.5845
 3305TIP3   OH231405   5.463   3.349  16.140  0.2427 -0.1051 -0.3982
 3305TIP3    H131406   5.535   3.301  16.181  0.2884  0.6819  0.4452
 3305TIP3    H231407   5.479   3.340  16.046  0.9352 -0.7032 -0.2256
 3306TIP3   OH231408   3.532   2.241   0.868 -0.0092  0.2143  0.3040
 3306TIP3    H131409   3.583   2.242   0.950 -1.2480  0.1852  1.0795
 3306TIP3    H231410   3.510   2.149   0.855  0.5930  0.1540 -0.3275
 3307TIP3   OH231411   5.168   2.758  10.768 -0.2442  0.0110 -0.7538
 3307TIP3    H131412   5.254   2.723  10.745 -0.3894 -1.2044  0.5086
 3307TIP3    H231413   5.126   2.688  10.818 -2.4656  0.0975 -2.4152
 3308TIP3   OH231414   2.354   6.327  12.252  0.5293 -0.5879  0.0613
 3308TIP3    H131415   2.344   6.236  12.224 -0.3904 -0.0420 -1.4167
 3308TIP3    H231416   2.295   6.337  12.326  0.0438 -0.9897 -0.2724
 3309TIP3   OH231417   4.214   3.445   3.796  0.1604 -0.6079  0.3897
 3309TIP3    H131418   4.138   3.387   3.785  1.6204 -3.0649  2.7806
 3309TIP3    H231419   4.265   3.433   3.715  0.3396 -2.5578  0.7615
 3310TIP3   OH231420   6.795   4.006   1.522  0.0313  0.0856 -0.4713
 3310TIP3    H131421   6.729   3.992   1.455 -0.8689  2.0222 -0.0263
 3310TIP3    H231422   6.748   3.993   1.605 -0.1484  2.6453 -0.1179
 3311TIP3   OH231423   5.509   6.517   0.702 -0.0021 -0.0860 -0.2536
 3311TIP3    H131424   5.525   6.428   0.672  0.4682  0.0299 -0.3534
 3311TIP3    H231425   5.568   6.527   0.777 -0.7783 -0.1941  0.3716
 3312TIP3   OH231426   6.039   4.393  17.224  0.4757  0.0190  0.4508
 3312TIP3    H131427   6.038   4.329  17.153 -0.1106  2.2354 -1.5687
 3312TIP3    H231428   6.121   4.441  17.212 -0.2008  1.2070  0.5411
 3313TIP3   OH231429   6.138   4.694  10.509  0.2067 -0.0787 -0.2246
 3313TIP3    H131430   6.051   4.687  10.547 -0.2676 -1.4156 -1.5334
 3313TIP3    H231431   6.145   4.786  10.482 -0.9628 -0.0716 -0.5082
 3314TIP3   OH231432   2.118   1.526  14.619  0.3975  0.2006 -0.2015
 3314TIP3    H131433   2.119   1.489  14.531 -0.7681 -2.7564  0.9621
 3314TIP3    H231434   2.035   1.573  14.626  0.3876  0.2357 -0.5843
 3315TIP3   OH231435   4.141   5.261  13.696  0.0831 -0.4045 -0.2542
 3315TIP3    H131436   4.149   5.224  13.783  0.5454  2.3240  0.9195
 3315TIP3    H231437   4.228   5.252  13.657 -0.3554 -2.4570 -0.8231
 3316TIP3   OH231438   2.553   0.136   3.672 -0.0410 -0.2091 -0.2635
 3316TIP3    H131439   2.486   0.131   3.603 -1.7472  1.6757  1.2047
 3316TIP3    H231440   2.564   0.230   3.687  3.3042 -0.4725 -0.7803
 3317TIP3   OH231441   0.740   2.650   1.190 -0.0243 -0.1374 -0.2560
 3317TIP3    H131442   0.774   2.706   1.259  1.7559 -1.5327  0.0501
 3317TIP3    H231443   0.708   2.710   1.123  1.4844  1.2375  0.2275
 3318TIP3   OH231444   3.896   1.270  16.220 -0.1630 -0.2599  0.7662
 3318TIP3    H131445   3.921   1.307  16.305  1.6259 -0.6524  0.4409
 3318TIP3    H231446   3.831   1.204  16.241 -0.6155  0.4661  1.7177
 3319TIP3   OH231447   3.617   5.451  11.361 -0.4952  0.0179  0.2063
 3319TIP3    H131448   3.606   5.545  11.377 -0.6168 -0.1929  1.3939
 3319TIP3    H231449   3.562   5.433  11.285 -0.3692  0.9348 -0.1089
 3320TIP3   OH231450   2.465   2.519  16.363  0.3527 -0.6992  0.5445
 3320TIP3    H131451   2.480   2.612  16.375  1.1988 -0.8544  0.6574
 3320TIP3    H231452   2.472   2.481  16.451 -1.0311 -0.7248  0.6563
 3321TIP3   OH231453   1.396   4.170  14.345 -0.0444 -0.3221  0.5630
 3321TIP3    H131454   1.465   4.185  14.280 -0.3301  0.4794  0.4400
 3321TIP3    H231455   1.333   4.241  14.330 -0.5511 -0.6479  1.1304
 3322TIP3   OH231456   0.310   1.120   0.580 -0.2764  0.5406 -0.4708
 3322TIP3    H131457   0.320   1.024   0.582  0.0100  0.5882  1.0816
 3322TIP3    H231458   0.320   1.143   0.488  1.8657 -0.7133 -0.5898
 3323TIP3   OH231459   2.566   0.089   6.204  0.1019  0.1433  0.4912
 3323TIP3    H131460   2.636   0.121   6.261  0.7206 -2.0631  1.0248
 3323TIP3    H231461   2.513   0.032   6.260  0.1598 -1.2927 -0.8726
 3324TIP3   OH231462   3.698   4.968   5.125  0.0282  0.2461 -0.3713
 3324TIP3    H131463   3.630   4.945   5.062  0.9007 -2.0188 -0.5430
 3324TIP3    H231464   3.764   5.014   5.074 -0.2663  0.3253 -0.6790
 3325TIP3   OH231465   1.063   1.985   4.774  0.4243 -0.2456  0.3072
 3325TIP3    H131466   1.150   1.966   4.741  0.3288 -0.5837  0.2412
 3325TIP3    H231467   1.034   1.902   4.813 -1.1291 -1.1115 -2.5132
 3326TIP3   OH231468   1.162   1.378   6.296  0.0697  0.2430 -0.0478
 3326TIP3    H131469   1.239   1.351   6.346  0.5416 -1.0681 -1.4277
 3326TIP3    H231470   1.146   1.306   6.235 -2.1324  0.6070  0.0656
 3327TIP3   OH231471   4.025   5.562  13.240  0.6343 -0.0048 -0.4251
 3327TIP3    H131472   4.103   5.542  13.292 -0.0559 -1.6335  0.0239
 3327TIP3    H231473   3.952   5.536  13.296 -0.1722 -0.2116 -1.5554
 3328TIP3   OH231474   2.725   5.965  14.962 -0.2953 -0.5502 -0.3498
 3328TIP3    H131475   2.722   6.021  15.039  0.1855 -0.6598 -0.2505
 3328TIP3    H231476   2.660   6.003  14.903  0.5213  0.5484 -0.5717
 3329TIP3   OH231477   6.348   3.338   1.854 -0.3549 -0.3077  0.2453
 3329TIP3    H131478   6.266   3.360   1.811 -0.0174  2.1316  0.7722
 3329TIP3    H231479   6.415   3.350   1.786 -0.4574 -2.8808 -0.3571
 3330TIP3   OH231480   1.524   4.115  14.018  0.4292  1.2172 -0.9176
 3330TIP3    H131481   1.583   4.086  13.949  0.5159  2.7367 -1.5139
 3330TIP3    H231482   1.556   4.073  14.097 -0.3759 -1.5094 -1.9651
 3331TIP3   OH231483   6.329   6.610   1.845  0.1246 -0.5573 -0.3956
 3331TIP3    H131484   6.330   6.704   1.827  0.3217 -0.7504 -1.4727
 3331TIP3    H231485   6.418   6.589   1.872  0.7093 -0.8191 -2.3971
 3332TIP3   OH231486   5.220   2.569   3.395  0.2982 -0.5363  0.4309
 3332TIP3    H131487   5.163   2.493   3.412  1.0283 -1.0527  0.6091
 3332TIP3    H231488   5.308   2.533   3.398  0.5488 -0.1575 -2.0598
 3333TIP3   OH231489   1.391   5.383   5.409  0.1334 -0.2873 -0.0902
 3333TIP3    H131490   1.408   5.324   5.335 -1.6350 -1.4256  0.3687
 3333TIP3    H231491   1.406   5.471   5.374  0.1757 -0.8670 -1.5577
 3334TIP3   OH231492   2.156   3.769  11.933  0.2353  0.2633  0.3217
 3334TIP3    H131493   2.231   3.717  11.962 -0.2985 -1.3307 -1.0207
 3334TIP3    H231494   2.134   3.824  12.008  1.3324 -0.8917  1.5159
 3335TIP3   OH231495   6.111   3.286   1.279 -0.2109  0.4160  0.1044
 3335TIP3    H131496   6.031   3.295   1.330 -1.4802 -1.5526 -1.4726
 3335TIP3    H231497   6.096   3.338   1.201 -1.0785 -2.0939 -1.4529
 3336TIP3   OH231498   1.166   3.432   0.643 -0.0866  0.3312 -0.1220
 3336TIP3    H131499   1.155   3.521   0.608 -1.3156 -0.3860 -1.6245
 3336TIP3    H231500   1.220   3.444   0.721  1.0462  2.2189 -1.1515
 3337TIP3   OH231501   4.295   4.973  13.072 -0.8962 -0.1821  0.4723
 3337TIP3    H131502   4.214   4.981  13.022  0.4833  1.1381 -1.5700
 3337TIP3    H231503   4.342   5.055  13.058  1.5472 -1.5451  0.2962
 3338TIP3   OH231504   2.275   2.680   2.735  0.0462  0.0752  0.2683
 3338TIP3    H131505   2.182   2.703   2.729  0.1720  0.6433  0.4173
 3338TIP3    H231506   2.278   2.586   2.719 -0.8025 -0.3653  2.4776
 3339TIP3   OH231507   1.882   5.749  15.375  0.0168 -0.0808  0.2180
 3339TIP3    H131508   1.843   5.774  15.291 -0.4453  0.2452  0.5290
 3339TIP3    H231509   1.847   5.662  15.393 -0.6986  0.2722  0.5697
 3340TIP3   OH231510   0.830   0.782  13.879  0.2928  0.2739  0.0415
 3340TIP3    H131511   0.850   0.865  13.837  0.8289  0.7402  1.2136
 3340TIP3    H231512   0.811   0.723  13.806 -1.5918  1.7974 -0.7278
 3341TIP3   OH231513   6.020   6.464   1.810  0.2420 -0.0704 -0.2429
 3341TIP3    H131514   6.016   6.370   1.830  0.5090 -0.3858 -1.6008
 3341TIP3    H231515   6.069   6.502   1.883  1.4243 -1.2202 -0.4124
 3342TIP3   OH231516   2.270   1.781   4.937  0.0655  0.3356 -0.0580
 3342TIP3    H131517   2.285   1.822   4.852  1.0271 -3.2763 -1.7267
 3342TIP3    H231518   2.356   1.776   4.978 -0.2542  1.2108  0.7407
 3343TIP3   OH231519   4.458   2.644  12.554 -0.5247 -0.3251  0.4520
 3343TIP3    H131520   4.474   2.731  12.517  0.7504 -0.8797 -0.3680
 3343TIP3    H231521   4.370   2.621  12.526 -0.8430  0.6896  0.6302
 3344TIP3   OH231522   3.241   5.585   4.706 -0.0724 -0.1327 -0.3515
 3344TIP3    H131523   3.246   5.556   4.797 -0.2762  2.3638  0.4956
 3344TIP3    H231524   3.155   5.627   4.700 -0.1797 -0.5403 -1.7854
 3345TIP3   OH231525   2.991   4.807   2.254 -0.3210  0.2384  0.0322
 3345TIP3    H131526   3.084   4.829   2.252 -0.5929  1.4579  0.4004
 3345TIP3    H231527   2.967   4.813   2.347 -0.6244 -0.7068  0.0230
 3346TIP3   OH231528   3.716   1.425   4.370  0.3151  0.2694  0.3160
 3346TIP3    H131529   3.687   1.457   4.455 -1.7662 -3.2557  1.0292
 3346TIP3    H231530   3.794   1.373   4.390  1.1701  1.2999 -0.2741
 3347TIP3   OH231531   0.023   3.683   1.696  0.1623  0.7874 -0.0584
 3347TIP3    H131532   0.083   3.705   1.767 -0.0562  0.4516  0.2278
 3347TIP3    H231533   0.059   3.602   1.659  0.3722  1.0492 -0.4433
 3348TIP3   OH231534   3.260   0.951   6.582  0.1250 -0.6093  0.3574
 3348TIP3    H131535   3.262   1.003   6.663  0.9945  0.2399 -0.1970
 3348TIP3    H231536   3.346   0.965   6.543 -0.6635 -0.1909 -1.2415
 3349TIP3   OH231537   5.014   6.067  13.988 -0.1359  0.5032  0.1455
 3349TIP3    H131538   4.952   6.031  14.051  0.3642 -0.6368 -0.0057
 3349TIP3    H231539   5.094   6.080  14.039  0.1891 -0.1744 -0.1977
 3350TIP3   OH231540   1.661   3.121   4.890 -0.3189 -0.0701  0.1324
 3350TIP3    H131541   1.567   3.112   4.872 -0.2096  1.6996 -1.4582
 3350TIP3    H231542   1.702   3.054   4.835 -0.4599  1.2057 -1.5882
 3351TIP3   OH231543   4.944   5.197   3.847 -0.2432  0.7388 -0.5794
 3351TIP3    H131544   4.887   5.212   3.923 -1.4715 -0.8256 -1.1617
 3351TIP3    H231545   4.913   5.114   3.811  3.0636 -0.6440 -0.3547
 3352TIP3   OH231546   2.749   4.199   1.780  0.2232  0.5501  0.3433
 3352TIP3    H131547   2.786   4.112   1.796  0.4097  0.4472 -0.6153
 3352TIP3    H231548   2.676   4.206   1.841 -0.0917 -0.4692  0.0906
 3353TIP3   OH231549   5.066   4.773  11.700 -0.1465  0.2599 -0.2272
 3353TIP3    H131550   4.990   4.830  11.686 -0.8336 -0.1218  1.7666
 3353TIP3    H231551   5.130   4.828  11.744 -0.4653 -0.2510  0.8859
 3354TIP3   OH231552   0.669   5.303   3.694 -0.3468 -0.1351 -0.3832
 3354TIP3    H131553   0.611   5.378   3.679  0.2434  0.2192 -0.9190
 3354TIP3    H231554   0.610   5.228   3.691 -1.3282  0.4616  2.6353
 3355TIP3   OH231555   5.870   4.426   1.189 -0.0463 -0.7013  0.0943
 3355TIP3    H131556   5.831   4.496   1.137 -0.9397 -1.0366  0.3044
 3355TIP3    H231557   5.935   4.385   1.130  0.3692  0.1948 -0.0766
 3356TIP3   OH231558   5.998   5.145  16.386  0.1057  0.0419 -0.4648
 3356TIP3    H131559   5.987   5.233  16.350  1.5724 -0.0615 -1.1728
 3356TIP3    H231560   6.091   5.128  16.380  0.2561 -0.3957  2.4644
 3357TIP3   OH231561   3.801   0.020   2.796 -0.9165 -0.0801 -0.7098
 3357TIP3    H131562   3.893   0.037   2.817 -1.1824  2.3280 -1.3492
 3357TIP3    H231563   3.767  -0.027   2.872  0.3736  0.6552  0.3368
 3358TIP3   OH231564   3.600   5.238  14.921 -0.5167  0.1668  0.2572
 3358TIP3    H131565   3.565   5.173  14.982  0.8877 -0.3136  0.5766
 3358TIP3    H231566   3.679   5.197  14.885  0.6538  1.8699  0.8149
 3359TIP3   OH231567   3.556   4.935   5.446 -0.5392 -0.4270 -0.4443
 3359TIP3    H131568   3.545   4.850   5.489  0.4063 -1.2781 -1.8072
 3359TIP3    H231569   3.489   4.991   5.484  0.1401 -1.2039  1.9399
 3360TIP3   OH231570   2.028   3.552  14.145  0.0112 -0.2326  0.2375
 3360TIP3    H131571   2.005   3.509  14.063 -2.0209  2.4151 -0.6306
 3360TIP3    H231572   1.951   3.603  14.169  1.1344  0.2847  2.9947
 3361TIP3   OH231573   5.036   0.099   1.231  0.9534  0.0091  0.1876
 3361TIP3    H131574   4.948   0.119   1.263  0.2908  0.2187 -1.6696
 3361TIP3    H231575   5.056   0.012   1.265 -0.6892 -0.7692 -0.8039
 3362TIP3   OH231576   2.248   3.848   0.095 -0.8531  0.0403 -0.4567
 3362TIP3    H131577   2.294   3.821   0.175 -0.8120 -1.8137 -1.0928
 3362TIP3    H231578   2.318   3.876   0.035 -0.7513 -0.4076 -0.5428
 3363TIP3   OH231579   4.509   4.895  14.518  0.0394 -0.1522 -0.0817
 3363TIP3    H131580   4.490   4.893  14.612  0.5008  0.2864  0.0224
 3363TIP3    H231581   4.439   4.842  14.479  0.3101 -1.0099  0.5786
 3364TIP3   OH231582   1.471   4.836  15.770 -0.3563 -0.2388  0.5347
 3364TIP3    H131583   1.458   4.769  15.837 -0.8248  0.0571  0.7382
 3364TIP3    H231584   1.460   4.919  15.816 -0.0900 -0.0213  0.2137
 3365TIP3   OH231585   6.482   4.784   1.832 -0.2554  0.4845  0.0861
 3365TIP3    H131586   6.409   4.741   1.877 -0.0393  1.0183  0.9610
 3365TIP3    H231587   6.560   4.759   1.882 -0.2179  2.4966  1.0748
 3366TIP3   OH231588   4.315   0.085  16.532  0.9277  0.1534  0.2619
 3366TIP3    H131589   4.256   0.145  16.485 -0.7599 -0.3330  1.7000
 3366TIP3    H231590   4.283  -0.003  16.508  0.7789 -0.1080  1.4004
 3367TIP3   OH231591   4.892   3.750  16.338 -0.4633 -0.6530  0.5338
 3367TIP3    H131592   4.841   3.742  16.257  0.6484  0.5320 -0.2853
 3367TIP3    H231593   4.899   3.844  16.353  0.1228 -0.8494  1.5062
 3368TIP3   OH231594   0.116   2.531   4.714  0.0186  0.5461  0.1865
 3368TIP3    H131595   0.145   2.567   4.798  1.5047 -0.8972  0.3162
 3368TIP3    H231596   0.194   2.489   4.677 -1.6727 -2.7992  0.2125
 3369TIP3   OH231597   6.168   2.949   2.889 -0.3426 -0.3268 -0.4550
 3369TIP3    H131598   6.157   2.881   2.956 -0.5020 -2.2049 -2.3586
 3369TIP3    H231599   6.221   2.909   2.821 -1.3468  1.0742 -2.1288
 3370TIP3   OH231600   1.235   6.759  16.579  0.3865 -0.6558 -0.8828
 3370TIP3    H131601   1.302   6.814  16.619  1.1068 -1.9381 -0.3088
 3370TIP3    H231602   1.211   6.805  16.498  0.2585  1.0033  0.0834
 3371TIP3   OH231603   4.430   0.665  16.899 -0.2951  0.0291  0.3234
 3371TIP3    H131604   4.341   0.629  16.893  0.0442 -0.6071 -1.0449
 3371TIP3    H231605   4.484   0.604  16.849  0.6550  1.2737 -0.1974
 3372TIP3   OH231606   4.982   4.313   1.557  0.0984 -0.4326  0.3236
 3372TIP3    H131607   4.922   4.243   1.581 -1.4902  0.6567 -0.3870
 3372TIP3    H231608   5.033   4.330   1.636 -0.5503 -1.3524  0.9485
 3373TIP3   OH231609   3.371   1.982  15.399  0.1552 -0.5632 -0.6943
 3373TIP3    H131610   3.338   1.996  15.311 -0.0316 -1.0180 -0.6998
 3373TIP3    H231611   3.361   2.067  15.443 -1.1337 -0.7261 -0.6597
 3374TIP3   OH231612   1.224   0.177   4.972  0.5228  0.4192 -0.0958
 3374TIP3    H131613   1.201   0.151   4.883  1.0125 -2.5918  0.5989
 3374TIP3    H231614   1.158   0.136   5.027  0.9652  1.1907  1.0430
 3375TIP3   OH231615   5.540   5.274   2.535 -0.0661  0.0880 -0.1288
 3375TIP3    H131616   5.515   5.341   2.471 -0.5032  0.7746  0.7396
 3375TIP3    H231617   5.533   5.191   2.487  0.5073  0.6609 -1.2281
 3376TIP3   OH231618   0.233   2.778   2.213 -0.2592 -0.5893  0.0754
 3376TIP3    H131619   0.212   2.685   2.221 -0.6268 -0.3715  2.1067
 3376TIP3    H231620   0.311   2.789   2.268  0.8406 -0.0110 -1.5652
 3377TIP3   OH231621   4.553   3.819  10.743 -0.2468  0.0380 -0.3367
 3377TIP3    H131622   4.557   3.736  10.790  1.8399 -0.3435 -1.1500
 3377TIP3    H231623   4.575   3.797  10.652  2.2543  1.7169 -0.1941
 3378TIP3   OH231624   4.836   1.696   4.581 -0.2580 -0.6483  0.0242
 3378TIP3    H131625   4.869   1.732   4.663 -1.4390 -2.8048  1.4935
 3378TIP3    H231626   4.747   1.733   4.573  0.9888  2.1091 -1.9763
 3379TIP3   OH231627   1.203   6.690  15.468  0.4757  0.5719  0.2616
 3379TIP3    H131628   1.146   6.617  15.447  0.9547  0.0640  0.7248
 3379TIP3    H231629   1.241   6.668  15.553  0.1465  1.6491  0.6996
 3380TIP3   OH231630   0.993   3.333   5.502  0.3313  0.0307 -0.2222
 3380TIP3    H131631   1.025   3.338   5.592 -1.2671 -0.2634  0.3823
 3380TIP3    H231632   1.059   3.380   5.450  1.6861 -0.5005  0.9718
 3381TIP3   OH231633   1.510   2.944  14.146  0.4897 -0.4038 -0.1909
 3381TIP3    H131634   1.512   2.873  14.210  0.2278  0.1333  0.4174
 3381TIP3    H231635   1.421   2.979  14.151  0.4223 -0.4693 -0.9681
 3382TIP3   OH231636   5.986   6.275   3.237 -0.7152  0.0391  0.0749
 3382TIP3    H131637   5.938   6.277   3.154 -0.7107  0.6113  0.0825
 3382TIP3    H231638   5.944   6.206   3.288 -1.3014  0.2912 -0.0622
 3383TIP3   OH231639   3.239   0.948  13.051 -0.2054 -0.1880 -0.1406
 3383TIP3    H131640   3.192   0.955  12.968  0.5826 -2.9740 -0.8713
 3383TIP3    H231641   3.178   0.903  13.110  0.2173 -0.5588  0.0142
 3384TIP3   OH231642   2.091   6.146  11.848  0.1563 -0.3189 -0.2727
 3384TIP3    H131643   2.082   6.169  11.756  0.8591  0.6050 -0.1115
 3384TIP3    H231644   2.037   6.211  11.894  0.8516  0.0161  0.0668
 3385TIP3   OH231645   3.954   6.218   0.700  0.8790 -0.3358  0.0927
 3385TIP3    H131646   3.911   6.256   0.623 -0.2173  0.6897  1.1781
 3385TIP3    H231647   4.034   6.270   0.711  0.5154  0.1948  0.2460
 3386TIP3   OH231648   2.862   2.498   2.282  0.0645  0.0196 -0.3816
 3386TIP3    H131649   2.903   2.584   2.282 -1.7382  0.9116 -1.4937
 3386TIP3    H231650   2.928   2.440   2.321  1.0692  1.9926  0.9663
 3387TIP3   OH231651   4.448   0.579  15.129 -0.3079 -0.5135 -0.2679
 3387TIP3    H131652   4.457   0.534  15.045  1.3721 -0.0047 -0.3841
 3387TIP3    H231653   4.354   0.593  15.140 -0.3930  1.3822 -3.0889
 3388TIP3   OH231654   4.051   4.834   5.982 -0.2048 -0.0977  0.1987
 3388TIP3    H131655   4.085   4.801   6.065 -2.1004 -0.4602  0.8464
 3388TIP3    H231656   4.073   4.766   5.919  2.6189  0.8641  0.0554
 3389TIP3   OH231657   6.661   6.244  13.686  0.1645  0.2810  0.4054
 3389TIP3    H131658   6.714   6.314  13.649 -1.6768  0.0826 -2.6901
 3389TIP3    H231659   6.670   6.171  13.624 -0.9497 -0.9432  1.6432
 3390TIP3   OH231660   4.391   1.845   5.067 -0.2027 -0.3495 -0.0034
 3390TIP3    H131661   4.334   1.905   5.018  0.5573  0.2809 -0.1252
 3390TIP3    H231662   4.441   1.800   4.999 -0.5391 -0.8841  0.1052
 3391TIP3   OH231663   5.609   6.235   0.033 -0.0502 -0.1625  0.5371
 3391TIP3    H131664   5.593   6.209   0.124 -0.1463  1.3845  0.9725
 3391TIP3    H231665   5.523   6.230  -0.009 -0.1272 -0.1948  0.6985
 3392TIP3   OH231666   2.880   2.308  14.083  0.0214  0.0567  0.2097
 3392TIP3    H131667   2.934   2.237  14.049  0.1184  0.6207 -0.8173
 3392TIP3    H231668   2.825   2.267  14.150 -0.0938 -1.0228 -0.5494
 3393TIP3   OH231669   6.515   4.235  11.768  0.5281 -0.3634 -1.2280
 3393TIP3    H131670   6.422   4.259  11.767  0.7326  0.5795  0.7654
 3393TIP3    H231671   6.516   4.145  11.801  0.4786  0.5633  1.4219
 3394TIP3   OH231672   3.848   0.189  12.610  0.2224 -0.2473  0.5423
 3394TIP3    H131673   3.849   0.170  12.516  0.9883 -1.0153  0.7024
 3394TIP3    H231674   3.757   0.177  12.636  0.0897 -0.4698 -0.0134
 3395TIP3   OH231675   2.496   4.697   4.641 -0.3145 -0.1994 -0.1508
 3395TIP3    H131676   2.469   4.659   4.557  0.7041 -1.6695  0.1452
 3395TIP3    H231677   2.549   4.773   4.617 -1.9700  0.7618 -0.7816
 3396TIP3   OH231678   4.940   4.481  16.104 -0.0920 -0.0691  0.2172
 3396TIP3    H131679   4.995   4.559  16.112 -0.6988  0.5189 -1.2276
 3396TIP3    H231680   4.997   4.414  16.067  0.0240  0.1255  0.0461
 3397TIP3   OH231681   3.122   3.919   1.311 -0.0724  0.1831  0.1200
 3397TIP3    H131682   3.040   3.941   1.356 -0.6555 -5.0944  1.9529
 3397TIP3    H231683   3.186   3.910   1.381  0.9336 -0.3981 -0.8651
 3398TIP3   OH231684   4.047   5.985  14.428  0.2163 -0.2712 -1.1556
 3398TIP3    H131685   4.072   5.968  14.337 -1.7169 -0.6642 -1.6411
 3398TIP3    H231686   4.027   5.899  14.464  0.8966 -0.1064 -0.3790
 3399TIP3   OH231687   6.691   0.523   0.489  0.4439 -0.1137  0.0912
 3399TIP3    H131688   6.752   0.542   0.417  0.5058 -0.1927  0.1230
 3399TIP3    H231689   6.625   0.592   0.483  0.0608 -0.5337 -0.4768
 3400TIP3   OH231690   4.297   6.817  12.119  0.0815 -0.2943  0.3839
 3400TIP3    H131691   4.301   6.849  12.209 -2.0297 -0.1599  0.4633
 3400TIP3    H231692   4.386   6.829  12.085  0.5596  0.9370  2.0047
 3401TIP3   OH231693   0.454   2.129  15.722  0.4491 -0.2917 -0.3107
 3401TIP3    H131694   0.533   2.159  15.676  0.3268 -1.5173 -1.3645
 3401TIP3    H231695   0.392   2.109  15.652 -0.5343 -0.0701  0.4891
 3402TIP3   OH231696   0.987   4.227   5.020  0.1768 -0.0722 -0.1177
 3402TIP3    H131697   0.958   4.240   4.929 -1.0149 -0.9051  0.1303
 3402TIP3    H231698   0.920   4.271   5.072  0.3382 -0.4362  0.4000
 3403TIP3   OH231699   2.562   4.668  15.178 -0.1580  0.0471 -0.3773
 3403TIP3    H131700   2.654   4.640  15.185 -0.2211  0.1304  0.9169
 3403TIP3    H231701   2.523   4.603  15.119  0.6881 -0.0879 -0.8122
 3404TIP3   OH231702   2.640   2.731   2.096 -0.1141 -0.2868  0.2007
 3404TIP3    H131703   2.557   2.692   2.121 -0.5566  0.2121 -0.4762
 3404TIP3    H231704   2.631   2.824   2.120  0.9286 -0.5677  1.8006
 3405TIP3   OH231705   5.132   0.923   3.830  0.1800  0.2568  0.1821
 3405TIP3    H131706   5.047   0.939   3.871  0.2445 -0.9511  0.8197
 3405TIP3    H231707   5.111   0.882   3.746  0.0993  1.0431 -0.1815
 3406TIP3   OH231708   0.154   2.189   4.282  0.2678  0.0459 -0.5401
 3406TIP3    H131709   0.066   2.154   4.274  0.7071 -1.4870  0.9376
 3406TIP3    H231710   0.154   2.269   4.229 -2.0409  0.1425 -0.4238
 3407TIP3   OH231711   1.966   0.922   0.615 -0.2471  0.3555  0.8447
 3407TIP3    H131712   1.905   0.856   0.650  0.1457  0.5602  1.9468
 3407TIP3    H231713   2.052   0.893   0.646  0.3707 -0.5049 -1.5677
 3408TIP3   OH231714   4.258   4.727   3.630 -0.3750  0.5898  0.0591
 3408TIP3    H131715   4.265   4.810   3.677 -3.2742  0.1446  1.3719
 3408TIP3    H231716   4.219   4.667   3.694 -1.1687 -0.9635 -1.8572
 3409TIP3   OH231717   2.618   4.531  14.160 -0.2193 -0.3566 -0.0640
 3409TIP3    H131718   2.548   4.572  14.209 -1.1087  0.1326 -1.6961
 3409TIP3    H231719   2.576   4.499  14.080  1.5515  0.6866 -1.4485
 3410TIP3   OH231720   5.618   4.584  11.511  0.0581 -0.1233 -0.2754
 3410TIP3    H131721   5.658   4.535  11.440  0.8171 -0.4771  0.3776
 3410TIP3    H231722   5.535   4.540  11.528  0.0978 -0.3302 -0.6233
 3411TIP3   OH231723   3.809   5.651  15.496  0.3182 -0.9532  0.0235
 3411TIP3    H131724   3.733   5.603  15.466  0.0176 -1.9209  2.2140
 3411TIP3    H231725   3.777   5.740  15.513 -0.1630 -1.1637  0.2175
 3412TIP3   OH231726   2.537   3.507  17.274 -0.3909  0.2052 -0.5851
 3412TIP3    H131727   2.519   3.413  17.283 -1.1413  0.3284 -0.7605
 3412TIP3    H231728   2.584   3.531  17.354  0.2845 -0.4321 -0.7849
 3413TIP3   OH231729   0.366   0.870   4.890 -0.1675  0.1084  0.2744
 3413TIP3    H131730   0.376   0.795   4.949 -2.4187 -0.0829  0.4615
 3413TIP3    H231731   0.454   0.885   4.855  0.7888 -1.0938  2.0798
 3414TIP3   OH231732   3.207   0.628  11.955  0.0117  0.1669  0.1566
 3414TIP3    H131733   3.120   0.596  11.929  0.6449 -1.5551  0.0690
 3414TIP3    H231734   3.215   0.714  11.914 -0.9436 -0.4190 -1.2957
 3415TIP3   OH231735   1.731   1.436   4.733 -0.2645 -0.3305  0.1405
 3415TIP3    H131736   1.697   1.423   4.822  1.2953  1.8737  1.1014
 3415TIP3    H231737   1.795   1.366   4.721  0.8472  0.4547  1.4547
 3416TIP3   OH231738   5.074   6.360   5.960  0.3886  0.0231 -0.0359
 3416TIP3    H131739   5.022   6.287   5.993 -0.0099  0.2761 -0.0988
 3416TIP3    H231740   5.164   6.337   5.982  0.2110 -0.2175  0.4526
 3417TIP3   OH231741   0.480   5.257   2.401 -0.6719  0.0267  0.3738
 3417TIP3    H131742   0.480   5.180   2.344  0.3444 -0.8338  1.5107
 3417TIP3    H231743   0.469   5.221   2.489  0.4583  1.1451  0.9725
 3418TIP3   OH231744   3.061   2.458  14.350 -0.2926 -0.0406 -0.3043
 3418TIP3    H131745   3.004   2.406  14.293 -1.7420 -0.8547  1.8619
 3418TIP3    H231746   3.145   2.460  14.304 -0.5470 -3.2732 -1.0107
 3419TIP3   OH231747   3.169   1.680   3.546  0.1203  0.7305  0.0510
 3419TIP3    H131748   3.175   1.671   3.451  0.9234  1.0784  0.0604
 3419TIP3    H231749   3.106   1.613   3.573  0.1839  0.3717 -0.6832
 3420TIP3   OH231750   2.695   1.307   5.692 -0.4798 -0.5344 -0.1497
 3420TIP3    H131751   2.619   1.284   5.746 -1.6469 -0.8424 -1.9028
 3420TIP3    H231752   2.671   1.280   5.603  1.3817  0.0666 -0.8581
 3421TIP3   OH231753   3.687   1.235   2.828  0.1863 -0.2527  0.1185
 3421TIP3    H131754   3.632   1.286   2.768  1.5346  0.3373 -0.6579
 3421TIP3    H231755   3.709   1.297   2.898 -0.0447 -0.4453  0.3585
 3422TIP3   OH231756   0.373   5.009  11.859 -0.0821  0.2843 -0.0204
 3422TIP3    H131757   0.429   5.034  11.932 -0.8031 -0.2235  0.7174
 3422TIP3    H231758   0.312   5.082  11.848  0.7251  0.8453 -0.8351
 3423TIP3   OH231759   6.453   3.656  13.416  0.3881 -0.1718 -0.1083
 3423TIP3    H131760   6.472   3.566  13.389 -2.4275 -1.1842  1.1128
 3423TIP3    H231761   6.359   3.667  13.397  1.1143  3.2087 -2.1447
 3424TIP3   OH231762   6.693   0.084   1.455  0.0541 -0.1352 -0.3316
 3424TIP3    H131763   6.656   0.020   1.394 -0.4341  0.1858 -0.3789
 3424TIP3    H231764   6.786   0.064   1.458  0.0982 -0.1074 -1.2415
 3425TIP3   OH231765   0.192   4.177   1.573 -0.3247  0.5914 -0.4976
 3425TIP3    H131766   0.101   4.150   1.561  0.3074 -2.1101  0.6088
 3425TIP3    H231767   0.227   4.182   1.484 -1.2925  0.7519 -0.8745
 3426TIP3   OH231768   0.496   4.157   1.669 -0.0875  1.1090  0.7144
 3426TIP3    H131769   0.506   4.062   1.665  0.7269  1.1926  0.7279
 3426TIP3    H231770   0.406   4.172   1.639  0.2580  0.4328 -0.7549
 3427TIP3   OH231771   0.736   0.329   4.411  0.3167 -0.2338 -0.0183
 3427TIP3    H131772   0.747   0.364   4.499  0.5670 -0.3254 -0.0132
 3427TIP3    H231773   0.774   0.395   4.354 -0.2857  0.0516 -0.0929
 3428TIP3   OH231774   4.576   3.613   3.377 -0.3039  0.3866  0.1032
 3428TIP3    H131775   4.600   3.655   3.295  1.1828  0.2707  0.4754
 3428TIP3    H231776   4.633   3.653   3.443 -1.7244  0.7448  1.1511
 3429TIP3   OH231777   1.623   3.269  12.214  0.2115  0.2991 -0.5219
 3429TIP3    H131778   1.713   3.291  12.190  0.1079  0.8676 -0.3901
 3429TIP3    H231779   1.569   3.306  12.144  0.1551 -1.0522 -1.2189
 3430TIP3   OH231780   4.209   3.608   0.120  0.0773  0.2399 -0.7061
 3430TIP3    H131781   4.227   3.543   0.052 -0.5438 -1.1457  0.4238
 3430TIP3    H231782   4.254   3.575   0.198 -1.1985  0.5510  0.1865
 3431TIP3   OH231783   6.749   6.052  14.146 -0.1372  0.1068  0.0742
 3431TIP3    H131784   6.702   6.056  14.229  1.9482  0.2919  1.2516
 3431TIP3    H231785   6.840   6.071  14.168  0.7133 -1.3836 -2.0192
 3432TIP3   OH231786   6.270   1.061  15.576  0.3170  0.3692 -0.5165
 3432TIP3    H131787   6.340   1.125  15.562  1.5524 -1.0715 -1.1014
 3432TIP3    H231788   6.282   1.031  15.666  0.9705 -0.4477 -0.8609
 3433TIP3   OH231789   3.423   5.183  12.653  0.6869  0.3100 -0.3128
 3433TIP3    H131790   3.434   5.260  12.598  0.5498  0.6916  0.1929
 3433TIP3    H231791   3.480   5.117  12.614  1.1726  0.8171 -0.4568
 3434TIP3   OH231792   3.439   6.670  10.497 -0.0291  0.5313 -0.4967
 3434TIP3    H131793   3.506   6.623  10.449  1.3940  0.2094  1.7441
 3434TIP3    H231794   3.360   6.616  10.488 -0.1335  1.0816 -3.4056
 3435TIP3   OH231795   3.727   6.210  16.202 -0.2824  0.1528  0.6300
 3435TIP3    H131796   3.663   6.262  16.250  0.6737 -0.8597  3.0587
 3435TIP3    H231797   3.687   6.124  16.194  0.9703 -0.6608  2.6930
 3436TIP3   OH231798   2.488   1.694   2.993  0.2970  0.0153  0.7146
 3436TIP3    H131799   2.489   1.654   2.906  2.0854 -0.6730  1.0267
 3436TIP3    H231800   2.408   1.746   2.994 -0.7573 -1.4947 -0.6391
 3437TIP3   OH231801   0.687   1.696  10.725  0.4184 -0.0304  0.1807
 3437TIP3    H131802   0.679   1.687  10.820 -1.2639  0.5750  0.1111
 3437TIP3    H231803   0.720   1.611  10.695 -0.9149 -0.8929  1.1049
 3438TIP3   OH231804   5.581   1.868   0.204  0.6614  0.3035  0.5677
 3438TIP3    H131805   5.650   1.822   0.156 -0.1689  0.2979 -0.6494
 3438TIP3    H231806   5.569   1.950   0.156 -0.7345 -0.0548  0.2886
 3439TIP3   OH231807   4.391   3.739  12.439  0.1504 -0.5986  0.2303
 3439TIP3    H131808   4.306   3.739  12.395  0.6161 -1.3981 -0.6928
 3439TIP3    H231809   4.376   3.786  12.521 -1.2637 -1.0511  0.2400
 3440TIP3   OH231810   5.896   1.278  16.094 -0.7254 -0.2996 -0.5212
 3440TIP3    H131811   5.908   1.362  16.050  1.0411 -0.7425 -0.9412
 3440TIP3    H231812   5.920   1.296  16.185  0.1595 -0.4638 -0.7187
 3441TIP3   OH231813   5.694   6.405  12.817  0.6599 -0.0787  0.2190
 3441TIP3    H131814   5.701   6.311  12.833  0.0720 -0.2997 -0.7561
 3441TIP3    H231815   5.619   6.434  12.868  0.0536 -0.3837 -0.4985
 3442TIP3   OH231816   4.660   3.684  13.382  0.7687 -0.4070  0.7669
 3442TIP3    H131817   4.747   3.672  13.344  0.5275  0.0335  0.0584
 3442TIP3    H231818   4.646   3.779  13.378  1.4920 -0.1520  3.6318
 3443TIP3   OH231819   0.651   5.303  17.047 -0.5457 -0.3332 -0.1255
 3443TIP3    H131820   0.572   5.307  16.993 -1.1069 -0.8771  0.6299
 3443TIP3    H231821   0.619   5.311  17.137  0.3553  0.3792  0.1373
 3444TIP3   OH231822   0.305   1.406   1.835  0.1036  0.3532  0.7401
 3444TIP3    H131823   0.264   1.484   1.873 -0.3253  0.9110 -0.8327
 3444TIP3    H231824   0.287   1.412   1.741  0.1862 -1.5736  0.5768
 3445TIP3   OH231825   3.292   5.192  13.342  0.5481  0.3763 -0.4671
 3445TIP3    H131826   3.246   5.203  13.259 -1.8101 -1.4384  0.5326
 3445TIP3    H231827   3.264   5.267  13.395 -1.2717 -0.6629  0.1013
 3446TIP3   OH231828   0.736   1.845  11.214  0.1929 -0.8813  0.2512
 3446TIP3    H131829   0.699   1.807  11.134 -0.6022 -0.4515  0.4190
 3446TIP3    H231830   0.707   1.936  11.214  2.6109 -0.0635 -0.4648
 3447TIP3   OH231831   5.897   1.286   1.131 -0.1656  0.3625 -0.3385
 3447TIP3    H131832   5.872   1.326   1.048  0.0184  0.5341 -0.3131
 3447TIP3    H231833   5.815   1.277   1.179 -0.3569 -0.2984 -0.7828
 3448TIP3   OH231834   4.681   3.285  15.477 -0.0977  0.4780 -0.4402
 3448TIP3    H131835   4.710   3.203  15.439 -2.4770  0.0091 -1.3094
 3448TIP3    H231836   4.643   3.334  15.404  0.6675  2.0791  0.1983
 3449TIP3   OH231837   5.670   5.204  14.650  0.1865  0.1739  0.3573
 3449TIP3    H131838   5.716   5.192  14.733 -1.0862 -1.4111  0.8568
 3449TIP3    H231839   5.728   5.166  14.584 -0.1893 -1.4266  0.9294
 3450TIP3   OH231840   0.590   0.429   0.021  0.0473  0.5503  0.3795
 3450TIP3    H131841   0.501   0.402  -0.004  0.2460  0.7650 -0.6052
 3450TIP3    H231842   0.643   0.350   0.006  0.1838  0.7092  0.0072
 3451TIP3   OH231843   1.094   1.589   1.286 -0.0244 -0.3619 -0.0840
 3451TIP3    H131844   1.133   1.676   1.294  0.5697 -0.7018  0.8502
 3451TIP3    H231845   1.017   1.602   1.231  0.6421  0.5652 -0.8082
 3452TIP3   OH231846   3.139   5.500   3.802 -0.0897  0.1058 -0.3903
 3452TIP3    H131847   3.166   5.435   3.867 -0.6950  0.3247  0.0903
 3452TIP3    H231848   3.050   5.523   3.827 -0.8461 -0.8383 -2.1375
 3453TIP3   OH231849   6.363   1.256  16.826 -0.1632  0.2237 -0.2343
 3453TIP3    H131850   6.317   1.332  16.790  1.1326  0.5819 -1.1750
 3453TIP3    H231851   6.364   1.192  16.755 -0.7774 -0.4720  0.3779
 3454TIP3   OH231852   3.765   0.408  14.600  0.2624 -0.3326  0.1189
 3454TIP3    H131853   3.840   0.355  14.572 -0.9460 -0.4366 -3.1199
 3454TIP3    H231854   3.751   0.470  14.528 -3.0892 -0.6853  0.3824
 3455TIP3   OH231855   6.602   5.890  16.134 -0.4838 -0.4601  0.6246
 3455TIP3    H131856   6.621   5.968  16.184  1.0591 -1.5478  1.7708
 3455TIP3    H231857   6.637   5.818  16.187  0.0040 -1.7438 -1.3779
 3456TIP3   OH231858   2.010   3.115   0.767 -0.1330  0.5143 -0.6460
 3456TIP3    H131859   2.058   3.123   0.850 -2.0426  2.7357  0.2741
 3456TIP3    H231860   2.078   3.120   0.700  1.2384  0.6231  0.7254
 3457TIP3   OH231861   4.465   5.504  13.487  0.1427  0.5128 -0.4169
 3457TIP3    H131862   4.550   5.478  13.523  0.4752  0.6066 -1.1281
 3457TIP3    H231863   4.453   5.594  13.518 -0.0599  0.2371  0.3224
 3458TIP3   OH231864   4.888   5.128   1.881 -0.1064  0.0191  0.2708
 3458TIP3    H131865   4.827   5.055   1.868 -0.7820  0.8140 -1.1853
 3458TIP3    H231866   4.856   5.173   1.959 -0.1515 -0.7753  0.7211
 3459TIP3   OH231867   3.020   3.554   6.600 -0.4575  0.3965  0.5712
 3459TIP3    H131868   2.968   3.477   6.621 -0.6757  0.6537  0.9834
 3459TIP3    H231869   3.094   3.551   6.661  0.7942 -0.7373 -0.9520
 3460TIP3   OH231870   2.593   6.514  11.492 -0.0850 -0.0293 -0.0596
 3460TIP3    H131871   2.513   6.474  11.457 -0.4869 -0.5465  1.4001
 3460TIP3    H231872   2.631   6.561  11.418 -0.9151 -1.0862 -1.1788
 3461TIP3   OH231873   3.279   4.831   2.304 -0.0932 -0.7443  0.1730
 3461TIP3    H131874   3.329   4.799   2.379 -0.7787 -2.6024 -0.1480
 3461TIP3    H231875   3.334   4.898   2.265  0.7375 -0.5099  1.7110
 3462TIP3   OH231876   5.159   1.567   6.554 -0.0368 -0.3964 -0.2305
 3462TIP3    H131877   5.238   1.616   6.576 -0.4636 -0.1218  0.7007
 3462TIP3    H231878   5.186   1.475   6.552  0.4682 -0.2359 -0.6476
 3463TIP3   OH231879   6.265   6.580  14.324 -0.0680 -0.2655 -0.4273
 3463TIP3    H131880   6.311   6.593  14.241 -0.5955  0.7337 -0.5630
 3463TIP3    H231881   6.241   6.487  14.323  1.0520 -0.5548 -0.8118
 3464TIP3   OH231882   0.231   1.018   0.878  0.3466  0.4358 -0.8782
 3464TIP3    H131883   0.224   0.989   0.786  0.9391 -0.4714 -0.6448
 3464TIP3    H231884   0.274   1.104   0.873  1.6196 -0.2098 -1.3753
 3465TIP3   OH231885   1.938   5.449   4.748 -0.8186  0.7315  0.1702
 3465TIP3    H131886   1.885   5.371   4.763 -0.0177 -0.5757 -3.3881
 3465TIP3    H231887   1.997   5.452   4.824 -1.1662 -1.8759  0.5839
 3466TIP3   OH231888   2.385   1.902   5.613  0.5703  0.4457 -0.3954
 3466TIP3    H131889   2.444   1.974   5.589  0.4603  0.8621  0.5452
 3466TIP3    H231890   2.438   1.847   5.671  0.2698  0.4109 -0.1560
 3467TIP3   OH231891   3.992   4.866  13.348 -0.1866 -0.9158 -0.6199
 3467TIP3    H131892   3.986   4.877  13.442 -0.8360 -0.8265 -0.6694
 3467TIP3    H231893   3.968   4.951  13.311  4.0077  0.3093 -0.7965
 3468TIP3   OH231894   5.059   3.228   5.576 -0.0551  0.0741 -0.1137
 3468TIP3    H131895   4.981   3.174   5.558 -1.8397  2.6340 -0.3929
 3468TIP3    H231896   5.055   3.297   5.510  1.1867  1.5604  1.3327
 3469TIP3   OH231897   3.542   3.014   5.025  0.0902  0.4807  0.0080
 3469TIP3    H131898   3.503   2.953   5.088 -0.3338  0.9658  0.2141
 3469TIP3    H231899   3.476   3.082   5.013  0.1383  0.3497 -1.0310
 3470TIP3   OH231900   6.381   3.085  12.421 -0.2779 -0.4709 -0.3766
 3470TIP3    H131901   6.447   3.146  12.388 -0.0069 -1.0253 -0.8588
 3470TIP3    H231902   6.379   3.101  12.516 -1.5778  1.6211 -0.7424
 3471TIP3   OH231903   4.492   3.694  17.025  0.8857 -0.0855 -0.5043
 3471TIP3    H131904   4.460   3.713  17.113  0.2027 -1.5036 -0.4382
 3471TIP3    H231905   4.427   3.635  16.987  0.8408  1.0076 -2.1966
 3472TIP3   OH231906   1.062   4.522  13.444 -0.4444  0.5137 -0.3201
 3472TIP3    H131907   1.027   4.449  13.394  0.6699  0.2086 -0.6824
 3472TIP3    H231908   1.052   4.598  13.386 -0.5288  0.4298 -0.4159
 3473TIP3   OH231909   3.548   3.122  13.084  0.3072 -0.4612 -0.6028
 3473TIP3    H131910   3.515   3.123  12.994  0.1169 -1.9642 -0.5643
 3473TIP3    H231911   3.603   3.200  13.090 -0.1366 -0.0409 -1.8504
 3474TIP3   OH231912   1.356   4.410  16.225  0.2258  0.0328 -0.1766
 3474TIP3    H131913   1.375   4.433  16.134  0.5433 -0.0698 -0.1377
 3474TIP3    H231914   1.430   4.355  16.252  0.5948  0.8040  0.4204
 3475TIP3   OH231915   3.797   2.693  13.798 -0.5920 -0.2020 -0.2907
 3475TIP3    H131916   3.774   2.699  13.891 -0.5974  1.3734 -0.3895
 3475TIP3    H231917   3.883   2.734  13.793  0.7911 -3.0020 -0.4912
 3476TIP3   OH231918   4.741   2.843   3.000 -0.7700  0.0067  0.7867
 3476TIP3    H131919   4.704   2.760   3.031 -1.4571 -0.0408 -0.1374
 3476TIP3    H231920   4.823   2.853   3.049 -1.3968 -0.5050  1.9431
 3477TIP3   OH231921   4.867   2.788  13.372 -0.6056 -0.5621 -0.1847
 3477TIP3    H131922   4.811   2.715  13.397  1.0808 -2.1820 -1.0649
 3477TIP3    H231923   4.955   2.752  13.371  0.2489  1.4655 -0.7410
 3478TIP3   OH231924   2.318   5.779  16.167 -0.1415 -0.0476  0.2078
 3478TIP3    H131925   2.279   5.864  16.188  0.4273  0.0456  0.8999
 3478TIP3    H231926   2.298   5.724  16.243 -1.2816 -0.8104 -0.6212
 3479TIP3   OH231927   6.093   4.217  14.465  0.4769  0.1751 -0.2146
 3479TIP3    H131928   6.118   4.270  14.541  2.1022 -1.3660  0.3685
 3479TIP3    H231929   6.164   4.231  14.402  0.6806 -0.9118 -0.2399
 3480TIP3   OH231930   6.102   0.539  16.419 -0.1679 -0.4937 -0.3989
 3480TIP3    H131931   6.174   0.517  16.479  0.6969 -0.5570 -1.4340
 3480TIP3    H231932   6.137   0.518  16.332 -0.5762  1.7725 -1.1281
 3481TIP3   OH231933   5.868   3.700   5.149  0.1352  0.6928  0.7148
 3481TIP3    H131934   5.836   3.790   5.139  3.2659  1.7153 -0.7199
 3481TIP3    H231935   5.815   3.649   5.088  0.4962  2.1413 -0.8490
 3482TIP3   OH231936   3.257   2.097   5.597  0.8630 -0.0398  0.6604
 3482TIP3    H131937   3.262   2.157   5.672 -1.7756  2.9095 -1.3757
 3482TIP3    H231938   3.308   2.141   5.529  1.9706 -1.9671  0.2064
 3483TIP3   OH231939   2.549   0.270  11.411 -0.2377  0.2581  0.3634
 3483TIP3    H131940   2.630   0.286  11.362  0.1355 -2.6471 -0.0612
 3483TIP3    H231941   2.569   0.296  11.501  0.8322  0.5577  0.0444
 3484TIP3   OH231942   6.136   0.637   4.674 -0.3061 -0.4568  0.3543
 3484TIP3    H131943   6.155   0.632   4.768  0.1001  0.2100  0.3140
 3484TIP3    H231944   6.056   0.690   4.669 -0.3157 -0.4742  0.3256
 3485TIP3   OH231945   6.196   1.060   5.943  0.3811  0.0006  0.3401
 3485TIP3    H131946   6.101   1.062   5.929  0.6153  1.4464 -1.1904
 3485TIP3    H231947   6.208   0.998   6.015 -1.7407  0.0180  0.7463
 3486TIP3   OH231948   3.708   5.777   1.809  0.5055 -0.3131  0.1024
 3486TIP3    H131949   3.677   5.807   1.894  1.1306  1.0542 -0.1443
 3486TIP3    H231950   3.788   5.827   1.793  0.3181 -0.4512 -1.3601
 3487TIP3   OH231951   4.683   0.910   4.133  0.1015 -0.5360 -0.3570
 3487TIP3    H131952   4.589   0.904   4.114  0.4348 -0.2395 -2.1765
 3487TIP3    H231953   4.687   0.950   4.220 -1.4412  1.5232 -1.1727
 3488TIP3   OH231954   3.469   3.680   2.690  0.0092  0.3385  0.4442
 3488TIP3    H131955   3.452   3.743   2.620  1.2387 -0.5015 -0.6454
 3488TIP3    H231956   3.404   3.611   2.677  0.7151 -0.1897 -0.3569
 3489TIP3   OH231957   2.212   4.441  13.171 -0.0095 -1.2481 -0.0072
 3489TIP3    H131958   2.173   4.383  13.105 -0.3459  0.7642 -1.6489
 3489TIP3    H231959   2.144   4.506  13.189  1.9236  1.3391 -1.6747
 3490TIP3   OH231960   5.391   1.300  12.134  0.1208  0.1705 -0.6335
 3490TIP3    H131961   5.382   1.218  12.084  2.0858 -0.4067 -0.1068
 3490TIP3    H231962   5.392   1.368  12.067 -0.1491 -0.3549 -1.1828
 3491TIP3   OH231963   3.200   2.663  15.277  1.0622  0.2015  0.6271
 3491TIP3    H131964   3.158   2.662  15.363  2.3370 -0.2868  1.2536
 3491TIP3    H231965   3.182   2.751  15.243 -0.2456  0.0844  0.9894
 3492TIP3   OH231966   5.681   6.315   4.636 -0.8059  0.3845  0.5072
 3492TIP3    H131967   5.746   6.247   4.618  0.8845  2.3651 -1.0784
 3492TIP3    H231968   5.605   6.267   4.670  0.7411 -2.1688  0.4879
 3493TIP3   OH231969   3.520   1.157   0.157 -0.8231  0.3502 -0.3948
 3493TIP3    H131970   3.602   1.171   0.108 -1.3777  0.5711 -1.2813
 3493TIP3    H231971   3.494   1.244   0.186 -1.7354  0.5450 -1.7536
 3494TIP3   OH231972   5.492   2.454   6.857  0.1020 -0.1997 -0.2867
 3494TIP3    H131973   5.425   2.434   6.922  0.4506 -2.3356 -0.5341
 3494TIP3    H231974   5.491   2.549   6.849  0.1885  0.1293  2.9925
 3495TIP3   OH231975   0.854   5.762  16.778 -0.0157 -0.2295  0.4748
 3495TIP3    H131976   0.826   5.672  16.793  0.2910 -0.2560  0.9044
 3495TIP3    H231977   0.843   5.805  16.863 -0.2030  0.1521  0.2623
 3496TIP3   OH231978   0.610   3.538   0.085 -0.3380  0.1762 -0.1545
 3496TIP3    H131979   0.676   3.471   0.067  0.3287  0.8444 -0.2223
 3496TIP3    H231980   0.550   3.496   0.147  1.1719  0.1705  1.3495
 3497TIP3   OH231981   2.798   4.835  11.711  0.2461  0.2319 -0.0833
 3497TIP3    H131982   2.888   4.862  11.695 -0.1104  1.7711  0.3418
 3497TIP3    H231983   2.797   4.807  11.803  0.0659  1.3007  0.2546
 3498TIP3   OH231984   2.076   4.814   5.653  0.1979 -0.1928  0.0521
 3498TIP3    H131985   1.985   4.805   5.684  0.4836 -2.6400  0.2596
 3498TIP3    H231986   2.068   4.814   5.558 -0.1153  1.0315  0.0592
 3499TIP3   OH231987   0.796   2.105   0.222 -0.5184 -0.0409  0.1752
 3499TIP3    H131988   0.844   2.060   0.152 -1.3250 -0.7098  0.0416
 3499TIP3    H231989   0.788   2.195   0.192  2.3054  0.5571  1.0456
 3500TIP3   OH231990   5.048   5.197  13.011  0.0274  0.0991  0.4325
 3500TIP3    H131991   4.973   5.142  12.985  0.0523 -0.1665  0.9240
 3500TIP3    H231992   5.048   5.193  13.106  1.6313 -1.2122  0.3953
 3501TIP3   OH231993   2.879   2.612   1.975 -0.2748 -0.4143  0.4795
 3501TIP3    H131994   2.887   2.658   1.891 -2.9746 -2.4644 -0.9642
 3501TIP3    H231995   2.789   2.628   2.002  0.0860 -1.1987  2.1746
 3502TIP3   OH231996   3.140   5.834  13.009  0.1309 -0.4723 -0.6465
 3502TIP3    H131997   3.114   5.748  13.042  0.6187 -0.6559 -0.7257
 3502TIP3    H231998   3.220   5.817  12.959 -0.1798 -0.0840 -1.2851
 3503TIP3   OH231999   5.434   4.468   2.404  0.0013 -0.1596  0.2340
 3503TIP3    H132000   5.371   4.472   2.333 -0.1334 -1.8023  0.2496
 3503TIP3    H232001   5.472   4.556   2.407  0.0228 -0.0651 -1.8658
 3504TIP3   OH232002   3.806   6.248   3.889  0.5444  0.0380 -0.0714
 3504TIP3    H132003   3.857   6.291   3.821 -0.0603 -0.0577 -0.5919
 3504TIP3    H232004   3.725   6.221   3.845 -0.1512  0.5809  0.8478
 3505TIP3   OH232005   0.599   6.444  13.144  0.0283 -0.5919  0.2310
 3505TIP3    H132006   0.560   6.503  13.079 -0.8334 -1.0690  0.2969
 3505TIP3    H232007   0.686   6.423  13.109 -0.5869 -1.1765 -0.9876
 3506TIP3   OH232008   1.879   6.045  12.992 -0.4713 -0.4646 -0.2736
 3506TIP3    H132009   1.843   5.982  12.929 -2.3045  0.7313 -0.4802
 3506TIP3    H232010   1.840   6.020  13.076 -0.7278  0.0051 -0.2495
 3507TIP3   OH232011   4.160   0.559  15.167 -0.4292  0.3038  0.2611
 3507TIP3    H132012   4.137   0.519  15.250 -0.6447  2.3655  1.2172
 3507TIP3    H232013   4.094   0.527  15.105 -1.3138  0.1589  1.2697
 3508TIP3   OH232014   5.831   5.245  12.112  0.2777  0.1458  0.2684
 3508TIP3    H132015   5.875   5.292  12.041  2.1167 -0.7378  0.7830
 3508TIP3    H232016   5.755   5.299  12.133  0.7089  1.3423 -1.1553
 3509TIP3   OH232017   4.100   5.249  11.197 -0.1732 -0.2413  0.2361
 3509TIP3    H132018   4.172   5.199  11.236 -0.4210  0.6276  1.8244
 3509TIP3    H232019   4.023   5.194  11.209 -0.2722  0.0857  1.0910
 3510TIP3   OH232020   6.096   6.280   0.157 -0.5394  0.3706 -0.1152
 3510TIP3    H132021   6.061   6.361   0.120 -1.1105 -0.4410 -1.3795
 3510TIP3    H232022   6.190   6.296   0.163 -0.7188  1.3456  0.1944
 3511TIP3   OH232023   4.741   1.122  14.316 -0.1552 -0.5891 -0.6512
 3511TIP3    H132024   4.716   1.213  14.306  1.0898 -0.3461 -1.5817
 3511TIP3    H232025   4.767   1.114  14.408 -0.9810 -0.2031 -0.3759
 3512TIP3   OH232026   5.831   6.147  17.170 -0.0783 -0.5328  0.1398
 3512TIP3    H132027   5.745   6.174  17.202  0.5120  0.1626  1.1817
 3512TIP3    H232028   5.876   6.112  17.247  0.4713 -1.1736 -0.4573
 3513TIP3   OH232029   2.235   3.119  17.168  0.3462 -0.2230  0.4968
 3513TIP3    H132030   2.289   3.155  17.097 -1.7422  0.1990 -0.9322
 3513TIP3    H232031   2.151   3.163  17.158 -0.0467 -0.3182  3.1471
 3514TIP3   OH232032   4.500   1.994   0.135 -0.2775  0.6487  0.0130
 3514TIP3    H132033   4.456   1.960   0.057 -2.4548 -1.9057  2.2412
 3514TIP3    H232034   4.430   2.037   0.184  0.5273  0.0144  1.7372
 3515TIP3   OH232035   1.578   0.869  10.535  0.0717 -0.7246  0.2727
 3515TIP3    H132036   1.493   0.862  10.577 -0.8991 -4.4511 -2.0608
 3515TIP3    H232037   1.568   0.941  10.472 -1.2416 -0.8980  0.2792
 3516TIP3   OH232038   4.841   4.779   0.673  0.3392  0.1869  0.5255
 3516TIP3    H132039   4.877   4.703   0.627 -0.3735  0.1738 -0.0098
 3516TIP3    H232040   4.840   4.752   0.765  0.3069 -0.3721  0.3625
 3517TIP3   OH232041   1.492   1.685  13.731 -0.1055 -0.2148  0.5121
 3517TIP3    H132042   1.446   1.607  13.762 -1.6615  0.4391 -0.0994
 3517TIP3    H232043   1.426   1.754  13.734  0.9750  0.8482  0.0643
 3518TIP3   OH232044   4.594   0.803  14.445  0.1044  0.0919  0.0201
 3518TIP3    H132045   4.582   0.708  14.450 -0.5930  0.2050  0.5847
 3518TIP3    H232046   4.680   0.814  14.405  1.0600 -0.8150  1.7304
 3519TIP3   OH232047   0.922   1.885  15.080  0.5299  0.4363 -0.2720
 3519TIP3    H132048   0.851   1.935  15.040  0.2740  0.9878  0.8542
 3519TIP3    H232049   0.960   1.943  15.145 -0.6689 -1.2770  2.0325
 3520TIP3   OH232050   4.344   1.034   0.411 -0.1964  0.2439  0.2020
 3520TIP3    H132051   4.427   1.062   0.451 -0.0805  0.4630 -0.1893
 3520TIP3    H232052   4.347   0.938   0.415  0.1194  0.2472  0.1055
 3521TIP3   OH232053   1.675   4.542   3.109  0.4080 -0.4302  0.8907
 3521TIP3    H132054   1.687   4.566   3.017  1.9043 -2.9118  0.3962
 3521TIP3    H232055   1.597   4.486   3.109  1.9996 -2.7610  0.6205
 3522TIP3   OH232056   4.829   3.526  15.556  0.1600  0.0147  0.9327
 3522TIP3    H132057   4.785   3.442  15.544  1.7287 -0.6238 -0.6215
 3522TIP3    H232058   4.902   3.508  15.615  0.3743  0.3352  0.7696
 3523TIP3   OH232059   1.387   5.384  13.565 -0.1117  0.4519 -0.5284
 3523TIP3    H132060   1.478   5.356  13.565  0.2020  1.4878 -0.0093
 3523TIP3    H232061   1.344   5.324  13.627  0.0198 -0.6032 -1.4255
 3524TIP3   OH232062   0.719   1.757   2.890  0.1747 -0.1419 -0.2001
 3524TIP3    H132063   0.628   1.730   2.903  0.4469 -2.0020 -1.9255
 3524TIP3    H232064   0.767   1.716   2.961  0.0319 -1.2434 -0.7286
 3525TIP3   OH232065   5.341   3.911   6.506  0.2578 -0.5349  0.5001
 3525TIP3    H132066   5.371   3.866   6.427  0.7521  0.6593 -0.0244
 3525TIP3    H232067   5.309   3.842   6.563 -1.4212 -1.3012 -1.3110
 3526TIP3   OH232068   6.507   3.352  16.618  0.0738  0.0741  0.2139
 3526TIP3    H132069   6.463   3.288  16.674  0.4508  0.8962  1.4977
 3526TIP3    H232070   6.577   3.302  16.576  0.7346 -0.2498  1.6483
 3527TIP3   OH232071   2.129   5.403  16.028 -0.2652  0.0531  0.1204
 3527TIP3    H132072   2.204   5.386  16.086  0.6978  1.0212 -0.7995
 3527TIP3    H232073   2.135   5.497  16.011 -1.2669 -0.0111 -0.5558
 3528TIP3   OH232074   6.258   4.250  14.244  0.4523 -0.0985 -0.0912
 3528TIP3    H132075   6.176   4.294  14.219  0.9936  1.2055  0.3767
 3528TIP3    H232076   6.298   4.225  14.161  0.3968  0.7933 -0.3929
 3529TIP3   OH232077   4.125   0.238  12.544  0.7064 -0.0797  0.2863
 3529TIP3    H132078   4.040   0.204  12.571  0.2436  0.5677 -0.3161
 3529TIP3    H232079   4.150   0.184  12.469  0.0977  0.7019 -0.5009
 3530TIP3   OH232080   5.503   1.796  13.865 -0.1440 -0.2981  0.4330
 3530TIP3    H132081   5.556   1.875  13.881 -0.6394  0.1212  0.0126
 3530TIP3    H232082   5.553   1.747  13.800 -0.0353 -0.1352  0.3932
 3531TIP3   OH232083   2.866   6.044  12.510 -0.0877  0.1407  0.1284
 3531TIP3    H132084   2.875   6.083  12.597 -1.8161  0.8527  0.0086
 3531TIP3    H232085   2.893   6.113  12.450  0.2555 -0.0571  0.0522
 3532TIP3   OH232086   0.343   3.572   2.985 -0.0671  0.0701  0.2256
 3532TIP3    H132087   0.329   3.667   2.989  1.8816  0.4154 -0.7412
 3532TIP3    H232088   0.435   3.560   3.006  0.2366 -1.4195 -1.7854
 3533TIP3   OH232089   6.471   0.357  10.433 -0.3182  0.6181 -0.2105
 3533TIP3    H132090   6.510   0.337  10.518 -0.3717 -0.4378 -0.4283
 3533TIP3    H232091   6.537   0.410  10.388  1.2886 -1.8354 -0.8978
 3534TIP3   OH232092   6.779   4.971  14.968 -0.3395 -0.3303  0.0776
 3534TIP3    H132093   6.847   4.905  14.983  1.6970  2.1322  1.9863
 3534TIP3    H232094   6.774   5.020  15.050 -1.6143  2.0892 -1.3785
 3535TIP3   OH232095   2.524   0.990  14.044  0.1469 -0.2647  0.0766
 3535TIP3    H132096   2.617   0.966  14.038  0.2899 -0.0498  1.3013
 3535TIP3    H232097   2.479   0.923  13.993  0.6808 -2.3473  2.2070
 3536TIP3   OH232098   2.305   1.932   2.924 -0.0525  0.2254 -0.1756
 3536TIP3    H132099   2.278   2.024   2.926  0.4121  0.3923 -1.1294
 3536TIP3    H232100   2.317   1.913   2.831  1.5801 -0.2873  0.1229
 3537TIP3   OH232101   2.613   1.545  12.081  0.5620 -0.3620 -0.8229
 3537TIP3    H132102   2.686   1.503  12.035  0.9280 -1.5850  0.8145
 3537TIP3    H232103   2.535   1.503  12.045  0.7314 -0.0085 -1.6174
 3538TIP3   OH232104   1.429   4.804   4.871  0.5240 -0.5054 -0.6184
 3538TIP3    H132105   1.392   4.875   4.924  0.2670 -1.3268  0.3030
 3538TIP3    H232106   1.372   4.801   4.794  1.6729  1.5526 -1.6076
 3539TIP3   OH232107   5.173   1.275  15.609 -0.7545  0.0426  0.5356
 3539TIP3    H132108   5.237   1.264  15.679  1.2759  2.3247 -0.8526
 3539TIP3    H232109   5.098   1.316  15.652  0.9743  2.6519  1.2196
 3540TIP3   OH232110   5.489   4.432   1.760 -0.5240 -0.0066 -0.1498
 3540TIP3    H132111   5.417   4.437   1.823 -2.3621  1.3016 -2.2765
 3540TIP3    H232112   5.525   4.521   1.759 -0.2890 -0.1090 -0.6871
 3541TIP3   OH232113   1.640   5.832  14.752  0.0062  0.6419 -0.2532
 3541TIP3    H132114   1.572   5.826  14.685  0.6754 -1.4560 -0.7681
 3541TIP3    H232115   1.710   5.775  14.721  1.3511  1.5624  1.0446
 3542TIP3   OH232116   4.463   4.973   1.836 -0.5242  0.2278 -0.8990
 3542TIP3    H132117   4.422   4.965   1.749  0.4929  2.8847 -1.6875
 3542TIP3    H232118   4.404   4.928   1.895 -2.9578  1.2394 -2.4968
 3543TIP3   OH232119   2.057   6.103  17.009  0.1789  0.6163  0.0674
 3543TIP3    H132120   1.981   6.045  17.011  0.9697 -0.4298  3.4505
 3543TIP3    H232121   2.116   6.068  17.076  2.2388  3.2798 -0.2431
 3544TIP3   OH232122   0.107   1.690  16.925  0.0486 -0.0413  0.1773
 3544TIP3    H132123   0.148   1.739  16.996 -0.2610 -1.6956  1.5398
 3544TIP3    H232124   0.027   1.654  16.962 -1.3206  0.9669 -1.7053
 3545TIP3   OH232125   0.338   0.849   0.660 -0.2843 -0.5542 -0.1342
 3545TIP3    H132126   0.262   0.792   0.669 -0.0181 -0.5386  2.3284
 3545TIP3    H232127   0.408   0.791   0.629 -0.4031 -1.2794  0.9358
 3546TIP3   OH232128   4.995   0.464  16.018 -0.1711 -0.0108 -0.7040
 3546TIP3    H132129   5.050   0.455  15.940  1.1656 -0.0683  0.2445
 3546TIP3    H232130   5.006   0.381  16.065 -0.3054  0.3637 -0.0112
 3547TIP3   OH232131   4.992   2.920   4.321  0.1956  0.5508 -0.4703
 3547TIP3    H132132   4.938   2.841   4.315  0.4481  0.3922 -0.6447
 3547TIP3    H232133   4.933   2.991   4.295  0.4513  0.2207 -2.0118
 3548TIP3   OH232134   5.818   1.701   1.678  0.6715 -0.5772  0.3355
 3548TIP3    H132135   5.737   1.750   1.668  1.1654  0.1070 -0.4143
 3548TIP3    H232136   5.795   1.626   1.732 -0.1474  0.3570  1.2860
 3549TIP3   OH232137   6.072   2.842   5.680  0.1859 -0.2730 -0.2621
 3549TIP3    H132138   6.117   2.773   5.729  0.7472  0.9591  1.0001
 3549TIP3    H232139   6.143   2.895   5.643 -0.2390 -0.1299 -0.8780
 3550TIP3   OH232140   1.559   4.748  16.300 -0.3061 -0.0523 -0.7850
 3550TIP3    H132141   1.471   4.765  16.267 -1.4738 -1.3037  1.5175
 3550TIP3    H232142   1.597   4.835  16.312 -1.0350  0.4870 -2.2628
 3551TIP3   OH232143   2.362   3.395   4.564  0.4445  0.4697 -0.1545
 3551TIP3    H132144   2.418   3.327   4.526 -0.6829  0.2857 -1.5195
 3551TIP3    H232145   2.317   3.434   4.489 -3.1398 -1.0646  1.1022
 3552TIP3   OH232146   1.832   0.507   5.025  0.3241 -0.2403 -0.2805
 3552TIP3    H132147   1.785   0.428   5.052  0.0456 -0.2232 -0.7085
 3552TIP3    H232148   1.785   0.578   5.068  1.1159 -0.3672  0.8352
 3553TIP3   OH232149   0.240   2.808   2.571 -0.5550  0.3794  0.8913
 3553TIP3    H132150   0.249   2.740   2.504 -2.4726 -2.3287  3.2594
 3553TIP3    H232151   0.152   2.842   2.558 -0.8578 -0.0181  1.8876
 3554TIP3   OH232152   2.246   2.372  11.633  0.3587  0.1600  0.1742
 3554TIP3    H132153   2.342   2.375  11.634  0.3530  1.5124 -1.0618
 3554TIP3    H232154   2.220   2.455  11.592 -1.2802 -1.1676 -1.5645
 3555TIP3   OH232155   2.087   5.518  15.139  0.6287  0.2570 -0.1321
 3555TIP3    H132156   2.169   5.531  15.187  0.8761  0.0374 -0.4917
 3555TIP3    H232157   2.103   5.559  15.054  0.7432 -0.7175 -0.5854
 3556TIP3   OH232158   6.317   0.989   4.892  0.0854 -0.0024 -0.0655
 3556TIP3    H132159   6.368   0.910   4.908  0.1653  0.3060  1.2426
 3556TIP3    H232160   6.255   0.993   4.964  0.6471  1.5651  0.3574
 3557TIP3   OH232161   0.748   6.488  15.306  0.5550  0.0747 -0.1508
 3557TIP3    H132162   0.684   6.473  15.236  0.1307  0.5981  0.1237
 3557TIP3    H232163   0.701   6.466  15.387  1.0027 -0.4058 -0.0179
 3558TIP3   OH232164   6.294   0.955   2.004 -0.2883  0.2509 -0.1462
 3558TIP3    H132165   6.370   0.993   2.048  0.1067 -0.3194 -0.3320
 3558TIP3    H232166   6.320   0.865   1.984 -1.0627  0.0072 -0.0821
 3559TIP3   OH232167   6.671   2.263   1.772 -0.5937 -0.2128  0.5444
 3559TIP3    H132168   6.630   2.177   1.763  0.6293 -0.6311 -1.1265
 3559TIP3    H232169   6.613   2.322   1.724 -1.3696 -0.1046  1.5924
 3560TIP3   OH232170   3.820   5.809   5.179 -0.2170  0.0323  0.2375
 3560TIP3    H132171   3.855   5.734   5.130 -0.7885  0.8465 -1.4436
 3560TIP3    H232172   3.725   5.801   5.170 -0.2339  2.1268 -1.7622
 3561TIP3   OH232173   4.539   4.679   4.980  0.0585  0.3658 -0.2106
 3561TIP3    H132174   4.542   4.602   4.924  1.4785  0.1448  0.1650
 3561TIP3    H232175   4.483   4.653   5.053  0.3768 -0.2453 -0.1813
 3562TIP3   OH232176   4.479   5.476  12.147  0.5550  0.2816 -0.1920
 3562TIP3    H132177   4.515   5.462  12.059  3.3237 -0.8637  1.0474
 3562TIP3    H232178   4.500   5.395  12.194 -1.1259  0.7666  1.4555
 3563TIP3   OH232179   2.883   5.846   4.126 -0.1755  0.0610 -0.3458
 3563TIP3    H132180   2.825   5.790   4.179  0.4202  0.4359  0.7140
 3563TIP3    H232181   2.824   5.891   4.066 -0.7848 -0.9158 -0.4913
 3564TIP3   OH232182   1.827   6.808   4.257  0.1429 -0.3376  0.2339
 3564TIP3    H132183   1.775   6.746   4.205  0.1440  0.1728 -0.3858
 3564TIP3    H232184   1.885   6.850   4.193  1.2148 -0.7940  0.8930
 3565TIP3   OH232185   5.267   6.787  16.354 -0.3040  0.1528 -0.4970
 3565TIP3    H132186   5.267   6.739  16.271 -2.3289 -0.4487 -0.1857
 3565TIP3    H232187   5.192   6.752  16.402  0.0036  1.4879  1.0050
 3566TIP3   OH232188   4.309   6.470  17.219  0.3864 -0.0802 -0.6889
 3566TIP3    H132189   4.221   6.506  17.228  0.0860 -0.7884 -0.7460
 3566TIP3    H232190   4.307   6.424  17.135 -0.0870 -2.5422  0.6157
 3567TIP3   OH232191   4.518   2.313  17.037 -0.5658  0.4615  0.1533
 3567TIP3    H132192   4.437   2.266  17.020 -0.1203  0.5446 -2.3309
 3567TIP3    H232193   4.582   2.274  16.978 -0.0795  3.8616 -1.6901
 3568TIP3   OH232194   0.620   1.082   5.240  0.4786 -0.3214  0.3767
 3568TIP3    H132195   0.646   1.021   5.170  1.3235 -0.4335  0.7725
 3568TIP3    H232196   0.661   1.046   5.318 -1.8402 -1.1256  1.2570
 3569TIP3   OH232197   6.418   0.635   3.024  0.0197 -0.3508 -0.3568
 3569TIP3    H132198   6.330   0.672   3.037  0.1791  0.6008 -1.9061
 3569TIP3    H232199   6.409   0.578   2.948  1.0971  1.0139 -1.5377
 3570TIP3   OH232200   2.911   4.314  15.026 -0.5281  0.0400 -0.8159
 3570TIP3    H132201   2.845   4.285  14.963  0.8663  0.9271 -2.7723
 3570TIP3    H232202   2.984   4.254  15.013 -0.0072  0.5857 -0.4509
 3571TIP3   OH232203   2.410   2.028  16.809 -0.0424  0.3450 -0.0797
 3571TIP3    H132204   2.341   2.018  16.874 -0.5899 -2.9539 -1.1083
 3571TIP3    H232205   2.382   2.103  16.755 -1.3966  0.7854  1.2073
 3572TIP3   OH232206   5.125   0.906   1.541 -0.1109  0.0984  0.1465
 3572TIP3    H132207   5.129   0.978   1.603  0.3889  1.4038 -1.3709
 3572TIP3    H232208   5.176   0.836   1.582  0.1867  0.9210  1.2124
 3573TIP3   OH232209   0.326   0.363  17.280 -0.5851  0.7360  0.7046
 3573TIP3    H132210   0.336   0.422  17.206 -1.6631 -0.0831 -0.1051
 3573TIP3    H232211   0.368   0.282  17.253  0.4764  0.9556  1.6388
 3574TIP3   OH232212   1.113   2.278  11.641 -0.5139 -0.0771  0.6460
 3574TIP3    H132213   1.099   2.184  11.656 -0.7723  0.1511  1.8174
 3574TIP3    H232214   1.049   2.301  11.574 -0.5840 -0.6933  0.5004
 3575TIP3   OH232215   4.991   2.898   2.786  0.5816  0.0328  0.1178
 3575TIP3    H132216   4.903   2.907   2.750  0.0754  2.8373  1.8769
 3575TIP3    H232217   5.026   2.820   2.744 -2.6415 -1.0119 -0.8106
 3576TIP3   OH232218   4.760   4.072   5.482  0.4926 -0.0041  0.0207
 3576TIP3    H132219   4.748   4.042   5.392  0.4010  0.9325 -0.2938
 3576TIP3    H232220   4.688   4.033   5.530  0.8577 -0.9616 -0.1986
 3577TIP3   OH232221   2.350   6.413   6.046 -0.1302 -0.6486 -0.0004
 3577TIP3    H132222   2.430   6.445   6.086 -0.6728 -0.2848  0.7940
 3577TIP3    H232223   2.360   6.433   5.953  1.2560 -1.7749 -0.1065
 3578TIP3   OH232224   5.020   5.777   6.227  0.0040 -0.5039  0.4226
 3578TIP3    H132225   5.062   5.803   6.310 -0.6616  1.2131  0.2313
 3578TIP3    H232226   4.953   5.843   6.212 -0.7626 -1.5489 -0.8347
 3579TIP3   OH232227   6.678   2.504   0.297 -0.7242 -0.3363 -0.2533
 3579TIP3    H132228   6.722   2.428   0.259 -0.1790  0.5547 -1.4416
 3579TIP3    H232229   6.637   2.548   0.222  0.6495  1.6562  0.1120
 3580TIP3   OH232230   2.199   5.802  11.684 -0.3717 -0.2720  0.3557
 3580TIP3    H132231   2.222   5.854  11.761  0.4379 -0.7392  0.4413
 3580TIP3    H232232   2.188   5.867  11.614  3.2493 -0.1171 -0.1702
 3581TIP3   OH232233   0.362   4.471   1.099 -0.6729  0.2439 -0.3154
 3581TIP3    H132234   0.447   4.434   1.122 -0.7129  0.5994  0.4123
 3581TIP3    H232235   0.362   4.473   1.003  0.2099  0.4158 -0.3166
 3582TIP3   OH232236   1.336   0.282   1.485  0.0827  0.3853  0.3895
 3582TIP3    H132237   1.412   0.329   1.518 -0.5856  2.3437 -0.7824
 3582TIP3    H232238   1.274   0.280   1.558  1.1266 -0.9429  1.2467
 3583TIP3   OH232239   1.505   6.335  11.409  0.0289  0.0811 -0.0570
 3583TIP3    H132240   1.588   6.372  11.378 -0.5382 -0.2961 -2.0870
 3583TIP3    H232241   1.483   6.387  11.486  1.0986  1.5578 -0.7333
 3584TIP3   OH232242   2.156   4.341   0.185 -0.2360  0.0718 -0.0306
 3584TIP3    H132243   2.150   4.259   0.235 -0.7723  0.4066  0.4648
 3584TIP3    H232244   2.100   4.402   0.233 -0.4155  0.5242 -0.8105
 3585TIP3   OH232245   5.390   5.614   1.003 -0.1436 -0.3139 -0.1689
 3585TIP3    H132246   5.461   5.612   1.068 -0.0617 -0.0139 -0.2472
 3585TIP3    H232247   5.310   5.613   1.055 -0.0790 -0.6570 -0.0805
 3586TIP3   OH232248   1.160   0.465   4.784  0.4267 -0.0549  0.0228
 3586TIP3    H132249   1.153   0.373   4.807  1.2113 -0.8642 -2.7482
 3586TIP3    H232250   1.116   0.472   4.699  2.1991  1.6887 -0.7956
 3587TIP3   OH232251   4.360   5.705   0.522 -0.5270  0.5168  0.1389
 3587TIP3    H132252   4.300   5.632   0.537 -1.2315  0.5995 -2.0398
 3587TIP3    H232253   4.331   5.773   0.584  0.3259 -1.1085  2.3806
 3588TIP3   OH232254   6.337   5.793   6.339 -0.5612 -0.0748 -0.0032
 3588TIP3    H132255   6.265   5.837   6.384  0.2352 -0.5838  1.8387
 3588TIP3    H232256   6.416   5.829   6.380  0.1196 -3.2280  1.6784
 3589TIP3   OH232257   2.563   4.302  15.501  0.5239 -0.1312 -0.1052
 3589TIP3    H132258   2.591   4.392  15.515 -0.2721  0.2056 -0.5871
 3589TIP3    H232259   2.561   4.293  15.405  0.8031 -0.7214 -0.0527
 3590TIP3   OH232260   1.988   0.016  12.655 -0.2868  0.7378  0.5048
 3590TIP3    H132261   2.032   0.093  12.619  0.5210  0.4392  0.8251
 3590TIP3    H232262   1.922   0.051  12.714 -0.2399  1.1885  0.2949
 3591TIP3   OH232263   0.240   4.603  13.513 -0.8921  0.3933  0.0320
 3591TIP3    H132264   0.304   4.625  13.446 -0.1412 -0.1130  0.5754
 3591TIP3    H232265   0.157   4.635  13.479 -0.3049  1.2991 -0.5546
 3592TIP3   OH232266   1.796   6.084   3.557  0.0939 -0.3381  0.1882
 3592TIP3    H132267   1.835   6.171   3.561  0.2795 -0.3864 -0.5009
 3592TIP3    H232268   1.705   6.097   3.583  0.9640 -0.5019  3.5251
 3593TIP3   OH232269   1.033   5.459  15.047 -0.1167 -0.2697  0.6706
 3593TIP3    H132270   1.021   5.541  15.095 -1.1786  1.7009 -2.8255
 3593TIP3    H232271   0.946   5.421  15.039  0.1372 -0.8987  0.7746
 3594TIP3   OH232272   6.616   3.469   5.662  0.4469 -0.7168 -0.0684
 3594TIP3    H132273   6.673   3.393   5.675  1.6978  0.3372  0.6445
 3594TIP3    H232274   6.675   3.544   5.659 -0.9199  0.4463  1.1312
 3595TIP3   OH232275   5.458   0.124  15.377 -0.3998  0.0552 -0.6366
 3595TIP3    H132276   5.533   0.151  15.431 -1.1170 -0.2851  0.5456
 3595TIP3    H232277   5.382   0.160  15.423 -0.8804  1.4588 -2.4969
 3596TIP3   OH232278   6.752   2.422   2.300  0.2507  0.0291 -0.2973
 3596TIP3    H132279   6.838   2.380   2.297  0.3908  0.2702  0.2632
 3596TIP3    H232280   6.768   2.511   2.269  0.0897 -0.1063 -0.7732
 3597TIP3   OH232281   6.280   5.269   2.974  0.6909 -0.0240  0.0365
 3597TIP3    H132282   6.185   5.274   2.980  0.5968  2.7381 -2.4582
 3597TIP3    H232283   6.298   5.193   2.918 -0.0732 -0.0971 -0.1046
 3598TIP3   OH232284   6.449   4.479  11.993  0.4776  0.0584  0.6136
 3598TIP3    H132285   6.502   4.462  11.916 -1.9320 -1.3890 -0.7723
 3598TIP3    H232286   6.495   4.435  12.064  2.6924  1.3718  0.0429
 3599TIP3   OH232287   4.920   3.036   2.015 -0.5783 -0.4743  0.1339
 3599TIP3    H132288   4.958   2.981   1.946 -2.3603  0.0137 -1.2740
 3599TIP3    H232289   4.848   2.983   2.049  0.7634 -1.0324  2.1842
 3600TIP3   OH232290   4.531   1.143   2.359 -0.0316 -0.0822 -0.3199
 3600TIP3    H132291   4.610   1.099   2.390 -0.2668  0.3990  0.9886
 3600TIP3    H232292   4.507   1.096   2.279 -0.5328 -2.6319  1.2946
 3601TIP3   OH232293   2.667   2.742   0.457 -0.2878 -0.0793 -0.3524
 3601TIP3    H132294   2.587   2.709   0.417  0.3076  0.3283 -1.9087
 3601TIP3    H232295   2.737   2.695   0.412  0.3797  0.2260  0.3652
 3602TIP3   OH232296   1.549   0.781   3.003 -0.1299  0.7099 -0.2471
 3602TIP3    H132297   1.558   0.724   2.926 -1.5679  1.7591 -1.2165
 3602TIP3    H232298   1.481   0.739   3.056  0.6293  0.1630  0.3039
 3603TIP3   OH232299   4.682   3.087   0.297  0.2669  0.0941  0.3048
 3603TIP3    H132300   4.695   3.017   0.233 -1.0587 -1.0151  1.2413
 3603TIP3    H232301   4.620   3.147   0.256  0.1229 -0.1369  0.1892
 3604TIP3   OH232302   5.430   3.121  13.459 -0.2141 -0.0512  0.1137
 3604TIP3    H132303   5.453   3.115  13.552  0.0344  0.9740  0.1296
 3604TIP3    H232304   5.453   3.211  13.435  0.3513 -0.5133 -1.1082
 3605TIP3   OH232305   2.441   2.442  16.637  0.1147  0.4418 -0.5094
 3605TIP3    H132306   2.493   2.500  16.693  1.1733  1.3820 -2.3957
 3605TIP3    H232307   2.359   2.489  16.623 -0.2548  0.0885  0.4449
 3606TIP3   OH232308   3.216   5.555   2.014 -0.2128 -0.3523  0.2525
 3606TIP3    H132309   3.123   5.553   2.033 -0.3778  1.1691 -0.3702
 3606TIP3    H232310   3.247   5.466   2.036 -1.8244 -0.9248  0.2432
 3607TIP3   OH232311   2.395   3.909  15.731 -0.1709  0.7390 -0.2382
 3607TIP3    H132312   2.310   3.944  15.703 -1.2432  0.0214  1.9571
 3607TIP3    H232313   2.430   3.975  15.791 -0.7890 -0.4888  1.5216
 3608TIP3   OH232314   5.927   5.884  11.604  0.1469 -0.2427  0.2606
 3608TIP3    H132315   6.010   5.840  11.589  0.1663 -0.2461  0.3810
 3608TIP3    H232316   5.883   5.883  11.519  0.1180 -0.5545  0.2817
 3609TIP3   OH232317   6.576   2.538  16.946  0.2259  1.0793  0.5739
 3609TIP3    H132318   6.625   2.509  17.023 -0.0735  1.0752  0.7626
 3609TIP3    H232319   6.643   2.551  16.878  0.6217  2.0867  1.1397
 3610TIP3   OH232320   1.827   2.050   2.158  0.1400 -0.1297  0.3113
 3610TIP3    H132321   1.842   2.145   2.161  1.3023 -0.2342 -1.6367
 3610TIP3    H232322   1.914   2.012   2.162 -0.1152 -1.0187 -2.0006
 3611TIP3   OH232323   0.655   0.185  15.875  0.1468  0.1347 -0.5589
 3611TIP3    H132324   0.607   0.244  15.817  0.7937  1.7076  0.4738
 3611TIP3    H232325   0.594   0.169  15.948 -0.4540 -1.3954 -1.3715
 3612TIP3   OH232326   0.760   0.245  14.548  0.1102  0.2410 -0.3403
 3612TIP3    H132327   0.832   0.292  14.504 -0.7414  1.2299 -0.6995
 3612TIP3    H232328   0.759   0.158  14.508  1.0741  0.2412 -0.3738
 3613TIP3   OH232329   5.041   1.977  15.788 -0.5937  0.0156  0.5523
 3613TIP3    H132330   4.948   1.973  15.810 -0.8097  1.8305  0.0983
 3613TIP3    H232331   5.056   1.903  15.730 -1.8237 -0.1497  0.4397
 3614TIP3   OH232332   4.491   4.592  15.522  0.5546  0.3354 -0.2123
 3614TIP3    H132333   4.512   4.568  15.432  1.1573 -1.1780  0.3232
 3614TIP3    H232334   4.423   4.530  15.549  1.6043 -0.3552  0.9406
 3615TIP3   OH232335   5.383   4.471   3.187 -0.3926 -0.2523  0.1519
 3615TIP3    H132336   5.331   4.540   3.145 -0.6143 -0.9402 -0.7195
 3615TIP3    H232337   5.379   4.491   3.280 -1.8613 -0.0432  0.0552
 3616TIP3   OH232338   2.062   2.853  12.463 -0.0712  0.6651  0.0386
 3616TIP3    H132339   2.067   2.928  12.523  0.3378  0.7451 -0.0948
 3616TIP3    H232340   2.119   2.877  12.390 -1.5557  1.1232 -0.9987
 3617TIP3   OH232341   6.290   4.107   4.713 -0.0822  0.8062 -0.3924
 3617TIP3    H132342   6.308   4.068   4.627  1.3865 -0.2040  0.3528
 3617TIP3    H232343   6.208   4.154   4.701 -0.7094 -0.6249 -1.9497
 3618TIP3   OH232344   1.296   4.322   5.912 -0.0750 -0.0514  0.2354
 3618TIP3    H132345   1.237   4.397   5.922  0.5644  0.7381 -1.6182
 3618TIP3    H232346   1.331   4.307   6.000 -0.0216  1.9786  0.5760
 3619TIP3   OH232347   2.238   0.876   0.709 -0.5371 -0.2217 -0.0218
 3619TIP3    H132348   2.291   0.935   0.656  0.0790  2.1189  2.9999
 3619TIP3    H232349   2.287   0.794   0.710  1.6285  1.0256  0.3801
 3620TIP3   OH232350   2.987   0.013  11.844 -0.2132  0.3358  0.0305
 3620TIP3    H132351   3.051  -0.057  11.857  0.1020  0.3393 -1.4082
 3620TIP3    H232352   3.027   0.070  11.778 -1.5647  0.4819 -0.6788
 3621TIP3   OH232353   6.420   6.818  13.152 -0.5413 -0.0251 -0.0334
 3621TIP3    H132354   6.471   6.898  13.141 -1.3474  0.3485 -1.1919
 3621TIP3    H232355   6.345   6.829  13.093 -1.8450 -0.6541  1.4733
 3622TIP3   OH232356   4.174   6.570  12.076 -0.6863  0.3045  0.2728
 3622TIP3    H132357   4.225   6.649  12.089 -1.0298  0.1008  3.0255
 3622TIP3    H232358   4.228   6.500  12.113 -1.8540 -0.2567  0.9602
 3623TIP3   OH232359   5.998   0.817  15.740 -0.0157  0.3992  0.5890
 3623TIP3    H132360   5.950   0.898  15.728 -1.6476 -1.0044 -3.3220
 3623TIP3    H232361   5.931   0.752  15.761  0.8320 -0.5523  0.3862
 3624TIP3   OH232362   1.842   5.813  14.197 -0.9543  0.5723  0.6569
 3624TIP3    H132363   1.886   5.761  14.129 -0.5237  1.3524  0.3348
 3624TIP3    H232364   1.836   5.901  14.160 -2.6257  0.5267  0.7807
 3625TIP3   OH232365   5.821   6.494   4.276  0.3628 -0.3022 -0.7234
 3625TIP3    H132366   5.864   6.513   4.192 -0.3866  0.9942 -0.8093
 3625TIP3    H232367   5.752   6.432   4.253 -2.9747  3.6575 -1.8740
 3626TIP3   OH232368   5.550   5.594  10.697 -0.6142  0.2192 -0.4115
 3626TIP3    H132369   5.615   5.523  10.690 -0.1450  0.5844  0.2186
 3626TIP3    H232370   5.569   5.651  10.623 -1.5552 -0.7697 -1.4326
 3627TIP3   OH232371   2.911   4.105  16.548 -0.2720 -0.6208 -0.5064
 3627TIP3    H132372   2.999   4.120  16.582  0.3041 -2.6955 -0.9652
 3627TIP3    H232373   2.880   4.028  16.596 -1.9113  0.1760 -0.2394
 3628TIP3   OH232374   0.040   1.618   2.821  0.0377 -0.2831 -0.2730
 3628TIP3    H132375   0.043   1.579   2.908 -0.2778  1.7176  0.6801
 3628TIP3    H232376  -0.016   1.560   2.770 -2.0779 -0.0136  1.6530
 3629TIP3   OH232377   0.246   1.873  13.390 -0.3977 -0.9682  0.6338
 3629TIP3    H132378   0.174   1.815  13.364 -0.8823 -0.1700  0.1829
 3629TIP3    H232379   0.207   1.960  13.391  1.0522 -0.2586 -1.6298
 3630TIP3   OH232380   3.594   2.273  16.101  0.0909 -0.0440  0.1197
 3630TIP3    H132381   3.554   2.190  16.072 -1.9326  1.2532 -0.8891
 3630TIP3    H232382   3.574   2.277  16.195 -1.9695  0.4249 -0.2973
 3631TIP3   OH232383   2.137   0.873  12.965 -0.3697  0.4665  0.7178
 3631TIP3    H132384   2.201   0.833  12.905 -1.8263 -0.3423 -0.3457
 3631TIP3    H232385   2.146   0.967  12.950  0.1500  0.3283  0.1245
 3632TIP3   OH232386   5.284   2.446  11.794  0.5054  0.8496  0.2389
 3632TIP3    H132387   5.333   2.509  11.848  0.9114  0.1094  0.7462
 3632TIP3    H232388   5.296   2.362  11.839  1.2259  0.1408 -1.2622
 3633TIP3   OH232389   1.121   4.592   5.515 -0.8117  0.0181  0.0273
 3633TIP3    H132390   1.156   4.636   5.593  0.6882 -0.2394 -0.4856
 3633TIP3    H232391   1.081   4.512   5.548  0.9240 -0.7032  0.3976
 3634TIP3   OH232392   6.289   2.235  17.209 -0.4045  0.1542 -0.2237
 3634TIP3    H132393   6.257   2.206  17.123 -1.2806 -1.0258  0.4949
 3634TIP3    H232394   6.210   2.259  17.257  0.0525  0.3723  0.4215
 3635TIP3   OH232395   6.404   3.638  15.821 -0.0072  0.4271 -0.3819
 3635TIP3    H132396   6.471   3.592  15.870 -0.3080 -0.2299 -0.5858
 3635TIP3    H232397   6.453   3.697  15.764  0.4414 -0.7151 -1.2027
 3636TIP3   OH232398   6.789   0.318   2.685  0.3061 -0.3318  0.0476
 3636TIP3    H132399   6.815   0.259   2.756  0.1471  1.3496  1.5391
 3636TIP3    H232400   6.740   0.262   2.625  1.8550 -2.1515  0.4164
 3637TIP3   OH232401   2.702   3.140   1.006  0.3229  0.4172 -0.1817
 3637TIP3    H132402   2.735   3.228   0.987 -1.5629  1.4621  1.1727
 3637TIP3    H232403   2.771   3.100   1.059  1.4633  0.8382 -1.3165
 3638TIP3   OH232404   1.907   1.016   5.142 -0.7111  0.5039 -0.0144
 3638TIP3    H132405   1.946   1.060   5.066 -1.9958 -1.1089 -1.6350
 3638TIP3    H232406   1.848   1.081   5.180  0.9774  1.8057  0.4898
 3639TIP3   OH232407   6.208   1.495  14.298 -0.2392 -0.0618  0.3485
 3639TIP3    H132408   6.274   1.479  14.366  0.2434 -0.1017 -0.1257
 3639TIP3    H232409   6.241   1.448  14.222 -1.2199 -0.7283  0.3372
 3640TIP3   OH232410   1.623   1.606   3.020 -0.6118  0.2874 -0.0359
 3640TIP3    H132411   1.716   1.592   3.038 -1.1646 -0.3484  2.4651
 3640TIP3    H232412   1.604   1.692   3.058 -1.6274 -0.7077  1.7122
 3641TIP3   OH232413   0.266   5.640  15.092  0.4797 -0.4524  0.2781
 3641TIP3    H132414   0.184   5.652  15.141  1.1820 -1.5967  1.7615
 3641TIP3    H232415   0.249   5.563  15.037 -0.9171  1.8241 -2.6697
 3642TIP3   OH232416   0.093   6.036  15.051 -0.0313 -0.9246  0.2564
 3642TIP3    H132417   0.005   6.010  15.076 -0.1136 -2.0811 -1.1098
 3642TIP3    H232418   0.087   6.130  15.033 -0.9042 -0.9382  0.4798
 3643TIP3   OH232419   6.644   1.188  13.406  0.5959 -0.9525 -0.2438
 3643TIP3    H132420   6.693   1.109  13.426  1.8871  0.3080  1.7488
 3643TIP3    H232421   6.710   1.257  13.398 -0.6833  0.4359  0.7482
 3644TIP3   OH232422   0.585   1.156  13.128  0.1672  0.0108  0.3916
 3644TIP3    H132423   0.550   1.119  13.047  0.5033  0.2630  0.1312
 3644TIP3    H232424   0.625   1.238  13.102  1.9766 -0.8188  0.4908
 3645TIP3   OH232425   6.126   6.160  17.046  0.4362 -0.2869  0.1059
 3645TIP3    H132426   6.137   6.066  17.033 -1.9515 -0.6639  0.5711
 3645TIP3    H232427   6.040   6.169  17.088  0.7921  2.0678  0.4143
 3646TIP3   OH232428   1.387   1.399  15.183 -0.1129  0.2830  0.3289
 3646TIP3    H132429   1.397   1.382  15.277 -1.6521 -0.4426  0.3871
 3646TIP3    H232430   1.380   1.312  15.144 -2.1023  0.6140 -0.1198
 3647TIP3   OH232431   1.373   6.140   5.738  0.1653 -0.1448 -0.2312
 3647TIP3    H132432   1.280   6.154   5.723 -0.2814 -1.8990  0.8371
 3647TIP3    H232433   1.387   6.162   5.830  0.7845  0.0187 -0.3627
 3648TIP3   OH232434   5.400   2.540  11.194 -0.0037 -0.0270 -0.0060
 3648TIP3    H132435   5.484   2.581  11.177  0.7711 -1.4473  0.3067
 3648TIP3    H232436   5.352   2.548  11.112  1.5657 -1.8359 -1.1309
 3649TIP3   OH232437   6.733   2.567  14.392 -0.3379 -0.1732 -0.2126
 3649TIP3    H132438   6.812   2.620  14.400 -0.9025  0.5332  0.8951
 3649TIP3    H232439   6.765   2.479  14.375  0.6642  0.2403 -0.5373
 3650TIP3   OH232440   5.178   5.951   2.521 -0.3139  0.2182 -0.5192
 3650TIP3    H132441   5.228   5.871   2.507 -0.6164  0.0360 -0.5647
 3650TIP3    H232442   5.098   5.939   2.469 -1.8234 -0.8177  1.9206
 3651TIP3   OH232443   4.572   0.161   2.648  0.0618 -0.6315  0.5627
 3651TIP3    H132444   4.553   0.226   2.580 -2.3957 -0.8468  0.9841
 3651TIP3    H232445   4.664   0.175   2.671  0.1114  1.3504 -0.7626
 3652TIP3   OH232446   5.718   1.432  13.174 -0.0737  0.2820 -0.0238
 3652TIP3    H132447   5.646   1.416  13.112  0.0944 -1.1939  0.1255
 3652TIP3    H232448   5.740   1.344  13.206  0.3946  0.9496  1.4993
 3653TIP3   OH232449   6.530   4.865  13.617  0.5000  0.0129 -0.3824
 3653TIP3    H132450   6.584   4.942  13.601 -0.3774  0.3124 -2.0681
 3653TIP3    H232451   6.565   4.798  13.558  0.0320 -0.2693 -0.3467
 3654TIP3   OH232452   4.381   4.541  11.886  0.1572  0.2951  0.1555
 3654TIP3    H132453   4.464   4.493  11.888 -1.2888 -2.4841 -2.8094
 3654TIP3    H232454   4.375   4.576  11.797 -2.0865  0.0489  0.1752
 3655TIP3   OH232455   1.337   5.428   4.324  0.6529  0.0627 -0.0357
 3655TIP3    H132456   1.322   5.415   4.417 -1.0338  2.4988  0.0871
 3655TIP3    H232457   1.421   5.384   4.307 -0.2341 -2.5843  2.0476
 3656TIP3   OH232458   4.528   4.046   3.533 -0.6853 -0.4875 -0.6361
 3656TIP3    H132459   4.510   4.100   3.610 -0.0812 -0.8627 -0.2241
 3656TIP3    H232460   4.473   3.969   3.545  0.2852 -1.0968  0.0351
 3657TIP3   OH232461   0.902   0.509  16.314 -0.1529 -0.4026  0.1964
 3657TIP3    H132462   0.992   0.539  16.299 -0.0567 -0.0565  1.4423
 3657TIP3    H232463   0.906   0.462  16.397 -0.3933 -3.5652 -1.5262
 3658TIP3   OH232464   4.367   3.980  13.355 -0.3334  0.7117 -0.0484
 3658TIP3    H132465   4.336   3.890  13.367 -1.8192  1.0045 -1.5042
 3658TIP3    H232466   4.449   3.984  13.404 -0.6932 -1.1824  0.7528
 3659TIP3   OH232467   3.859   5.643  12.522 -0.1467 -0.0991  0.7270
 3659TIP3    H132468   3.943   5.688  12.527  0.6885 -1.4021 -1.2060
 3659TIP3    H232469   3.804   5.702  12.471  0.5099 -0.6096 -0.5765
 3660TIP3   OH232470   5.455   0.489   3.734 -0.6565  0.6564 -0.3496
 3660TIP3    H132471   5.472   0.395   3.743 -0.3621  0.7968  0.6408
 3660TIP3    H232472   5.508   0.515   3.659 -1.5232 -0.1541 -1.2630
 3661TIP3   OH232473   4.185   4.498   1.310  0.1360  0.5547  0.3721
 3661TIP3    H132474   4.096   4.533   1.302 -0.1999 -0.4792 -0.4925
 3661TIP3    H232475   4.212   4.480   1.220  0.7076 -0.3964  0.7248
 3662TIP3   OH232476   3.328   4.304   1.997 -0.0666 -0.5317 -0.5013
 3662TIP3    H132477   3.371   4.304   2.083 -0.1133 -2.4375 -0.4531
 3662TIP3    H232478   3.370   4.375   1.949 -0.6620  1.1690  1.3975
 3663TIP3   OH232479   0.968   4.775  16.394 -0.2525 -0.1267  0.0505
 3663TIP3    H132480   0.946   4.791  16.302 -0.9513 -1.6472 -0.0714
 3663TIP3    H232481   1.027   4.699  16.392 -1.4221 -1.0836  0.9403
 3664TIP3   OH232482   2.930   2.245  12.129 -0.2358 -0.5267 -0.2220
 3664TIP3    H132483   2.872   2.239  12.053 -1.4939  2.9024  0.3787
 3664TIP3    H232484   2.874   2.279  12.199  1.9446  0.5718  1.0446
 3665TIP3   OH232485   5.049   5.780   1.499 -0.2269 -0.3650 -0.8076
 3665TIP3    H132486   4.975   5.833   1.467 -0.9072  0.3615  1.8541
 3665TIP3    H232487   5.008   5.706   1.543  0.6934 -1.3758 -1.6451
 3666TIP3   OH232488   2.534   2.786  12.873  0.2562 -0.7114  0.2703
 3666TIP3    H132489   2.478   2.821  12.942  0.0346 -0.9159  0.1973
 3666TIP3    H232490   2.617   2.766  12.917  0.8839  1.2572  0.0101
 3667TIP3   OH232491   0.207   1.952  11.627 -0.4262  0.4562  0.4947
 3667TIP3    H132492   0.259   2.006  11.568  0.8554 -0.2804  0.9436
 3667TIP3    H232493   0.228   1.985  11.714 -1.2360  0.6034  0.6380
 3668TIP3   OH232494   5.231   0.102   2.068  0.2975 -0.4914 -0.0729
 3668TIP3    H132495   5.158   0.133   2.015  1.4712 -1.2343 -2.1577
 3668TIP3    H232496   5.209   0.130   2.157 -2.9121 -1.3854 -0.5180
 3669TIP3   OH232497   4.985   2.274  13.641  0.1904  0.0436  0.3688
 3669TIP3    H132498   4.939   2.357  13.650  0.5727  0.1792  1.1782
 3669TIP3    H232499   4.989   2.258  13.547 -1.1655  0.2185  0.2815
 3670TIP3   OH232500   3.128   1.369  10.458  0.0471 -0.3595  0.0164
 3670TIP3    H132501   3.124   1.353  10.552 -2.0090 -1.3370 -0.2016
 3670TIP3    H232502   3.137   1.282  10.419 -1.2559 -0.1519 -0.7739
 3671TIP3   OH232503   0.703   3.865  13.849  0.0524  0.3043  0.1373
 3671TIP3    H132504   0.744   3.839  13.767  0.6196 -0.9761  0.8018
 3671TIP3    H232505   0.717   3.790  13.907 -0.8949  0.9376  1.2005
 3672TIP3   OH232506   5.331   1.520   4.311  0.3781  0.0622  0.4700
 3672TIP3    H132507   5.243   1.499   4.282 -0.9585  4.1694  1.1982
 3672TIP3    H232508   5.318   1.567   4.394  3.4033 -1.0014  1.6237
 3673TIP3   OH232509   6.316   4.210  17.067 -0.2492  0.5061 -0.4241
 3673TIP3    H132510   6.412   4.208  17.069 -0.2701 -1.3604  0.1662
 3673TIP3    H232511   6.294   4.298  17.038  1.6832  0.2664 -2.7668
 3674TIP3   OH232512   2.438   0.438  17.110  0.1771 -0.1961 -0.2551
 3674TIP3    H132513   2.401   0.490  17.039 -1.1153 -0.0036  0.5419
 3674TIP3    H232514   2.382   0.360  17.115  0.1141 -0.0997  0.6920
 3675TIP3   OH232515   2.757   3.885   2.055 -0.1810  0.1306  0.4925
 3675TIP3    H132516   2.841   3.918   2.086 -0.3108  1.0574 -0.1501
 3675TIP3    H232517   2.701   3.885   2.134  0.5052 -0.8153  0.9934
 3676TIP3   OH232518   1.501   1.750  10.391 -0.2171  0.4325  0.0904
 3676TIP3    H132519   1.489   1.842  10.368  0.2969  0.4707 -0.0270
 3676TIP3    H232520   1.576   1.721  10.340  0.6433  0.3916  1.3492
 3677TIP3   OH232521   1.468   5.772  15.701 -0.2966  0.2718 -0.5683
 3677TIP3    H132522   1.504   5.693  15.741 -0.0845  0.3593 -0.5839
 3677TIP3    H232523   1.511   5.844  15.748 -1.0923  0.3833 -0.0035
 3678TIP3   OH232524   6.098   1.480  12.025  0.1681 -0.5898 -0.1753
 3678TIP3    H132525   6.070   1.523  12.105 -2.3045 -0.6441 -0.9527
 3678TIP3    H232526   6.156   1.543  11.982  1.6657 -0.6478  1.7247
 3679TIP3   OH232527   4.301   1.470  11.784  0.4486  0.1571 -0.3821
 3679TIP3    H132528   4.358   1.544  11.762 -1.1589  1.1128 -1.3811
 3679TIP3    H232529   4.244   1.460  11.707  0.3574 -1.8467 -0.0853
 3680TIP3   OH232530   5.140   6.366  12.575  0.2936  0.0908 -0.0773
 3680TIP3    H132531   5.106   6.430  12.637 -1.2185 -1.9602  1.3041
 3680TIP3    H232532   5.235   6.370  12.585  0.1319  1.0166  1.0959
 3681TIP3   OH232533   5.498   6.217  14.555 -0.1419 -0.2251 -0.3446
 3681TIP3    H132534   5.433   6.150  14.575 -0.4486  0.7066  1.8758
 3681TIP3    H232535   5.450   6.299  14.554  0.7650  0.3185 -0.0835
 3682TIP3   OH232536   2.271   6.803   1.906  0.5914 -0.1161  0.6284
 3682TIP3    H132537   2.181   6.832   1.892  0.6607  0.7201  1.8454
 3682TIP3    H232538   2.323   6.857   1.846  0.5440  1.1670  1.7227
 3683TIP3   OH232539   5.396   1.635   0.530  0.9532  0.0048 -0.0137
 3683TIP3    H132540   5.322   1.632   0.591  0.6931  1.2704 -0.2424
 3683TIP3    H232541   5.394   1.551   0.485 -0.9196  0.3472 -0.6382
 3684TIP3   OH232542   1.328   4.922   1.450  0.7423 -0.4514 -0.4271
 3684TIP3    H132543   1.284   5.007   1.443 -0.1320 -0.8255  0.4547
 3684TIP3    H232544   1.364   4.907   1.362 -0.5347  0.0605 -1.0655
 3685TIP3   OH232545   0.011   6.330  16.567 -0.1058 -0.2805 -0.2373
 3685TIP3    H132546   0.029   6.389  16.494 -0.4050  1.2277  0.8852
 3685TIP3    H232547  -0.085   6.327  16.572 -0.0929 -0.9412 -0.3396
 3686TIP3   OH232548   6.142   4.852   3.884 -0.2920 -0.6415  0.0367
 3686TIP3    H132549   6.110   4.897   3.963  0.2358  1.0754 -0.7176
 3686TIP3    H232550   6.071   4.791   3.861 -0.1240 -1.7346  2.2715
 3687TIP3   OH232551   4.709   0.539  12.023  0.2791 -0.1107  0.2649
 3687TIP3    H132552   4.629   0.588  12.043  0.7455 -0.4435  3.2016
 3687TIP3    H232553   4.716   0.542  11.927 -1.9973  1.8705  0.1144
 3688TIP3   OH232554   1.687   2.860  14.555 -0.1926  0.5866 -0.2055
 3688TIP3    H132555   1.740   2.912  14.616  0.1798 -0.3911  0.3267
 3688TIP3    H232556   1.608   2.912  14.542  0.3635  1.4930 -0.0334
 3689TIP3   OH232557   6.316   0.724   2.713 -0.0325  0.0470 -0.6117
 3689TIP3    H132558   6.350   0.637   2.732 -1.0782 -0.1093  0.6455
 3689TIP3    H232559   6.283   0.718   2.624 -0.0910 -0.8405 -0.5370
 3690TIP3   OH232560   6.602   6.292   2.418 -0.2568 -0.2165  0.0281
 3690TIP3    H132561   6.506   6.297   2.413 -0.3299 -1.1672  0.4018
 3690TIP3    H232562   6.620   6.255   2.505  0.4639  0.3813  0.1352
 3691TIP3   OH232563   1.617   5.544  15.336  0.5486 -0.2067  0.2763
 3691TIP3    H132564   1.537   5.572  15.380  1.1737 -1.2162  2.1028
 3691TIP3    H232565   1.606   5.572  15.245 -0.5808  2.3273  1.1608
 3692TIP3   OH232566   4.441   1.419   5.386  0.4058  0.8203  0.2962
 3692TIP3    H132567   4.454   1.438   5.479  1.7850 -0.8364  0.4604
 3692TIP3    H232568   4.393   1.495   5.353  0.2985  1.6406  2.2598
 3693TIP3   OH232569   6.127   1.956  11.203  0.3878 -0.9992  0.3540
 3693TIP3    H132570   6.067   1.883  11.212  0.4841 -1.0980  0.1940
 3693TIP3    H232571   6.085   2.015  11.141  0.7770 -1.3984 -0.2882
 3694TIP3   OH232572   0.151   1.126  16.717 -0.4046  0.1445  0.1730
 3694TIP3    H132573   0.239   1.106  16.750 -0.3807 -0.8958 -0.5053
 3694TIP3    H232574   0.100   1.144  16.796  0.5796  1.4582  0.5288
 3695TIP3   OH232575   5.104   0.225   2.282  0.1048 -0.2133  0.0976
 3695TIP3    H132576   5.153   0.293   2.328  0.7884 -0.2676 -0.5387
 3695TIP3    H232577   5.090   0.156   2.347 -0.3989  0.4368  0.6833
 3696TIP3   OH232578   6.031   0.195  13.355 -0.2122 -0.1605 -0.1650
 3696TIP3    H132579   6.000   0.252  13.284 -0.5231  1.3576  1.1449
 3696TIP3    H232580   6.040   0.254  13.430  0.3149 -1.6958  1.0039
 3697TIP3   OH232581   2.935   1.015  15.664  0.4368  0.2463 -0.0259
 3697TIP3    H132582   2.846   0.983  15.644  0.7602 -2.2369  2.3031
 3697TIP3    H232583   2.921   1.091  15.720 -0.2210  0.2136 -0.1361
 3698TIP3   OH232584   2.695   0.192   0.008  0.6262  0.5176  0.0075
 3698TIP3    H132585   2.684   0.231   0.095 -0.0676  1.8385 -0.6500
 3698TIP3    H232586   2.725   0.264  -0.047  0.1777 -0.0931 -1.0503
 3699TIP3   OH232587   6.108   1.992   0.386 -0.0542 -0.6849 -0.6093
 3699TIP3    H132588   6.016   2.019   0.392  0.1827 -0.1049  0.4561
 3699TIP3    H232589   6.139   1.993   0.476  0.9652 -1.0152 -0.9570
 3700TIP3   OH232590   2.389   2.488  10.866 -0.1973  0.2355 -0.1640
 3700TIP3    H132591   2.324   2.460  10.801 -1.1176  2.5770 -0.2846
 3700TIP3    H232592   2.373   2.431  10.942 -1.7308  0.1315 -0.5579
 3701TIP3   OH232593   1.772   1.149   0.725  0.1105  0.2240 -0.8152
 3701TIP3    H132594   1.769   1.175   0.633 -0.6403 -1.9466 -1.4377
 3701TIP3    H232595   1.827   1.070   0.726 -2.3475 -1.5628  0.0953
 3702TIP3   OH232596   0.902   2.355   3.106  0.4780  0.0265  0.0289
 3702TIP3    H132597   0.850   2.280   3.076 -1.2268  1.0766  0.2889
 3702TIP3    H232598   0.979   2.355   3.049 -0.3689 -0.8546 -1.1474
 3703TIP3   OH232599   3.417   1.987   6.127  0.5862  0.4231  0.0451
 3703TIP3    H132600   3.345   2.050   6.131 -1.2777 -1.4255 -2.5778
 3703TIP3    H232601   3.410   1.937   6.207 -1.4115 -0.0966 -0.4470
 3704TIP3   OH232602   3.683   5.168  13.910 -0.9171  0.3414  0.0742
 3704TIP3    H132603   3.605   5.144  13.960 -1.6749  0.6345 -0.9285
 3704TIP3    H232604   3.712   5.087  13.869 -0.3840  0.1316  0.8538
 3705TIP3   OH232605   6.327   1.535   1.175 -0.2130 -0.1159 -0.3992
 3705TIP3    H132606   6.306   1.536   1.081  2.0115 -0.6185 -0.9412
 3705TIP3    H232607   6.281   1.458   1.209  1.4237 -1.7407 -1.7377
 3706TIP3   OH232608   6.562   4.230   3.545  0.0440 -0.1804 -0.0448
 3706TIP3    H132609   6.495   4.237   3.613  1.7384 -1.3560  1.8023
 3706TIP3    H232610   6.514   4.202   3.467 -1.5261 -1.7276  1.4235
 3707TIP3   OH232611   2.269   5.086  14.126 -0.1767  0.5369 -0.2594
 3707TIP3    H132612   2.326   5.109  14.053  0.4399 -0.0287  0.0404
 3707TIP3    H232613   2.238   5.171  14.160  0.1578  0.8277 -0.6752
 3708TIP3   OH232614   6.751   4.831  11.146 -0.0677  0.2036 -0.4796
 3708TIP3    H132615   6.802   4.760  11.184  0.7747  0.7448 -0.6065
 3708TIP3    H232616   6.773   4.830  11.053 -1.0598 -0.2106 -0.7228
 3709TIP3   OH232617   5.048   0.371   6.100  0.3143 -0.2688  0.4154
 3709TIP3    H132618   4.972   0.412   6.141 -0.4787  1.7776 -2.8641
 3709TIP3    H232619   5.031   0.277   6.105 -1.7485  0.1167  0.9587
 3710TIP3   OH232620   0.962   2.185   5.156  0.2043  0.1268 -0.2919
 3710TIP3    H132621   1.057   2.191   5.159  0.1166  2.0581 -0.7567
 3710TIP3    H232622   0.938   2.222   5.071 -0.9888  0.3195  0.1150
 3711TIP3   OH232623   5.268   0.737  11.519 -0.4639 -0.6219  0.1806
 3711TIP3    H132624   5.312   0.713  11.437  0.4025 -1.5389  0.9097
 3711TIP3    H232625   5.210   0.663  11.537 -0.5088 -0.5051  0.5051
 3712TIP3   OH232626   0.337   6.654  16.328 -0.2867 -0.3128  0.5131
 3712TIP3    H132627   0.384   6.583  16.372  1.2077  0.6627  0.5314
 3712TIP3    H232628   0.378   6.660  16.242  1.0501  1.9021  1.2706
 3713TIP3   OH232629   1.767   1.890  15.676 -1.1294  0.1450  0.3665
 3713TIP3    H132630   1.835   1.912  15.740 -1.4159  0.8522  0.4298
 3713TIP3    H232631   1.794   1.804  15.641 -0.1854  0.4426  0.3528
 3714TIP3   OH232632   4.888   3.264  12.042  0.3019 -0.0843  0.3508
 3714TIP3    H132633   4.979   3.255  12.070 -0.2425 -0.1761  2.1654
 3714TIP3    H232634   4.854   3.338  12.093  0.0850  1.7210 -2.2928
 3715TIP3   OH232635   5.928   5.897  13.623  0.2581  0.0801  0.4734
 3715TIP3    H132636   5.869   5.824  13.604 -0.1202  0.6394 -0.5744
 3715TIP3    H232637   5.878   5.975  13.599  1.3259  0.5792 -0.2063
 3716TIP3   OH232638   5.018   5.450  12.856  0.1797 -0.2343  0.0539
 3716TIP3    H132639   5.065   5.373  12.886  3.0130  1.3569 -0.1213
 3716TIP3    H232640   4.954   5.416  12.794  0.7862 -2.5330  0.6443
 3717TIP3   OH232641   0.978   0.958   3.273 -0.2299  0.1262 -0.4490
 3717TIP3    H132642   0.896   0.912   3.292 -0.0622  0.2731  0.6809
 3717TIP3    H232643   0.958   1.013   3.197 -0.4359 -1.7640 -1.7818
 3718TIP3   OH232644   1.959   6.256   0.680  0.2411 -0.0908  0.0108
 3718TIP3    H132645   2.021   6.326   0.695  0.9063 -0.6772  0.0467
 3718TIP3    H232646   1.920   6.276   0.595  1.2916 -0.3071 -0.5287
 3719TIP3   OH232647   1.352   6.589  16.048  0.1901  0.5830 -0.2686
 3719TIP3    H132648   1.307   6.562  16.129 -0.2561  0.4664 -0.5560
 3719TIP3    H232649   1.410   6.660  16.076  1.4577 -0.7478  0.5185
 3720TIP3   OH232650   1.228   5.291  11.733  0.5191 -0.2309 -0.0351
 3720TIP3    H132651   1.224   5.329  11.645  1.3566 -0.1305 -0.0308
 3720TIP3    H232652   1.255   5.200  11.719  0.2352 -0.3367  0.0905
 3721TIP3   OH232653   3.902   4.022   5.812  0.1765 -0.3882 -0.1038
 3721TIP3    H132654   3.962   4.021   5.887 -0.5026  2.6136  0.5288
 3721TIP3    H232655   3.835   3.957   5.834  0.3248  0.0198  1.6177
 3722TIP3   OH232656   6.185   2.517   2.205  0.2722  0.2478  0.3128
 3722TIP3    H132657   6.205   2.426   2.230 -0.1228  0.2883  0.7922
 3722TIP3    H232658   6.134   2.509   2.124  3.4951  0.2048 -1.8017
 3723TIP3   OH232659   2.877   1.826   3.407  0.5128  0.0384  0.2847
 3723TIP3    H132660   2.880   1.751   3.348 -0.1953  0.0159  0.2729
 3723TIP3    H232661   2.878   1.902   3.349  0.7069  0.0329  0.2791
 3724TIP3   OH232662   1.516   3.746   3.503  0.0888  0.6420 -0.3146
 3724TIP3    H132663   1.510   3.675   3.439 -1.3321  0.4667  0.0057
 3724TIP3    H232664   1.586   3.718   3.563 -0.5342 -0.5381 -0.1266
 3725TIP3   OH232665   1.724   5.411  13.050 -0.8460  0.3613 -0.2593
 3725TIP3    H132666   1.700   5.484  12.993 -0.1923  2.2069  1.7634
 3725TIP3    H232667   1.648   5.352  13.047 -0.6590  0.2280 -3.2846
 3726TIP3   OH232668   3.628   0.707   4.008  0.2538 -0.2804 -0.1651
 3726TIP3    H132669   3.710   0.713   4.056  0.9002 -1.0156 -1.1459
 3726TIP3    H232670   3.653   0.717   3.916 -0.9350  0.8987 -0.3758
 3727TIP3   OH232671   1.929   1.593  11.301 -0.1039  0.0274 -0.5157
 3727TIP3    H132672   1.976   1.622  11.380 -0.1151 -0.5566 -0.2904
 3727TIP3    H232673   1.994   1.599  11.231  0.4997 -1.3691 -0.0901
 3728TIP3   OH232674   0.509   2.692   6.470  0.3081  0.1045 -0.0102
 3728TIP3    H132675   0.421   2.723   6.490  0.1181  0.1327 -0.8647
 3728TIP3    H232676   0.564   2.730   6.538 -0.2282  0.6878  0.1002
 3729TIP3   OH232677   4.113   1.793   4.305  0.2198  0.2278  0.0186
 3729TIP3    H132678   4.141   1.743   4.382 -3.0006 -0.4305  0.8347
 3729TIP3    H232679   4.104   1.728   4.236  0.9481  0.4814 -0.3213
 3730TIP3   OH232680   3.615   3.967  14.894  0.6492 -0.7163  0.2598
 3730TIP3    H132681   3.649   3.929  14.813 -0.2852 -1.6774  0.3138
 3730TIP3    H232682   3.613   4.061  14.878 -1.1590 -1.0342 -1.4495
 3731TIP3   OH232683   3.411   6.559   3.086 -0.0810 -0.2447 -0.5444
 3731TIP3    H132684   3.363   6.482   3.057  0.1132 -0.2105 -0.9531
 3731TIP3    H232685   3.423   6.546   3.180 -1.0844 -0.1547 -0.3980
 3732TIP3   OH232686   3.195   6.530  14.566 -0.4137 -0.3856  0.0661
 3732TIP3    H132687   3.122   6.498  14.512  1.1438 -0.6817 -1.9151
 3732TIP3    H232688   3.234   6.451  14.603  0.0610 -0.3746 -0.4068
 3733TIP3   OH232689   0.132   0.662   0.704  0.1259  0.1028  0.0942
 3733TIP3    H132690   0.154   0.569   0.695  1.2713  0.3769 -0.0370
 3733TIP3    H232691   0.110   0.672   0.797 -2.3341 -0.7699 -0.3646
 3734TIP3   OH232692   1.462   3.864   5.010  0.1062 -0.3669 -0.0268
 3734TIP3    H132693   1.381   3.843   5.056  0.3704 -1.0811  0.1138
 3734TIP3    H232694   1.531   3.855   5.076  0.0275  3.0327  0.6248
 3735TIP3   OH232695   1.158   3.892   2.613 -0.1234  0.7704 -0.0832
 3735TIP3    H132696   1.202   3.927   2.535 -2.2589 -1.9140 -2.6024
 3735TIP3    H232697   1.229   3.853   2.664  1.2361  1.9467 -1.0146
 3736TIP3   OH232698   5.619   0.451  14.867 -0.0404  0.1160  0.5383
 3736TIP3    H132699   5.710   0.448  14.838 -1.0078  0.6774 -2.7442
 3736TIP3    H232700   5.601   0.363  14.901  1.2758 -0.4431 -0.1877
 3737TIP3   OH232701   3.137   3.011   6.021 -0.1343  0.2198 -0.0331
 3737TIP3    H132702   3.135   3.014   6.116  0.1142  0.6001 -0.0412
 3737TIP3    H232703   3.195   2.937   6.000  0.4516  0.6380  0.1072
 3738TIP3   OH232704   2.408   5.168   1.130  0.0755  0.3026 -0.5045
 3738TIP3    H132705   2.327   5.212   1.155 -0.2078 -0.8093  0.5274
 3738TIP3    H232706   2.384   5.077   1.117  0.9268  0.1873 -1.3986
 3739TIP3   OH232707   2.593   4.610  11.828  0.2982  0.3434  0.2096
 3739TIP3    H132708   2.582   4.613  11.733 -0.9226  0.8679  0.3430
 3739TIP3    H232709   2.506   4.633  11.862  0.6134 -0.2783  1.4485
 3740TIP3   OH232710   4.837   0.968  15.212  0.1303 -0.4565  0.1168
 3740TIP3    H132711   4.922   0.955  15.253 -0.2105 -0.5767  0.7962
 3740TIP3    H232712   4.854   0.960  15.119  0.7961 -0.8743  0.2684
 3741TIP3   OH232713   5.006   2.284  15.932  0.4609 -0.1312  0.2609
 3741TIP3    H132714   4.992   2.373  15.963  1.1677  0.1517 -0.2280
 3741TIP3    H232715   4.921   2.256  15.899  0.2194  0.3367  0.4899
 3742TIP3   OH232716   5.623   2.134  17.198  0.0796 -0.8658 -0.6800
 3742TIP3    H132717   5.638   2.051  17.153  2.0177 -1.0633  0.2672
 3742TIP3    H232718   5.644   2.115  17.290 -0.3441  0.4454 -0.3027
 3743TIP3   OH232719   2.826   6.229   1.767  0.2015  0.0503  0.5881
 3743TIP3    H132720   2.908   6.192   1.799 -0.2890 -1.2827  0.3404
 3743TIP3    H232721   2.760   6.162   1.787 -0.1797 -0.6758 -2.8011
 3744TIP3   OH232722   0.065   4.457  15.869  0.2816 -0.2713  0.3869
 3744TIP3    H132723   0.098   4.368  15.880 -2.7634 -1.6919 -1.3405
 3744TIP3    H232724   0.092   4.481  15.780  0.8062  0.4173  0.7299
 3745TIP3   OH232725   6.331   3.262   3.895 -0.3184  0.1620 -0.3943
 3745TIP3    H132726   6.254   3.246   3.948 -0.8406  1.4189 -0.7378
 3745TIP3    H232727   6.297   3.308   3.818  0.6402 -0.1699 -1.0201
 3746TIP3   OH232728   2.502   3.587   2.385  0.2020  0.0428 -0.0814
 3746TIP3    H132729   2.430   3.608   2.445  0.7887 -0.0731  0.6674
 3746TIP3    H232730   2.459   3.547   2.310 -0.7136  1.7511 -0.4934
 3747TIP3   OH232731   6.797   5.992  12.047 -0.3009 -0.0662 -0.1855
 3747TIP3    H132732   6.739   6.068  12.048 -0.9393 -0.5337  1.8386
 3747TIP3    H232733   6.885   6.027  12.060 -0.6435  0.3193  1.2351
 3748TIP3   OH232734   1.334   3.370   6.243 -0.4259 -0.6795 -0.2606
 3748TIP3    H132735   1.361   3.451   6.287 -2.8853  0.0913 -0.0645
 3748TIP3    H232736   1.337   3.304   6.312 -0.7013 -0.2465  0.1757
 3749TIP3   OH232737   4.648   1.491  12.495  0.0026 -0.2861  0.4606
 3749TIP3    H132738   4.622   1.436  12.422 -1.2142 -0.0475  0.6984
 3749TIP3    H232739   4.631   1.438  12.573 -0.5106  0.1580  0.6563
 3750TIP3   OH232740   4.787   0.143  14.811 -0.5334 -0.0344  0.0192
 3750TIP3    H132741   4.862   0.199  14.831 -0.2189 -0.3846 -0.1830
 3750TIP3    H232742   4.715   0.181  14.862 -0.2150  0.2806  0.2376
 3751TIP3   OH232743   0.612   6.568   5.574 -0.2104  0.6688  0.0825
 3751TIP3    H132744   0.698   6.562   5.532 -0.6131 -0.3542 -0.6405
 3751TIP3    H232745   0.571   6.646   5.537 -0.9583 -0.7743 -2.2487
 3752TIP3   OH232746   6.263   0.764  15.684 -0.1350 -0.2926 -0.4350
 3752TIP3    H132747   6.280   0.848  15.726 -1.1493 -1.2385  1.9904
 3752TIP3    H232748   6.167   0.757  15.683 -0.1378 -0.3476 -2.8854
 3753TIP3   OH232749   3.907   3.016  14.711  0.4925  0.1874 -0.1559
 3753TIP3    H132750   3.840   3.023  14.779  0.1112  1.0054 -0.6204
 3753TIP3    H232751   3.923   3.106  14.683  0.8838 -0.1205 -0.9316
 3754TIP3   OH232752   2.824   6.260  15.948  0.2253 -0.0151  0.5531
 3754TIP3    H132753   2.804   6.308  16.028  0.6326  0.1619  0.5498
 3754TIP3    H232754   2.875   6.321  15.895 -0.4129  0.0173 -0.0247
 3755TIP3   OH232755   1.783   3.963  11.583 -0.4732 -0.1578 -0.5867
 3755TIP3    H132756   1.737   4.032  11.536  1.0057  2.2695  1.3962
 3755TIP3    H232757   1.857   3.940  11.526  0.5711  1.8462 -0.0826
 3756TIP3   OH232758   5.787   3.397  14.510 -0.0613  0.4659  0.0165
 3756TIP3    H132759   5.851   3.426  14.445  0.7700 -0.7342  0.2937
 3756TIP3    H232760   5.818   3.434  14.593 -0.8813  1.6281 -0.1856
 3757TIP3   OH232761   1.140   6.639   2.061  0.0289  0.0371  0.2466
 3757TIP3    H132762   1.171   6.556   2.098  1.0159 -0.1667 -1.0084
 3757TIP3    H232763   1.100   6.614   1.978 -2.0791  0.5037  1.0836
 3758TIP3   OH232764   3.866   3.034  13.072  0.5918 -0.3465 -0.4411
 3758TIP3    H132765   3.844   3.127  13.072  0.8516 -0.2860 -0.4836
 3758TIP3    H232766   3.781   2.990  13.080  0.4730 -0.1066 -0.3738
 3759TIP3   OH232767   0.413   6.655   2.425  0.4965  0.1262 -0.4091
 3759TIP3    H132768   0.404   6.748   2.406 -1.9995  0.3125  1.5082
 3759TIP3    H232769   0.437   6.615   2.341 -1.7265  2.0260 -1.9873
 3760TIP3   OH232770   5.731   2.035   4.035 -0.2788 -0.2333 -0.2006
 3760TIP3    H132771   5.795   2.087   3.988 -0.3257 -1.6008 -1.8009
 3760TIP3    H232772   5.782   1.986   4.099 -0.0398  0.4969  0.1786
 3761TIP3   OH232773   2.107   6.198   1.952  0.1758 -0.7408 -0.3365
 3761TIP3    H132774   2.029   6.181   1.898  0.2103  0.3826 -0.7569
 3761TIP3    H232775   2.126   6.290   1.937  0.7544 -0.6583  0.8740
 3762TIP3   OH232776   4.060   5.944  13.507 -0.2453  0.0856  0.4747
 3762TIP3    H132777   3.984   5.908  13.555  0.9035 -1.6296  1.0555
 3762TIP3    H232778   4.049   5.912  13.418  0.7361 -1.7245  0.9742
 3763TIP3   OH232779   2.607   0.652  15.312  0.0534  0.0522 -0.1969
 3763TIP3    H132780   2.575   0.675  15.224  0.3104 -0.0333 -0.3135
 3763TIP3    H232781   2.699   0.630  15.298 -0.0050 -0.3391  0.0340
 3764TIP3   OH232782   4.433   4.637  11.609 -0.1187  0.7424  0.2485
 3764TIP3    H132783   4.386   4.649  11.526 -1.7584 -2.3449  0.6458
 3764TIP3    H232784   4.513   4.590  11.585  0.4530  1.7364  0.1756
 3765TIP3   OH232785   0.020   4.850   2.158 -0.2200  0.1053 -0.3525
 3765TIP3    H132786  -0.005   4.941   2.174  0.6087  0.4659 -1.0259
 3765TIP3    H232787  -0.045   4.798   2.205 -0.6374  1.0481  0.1273
 3766TIP3   OH232788   2.119   4.308   4.048  0.2058  0.4639 -0.4128
 3766TIP3    H132789   2.055   4.241   4.024  0.8188 -0.3300  0.1173
 3766TIP3    H232790   2.151   4.342   3.964  0.4145 -0.4254 -0.7013
 3767TIP3   OH232791   2.635   0.199   1.262 -0.1445  0.4589  0.5819
 3767TIP3    H132792   2.578   0.269   1.292  0.9703  1.4230  0.4989
 3767TIP3    H232793   2.666   0.157   1.343 -0.9894 -0.0845  0.6240
 3768TIP3   OH232794   6.536   1.095   3.224 -0.2418  0.1625 -0.1163
 3768TIP3    H132795   6.474   1.147   3.172 -1.7058 -1.6456 -0.2188
 3768TIP3    H232796   6.486   1.018   3.251  1.9633 -1.3412 -0.1983
 3769TIP3   OH232797   6.136   1.552   4.908 -0.7614  0.4982  0.2505
 3769TIP3    H132798   6.219   1.570   4.864 -0.6043 -0.5497  0.1158
 3769TIP3    H232799   6.160   1.500   4.984 -1.4868 -1.6842 -0.9640
 3770TIP3   OH232800   2.091   2.310  16.649 -0.1457  0.0307 -0.1466
 3770TIP3    H132801   2.082   2.385  16.591 -1.0770 -1.8964 -2.5233
 3770TIP3    H232802   2.034   2.330  16.723  1.0211  2.4822  0.1450
 3771TIP3   OH232803   2.643   1.857   5.970  0.5067  0.4071 -0.2144
 3771TIP3    H132804   2.621   1.842   5.878 -0.5461  0.8198 -0.0366
 3771TIP3    H232805   2.718   1.800   5.986  0.3270 -0.1138 -1.1700
 3772TIP3   OH232806   6.195   2.287   0.867 -0.0339 -0.1050  0.6322
 3772TIP3    H132807   6.214   2.265   0.776  0.7905 -0.5571  0.9137
 3772TIP3    H232808   6.244   2.222   0.919  0.4391  0.8712  1.4206
 3773TIP3   OH232809   2.799   4.184   4.750  0.6072  0.3337  0.7233
 3773TIP3    H132810   2.765   4.270   4.725 -0.2575 -0.3262 -0.4543
 3773TIP3    H232811   2.768   4.170   4.839 -1.4046  0.1799  0.0225
 3774TIP3   OH232812   2.260   0.699   3.834 -0.4153  0.0145  0.1267
 3774TIP3    H132813   2.228   0.664   3.751  2.1985 -1.8380 -0.1734
 3774TIP3    H232814   2.189   0.754   3.867 -2.2178 -0.7415 -2.4117
 3775TIP3   OH232815   5.806   3.567   2.106 -0.4773  0.1931  0.5805
 3775TIP3    H132816   5.841   3.655   2.091 -0.0383  0.0173  0.5736
 3775TIP3    H232817   5.875   3.522   2.155 -0.5720 -0.2478  0.3091
 3776TIP3   OH232818   2.956   6.154  15.290  0.2833  0.2631  0.1356
 3776TIP3    H132819   2.953   6.206  15.210  0.8031 -1.1019 -0.7943
 3776TIP3    H232820   2.867   6.119  15.299 -0.3428  2.0688  1.3078
 3777TIP3   OH232821   5.052   4.778   4.080  0.0168  0.0366  0.4870
 3777TIP3    H132822   4.977   4.720   4.082 -0.6642  0.9048  0.7412
 3777TIP3    H232823   5.091   4.771   4.168  1.2694 -1.7243 -0.1893
 3778TIP3   OH232824   2.091   0.807   5.198  0.6235 -0.7534  0.9638
 3778TIP3    H132825   2.066   0.751   5.272 -1.3814 -1.3488 -0.1073
 3778TIP3    H232826   2.035   0.884   5.207  0.1092 -0.9904 -0.1144
 3779TIP3   OH232827   3.700   6.285   4.388  0.4222 -0.4659  0.1350
 3779TIP3    H132828   3.675   6.273   4.480  0.9326  0.7830  0.4403
 3779TIP3    H232829   3.790   6.252   4.385  0.8849  0.7573  0.3885
 3780TIP3   OH232830   1.847   5.427   6.388  0.0865 -0.1157 -0.4614
 3780TIP3    H132831   1.822   5.463   6.473  1.5139  3.2205 -1.3664
 3780TIP3    H232832   1.804   5.484   6.324 -0.4688 -2.2061 -2.0191
 3781TIP3   OH232833   4.315   6.430  11.676 -0.2391  0.2390  0.0732
 3781TIP3    H132834   4.246   6.494  11.691 -1.8939 -0.9694 -2.0419
 3781TIP3    H232835   4.296   6.359  11.738 -0.5302  0.2247 -0.0286
 3782TIP3   OH232836   2.188   4.511  15.828  0.2289  0.2750 -0.0715
 3782TIP3    H132837   2.152   4.567  15.758 -1.0031  0.7035  0.8882
 3782TIP3    H232838   2.112   4.474  15.871  0.7436  3.3610  3.7752
 3783TIP3   OH232839   0.349   6.403   4.289  0.1017  0.0120 -0.3993
 3783TIP3    H132840   0.304   6.457   4.354 -0.4318 -0.3816 -0.4457
 3783TIP3    H232841   0.383   6.329   4.338  0.3856  0.1197 -0.4305
 3784TIP3   OH232842   3.536   3.167  16.675 -0.4715  0.2671 -0.1719
 3784TIP3    H132843   3.560   3.199  16.762  0.4897  1.3437 -0.8113
 3784TIP3    H232844   3.514   3.075  16.688  0.8698  0.1002  1.0027
 3785TIP3   OH232845   5.697   1.023  13.818  0.1131  0.0286  0.6759
 3785TIP3    H132846   5.613   0.986  13.843  0.3418 -0.7266  0.3504
 3785TIP3    H232847   5.706   1.102  13.872 -1.1789  0.5868  0.1021
 3786TIP3   OH232848   6.814   3.771   0.321 -0.0489  0.0540  0.1160
 3786TIP3    H132849   6.907   3.753   0.309 -0.4200 -0.9684 -1.3669
 3786TIP3    H232850   6.772   3.686   0.307 -1.1453  0.3129  1.6552
 3787TIP3   OH232851   3.600   1.037   1.409 -0.2754  0.6512 -0.1587
 3787TIP3    H132852   3.627   1.033   1.501  0.6445 -0.3253 -0.4597
 3787TIP3    H232853   3.554   0.954   1.394 -1.8750  1.5023 -0.1578
 3788TIP3   OH232854   4.640   2.442  13.617  0.0946  0.4451  0.2394
 3788TIP3    H132855   4.551   2.417  13.591  0.3647  0.7610 -1.0257
 3788TIP3    H232856   4.643   2.537  13.605  0.5181  0.4782  0.5703
 3789TIP3   OH232857   6.073   6.313  11.637 -0.5429 -0.0843 -0.0589
 3789TIP3    H132858   6.163   6.323  11.669 -1.2779  1.1415  1.7418
 3789TIP3    H232859   6.037   6.242  11.691 -0.6090 -0.7127 -0.9205
 3790TIP3   OH232860   1.325   5.003   0.461  0.1805  0.1950 -0.8742
 3790TIP3    H132861   1.263   4.934   0.486  1.6799 -0.2948  1.6258
 3790TIP3    H232862   1.384   4.961   0.398  0.8628 -0.7094  0.3610
 3791TIP3   OH232863   2.126   4.012  12.132 -0.3149 -0.1767  0.7125
 3791TIP3    H132864   2.201   4.066  12.108 -0.0516 -1.0349 -0.4502
 3791TIP3    H232865   2.051   4.054  12.089  0.0680 -1.3843 -1.1562
 3792TIP3   OH232866   3.176   2.507  12.637 -0.0338  0.2973  0.5080
 3792TIP3    H132867   3.128   2.477  12.560 -1.6707 -1.0402  1.9948
 3792TIP3    H232868   3.107   2.534  12.699  1.2197  0.7319  1.7409
 3793TIP3   OH232869   2.134   2.747  14.317 -0.6647  0.0236 -0.1475
 3793TIP3    H132870   2.074   2.822  14.321 -0.4961  0.1953 -0.8806
 3793TIP3    H232871   2.126   2.715  14.228  0.3931  0.0846 -0.2636
 3794TIP3   OH232872   6.430   0.129   5.406 -0.4547 -0.6831  0.3428
 3794TIP3    H132873   6.514   0.113   5.363 -0.7601 -0.3752 -0.3793
 3794TIP3    H232874   6.378   0.050   5.390 -1.4705  0.4272 -2.0419
 3795TIP3   OH232875   2.436   6.691   1.012 -0.0004 -0.5427  0.2358
 3795TIP3    H132876   2.461   6.782   1.030 -3.4784  0.5275  0.1336
 3795TIP3    H232877   2.398   6.660   1.094 -1.4273 -0.9229 -0.5472
 3796TIP3   OH232878   6.453   4.027  11.570 -0.8926  0.0634 -0.1356
 3796TIP3    H132879   6.489   3.964  11.507 -1.5059 -0.3232 -0.0996
 3796TIP3    H232880   6.501   4.009  11.651  1.2701  1.8525 -0.9789
 3797TIP3   OH232881   3.998   4.955  11.486  0.5422  0.2035 -0.2549
 3797TIP3    H132882   3.934   4.934  11.553 -0.2647  1.0371 -0.7569
 3797TIP3    H232883   3.969   4.908  11.408  1.5133 -0.8146 -0.0069
 3798TIP3   OH232884   2.639   3.771   4.917 -0.1243 -0.1021  0.6330
 3798TIP3    H132885   2.559   3.720   4.902  0.1048 -0.3151  0.1402
 3798TIP3    H232886   2.710   3.714   4.888  0.1135  0.6149 -0.2065
 3799TIP3   OH232887   3.839   1.388   5.700 -0.1331 -0.4535  0.2848
 3799TIP3    H132888   3.806   1.302   5.724 -1.0190 -0.4045 -0.7003
 3799TIP3    H232889   3.841   1.437   5.782 -0.5218 -1.1136  0.6937
 3800TIP3   OH232890   0.511   4.393   5.083  0.1781  0.2054  0.0314
 3800TIP3    H132891   0.457   4.466   5.052 -0.1852  0.2048  0.6488
 3800TIP3    H232892   0.590   4.436   5.117  0.1572  0.2763 -0.0079
 3801TIP3   OH232893   1.946   1.389  12.804  0.1682 -0.3892 -0.2705
 3801TIP3    H132894   1.996   1.457  12.849  1.9563 -0.1976 -2.4704
 3801TIP3    H232895   1.855   1.410  12.823  0.7292  2.0839 -0.1543
 3802TIP3   OH232896   1.528   5.359  11.707  0.2397 -0.7470 -0.9498
 3802TIP3    H132897   1.434   5.357  11.728 -0.0886 -0.3973 -2.3433
 3802TIP3    H232898   1.531   5.352  11.612  1.5791  0.5103 -1.0070
 3803TIP3   OH232899   6.288   4.421   1.962  0.5296 -0.7261 -0.2324
 3803TIP3    H132900   6.260   4.339   2.003 -2.1561 -1.2278 -2.9335
 3803TIP3    H232901   6.312   4.396   1.873  0.5429  1.2967 -0.8155
 3804TIP3   OH232902   2.408   2.242  13.950  0.4314 -0.4746 -0.2106
 3804TIP3    H132903   2.396   2.188  14.028  0.8662 -1.7144 -0.9846
 3804TIP3    H232904   2.349   2.316  13.963 -2.0499 -2.3780 -0.2427
 3805TIP3   OH232905   5.464   2.929   3.996  0.1297  0.1412  0.2652
 3805TIP3    H132906   5.457   2.858   3.932 -0.4923  0.8113 -0.4349
 3805TIP3    H232907   5.375   2.965   4.001  1.0934  3.0017 -1.8971
 3806TIP3   OH232908   6.154   1.507   4.376  0.1734 -0.3232 -0.1587
 3806TIP3    H132909   6.203   1.456   4.311 -0.9866 -0.4694 -0.9483
 3806TIP3    H232910   6.221   1.556   4.424  1.0895 -0.5184 -1.2068
 3807TIP3   OH232911   2.557   1.761   4.969  0.3510 -0.1032  0.0755
 3807TIP3    H132912   2.556   1.746   4.875  0.5114  1.5318 -0.2088
 3807TIP3    H232913   2.584   1.853   4.978  2.2770 -0.8158  1.7985
 3808TIP3   OH232914   2.103   1.924   5.602 -0.5200  0.4002  0.1626
 3808TIP3    H132915   2.081   1.859   5.536 -1.6716  0.7722  0.1796
 3808TIP3    H232916   2.198   1.917   5.612 -0.3349  0.3398 -1.5228
 3809TIP3   OH232917   1.467   6.495   1.086 -0.2942  0.8872 -0.0943
 3809TIP3    H132918   1.403   6.549   1.134  0.0025  0.6512  0.5758
 3809TIP3    H232919   1.536   6.478   1.150 -0.0839  0.2357 -0.4915
 3810TIP3   OH232920   3.426   2.103  12.692 -0.4382 -0.0386  0.3347
 3810TIP3    H132921   3.342   2.078  12.655 -0.1355  0.5639 -0.7559
 3810TIP3    H232922   3.468   2.157  12.625 -0.3981  2.0643  2.0066
 3811TIP3   OH232923   1.076   6.155   4.342 -0.7566  0.3417 -0.1811
 3811TIP3    H132924   1.135   6.174   4.270 -1.1731  1.1052 -0.3198
 3811TIP3    H232925   1.132   6.120   4.411 -0.1375  1.0951 -0.2989
 3812TIP3   OH232926   5.186   6.477   4.053  0.4894 -0.2440  0.3579
 3812TIP3    H132927   5.175   6.510   3.964 -2.7834 -0.4577  0.6422
 3812TIP3    H232928   5.244   6.401   4.043  2.3214  1.2975 -1.1985
 3813TIP3   OH232929   5.701   5.829  12.910 -0.2462 -0.0455 -0.3065
 3813TIP3    H132930   5.797   5.833  12.906 -0.3040 -0.1367 -2.7421
 3813TIP3    H232931   5.682   5.741  12.943  0.5152 -0.2530 -0.4148
 3814TIP3   OH232932   3.021   3.542   6.263 -0.3469  0.1016 -0.4251
 3814TIP3    H132933   3.056   3.578   6.345 -0.1631  0.6661 -0.7446
 3814TIP3    H232934   2.928   3.566   6.264 -0.0729  1.2329 -0.9711
 3815TIP3   OH232935   0.029   1.181   0.731  0.0956  0.5501  0.4013
 3815TIP3    H132936   0.121   1.200   0.750  0.1164  0.7419  0.1026
 3815TIP3    H232937  -0.001   1.132   0.808  1.0670 -1.4986 -0.4995
 3816TIP3   OH232938   2.958   6.143   1.103  0.5512 -0.2531 -0.0783
 3816TIP3    H132939   2.948   6.052   1.133  0.7688  0.2373  1.5015
 3816TIP3    H232940   3.016   6.136   1.028  0.0670 -1.4962 -0.3578
 3817TIP3   OH232941   3.180   4.646  14.105  0.4016  0.3152 -0.0608
 3817TIP3    H132942   3.164   4.552  14.097  0.1015  0.4694 -1.3897
 3817TIP3    H232943   3.144   4.669  14.190  1.1374 -0.9108  0.6023
 3818TIP3   OH232944   4.847   6.381   0.214 -0.3212  0.1773  0.7281
 3818TIP3    H132945   4.825   6.472   0.235 -0.9631  0.5689 -1.4391
 3818TIP3    H232946   4.939   6.372   0.239  0.9970  2.7000 -2.6883
 3819TIP3   OH232947   0.019   2.232  14.460 -0.1413  0.2481 -0.0396
 3819TIP3    H132948  -0.055   2.252  14.518 -0.6666 -1.8974  0.0446
 3819TIP3    H232949   0.096   2.242  14.516 -0.4833  0.6133  0.3735
 3820TIP3   OH232950   4.273   0.045   1.766  0.0310 -0.3732  0.0406
 3820TIP3    H132951   4.180   0.044   1.745  0.3427 -0.2449 -1.4397
 3820TIP3    H232952   4.306   0.123   1.721  0.6425  0.2585  1.5461
 3821TIP3   OH232953   1.859   6.363  13.216 -0.1815 -0.7273  0.4499
 3821TIP3    H132954   1.925   6.303  13.181 -0.1296 -1.1562  1.2613
 3821TIP3    H232955   1.910   6.430  13.261 -0.2703 -0.5552  0.2934
 3822TIP3   OH232956   5.882   3.292   1.770 -0.1073 -0.4768 -0.1916
 3822TIP3    H132957   5.824   3.364   1.796  2.7357  1.4769  1.0414
 3822TIP3    H232958   5.945   3.333   1.710  2.7316 -1.4532  2.0305
 3823TIP3   OH232959   3.867   1.199   4.236  0.0092 -0.1864  0.1157
 3823TIP3    H132960   3.862   1.121   4.180  2.2041  1.0609 -1.8844
 3823TIP3    H232961   3.875   1.272   4.175  0.9204  1.3339  2.0150
 3824TIP3   OH232962   4.683   5.410  11.103 -0.2702 -0.3918  0.1979
 3824TIP3    H132963   4.711   5.456  11.182  0.5491  0.0797 -0.3681
 3824TIP3    H232964   4.725   5.324  11.110  0.3312 -0.1195 -0.0450
 3825TIP3   OH232965   0.816   3.591  10.417  0.5335 -0.0361 -0.3287
 3825TIP3    H132966   0.854   3.540  10.346 -0.2375 -1.0047 -0.0587
 3825TIP3    H232967   0.884   3.654  10.441  0.9528  0.0215 -1.6388
 3826TIP3   OH232968   2.195   0.342   4.916  0.4660 -0.1233 -0.3992
 3826TIP3    H132969   2.162   0.378   4.998 -0.8040  1.2376 -1.4775
 3826TIP3    H232970   2.118   0.310   4.870  1.2501 -1.5596 -0.7663
 3827TIP3   OH232971   4.440   3.029   3.685 -0.0538 -0.0699 -0.0845
 3827TIP3    H132972   4.488   2.962   3.637 -1.6915 -1.9367  0.8063
 3827TIP3    H232973   4.409   3.090   3.617 -0.1351 -1.2458 -1.1233
 3828TIP3   OH232974   3.477   4.575   3.154  0.0184  0.3901 -0.4029
 3828TIP3    H132975   3.485   4.622   3.071  0.8894  0.3134 -0.3705
 3828TIP3    H232976   3.528   4.495   3.141 -1.8118 -0.7791 -0.6025
 3829TIP3   OH232977   3.384   4.911  12.039 -0.0311  0.3311  0.2727
 3829TIP3    H132978   3.342   4.996  12.028  1.0465  0.9020  0.5181
 3829TIP3    H232979   3.477   4.931  12.050  0.2360 -0.8785  0.3074
 3830TIP3   OH232980   3.923   5.668   0.610  0.1703 -0.0030  0.0527
 3830TIP3    H132981   3.929   5.717   0.529  1.3471 -0.8164 -0.3730
 3830TIP3    H232982   3.921   5.735   0.679 -0.8269  0.6855 -0.6281
 3831TIP3   OH232983   2.601   4.196  16.787  0.1414  0.0630  0.5557
 3831TIP3    H132984   2.509   4.175  16.774 -0.2326  2.0913 -0.2653
 3831TIP3    H232985   2.616   4.181  16.880 -0.7615 -1.2391  0.4929
 3832TIP3   OH232986   6.381   2.195   3.549 -0.2839 -0.6392 -0.1641
 3832TIP3    H132987   6.361   2.176   3.641 -0.7438 -1.4902 -0.4344
 3832TIP3    H232988   6.462   2.147   3.533  0.5563  0.6465  0.1847
 3833TIP3   OH232989   5.916   1.234  13.671 -0.7231 -0.4826 -0.4381
 3833TIP3    H132990   5.935   1.262  13.581  2.0125  0.1932  0.3295
 3833TIP3    H232991   5.909   1.138  13.665  0.0525 -0.4927 -1.2510
 3834TIP3   OH232992   1.084   4.390   0.454 -0.9749 -0.2741  0.2826
 3834TIP3    H132993   1.137   4.461   0.419 -1.4136 -0.3616 -0.5619
 3834TIP3    H232994   1.002   4.433   0.481  0.0247  0.1077  2.8847
 3835TIP3   OH232995   0.893   2.838  12.821  0.4439 -0.5562  0.0804
 3835TIP3    H132996   0.878   2.803  12.733  0.6786 -1.4186  0.3863
 3835TIP3    H232997   0.806   2.865  12.851  0.3008 -0.6381 -0.2560
 3836TIP3   OH232998   3.944   4.911  16.180  0.6123 -0.4121  0.8163
 3836TIP3    H132999   4.009   4.932  16.247  1.2392 -1.0960  0.4327
 3836TIP3    H233000   3.972   4.959  16.102 -0.0564  0.3008  1.0157
 3837TIP3   OH233001   3.482   6.350   5.444 -0.0610  0.0841 -0.4808
 3837TIP3    H133002   3.571   6.386   5.448  0.0151 -0.2754  1.3294
 3837TIP3    H233003   3.470   6.306   5.528 -3.2123  3.0471  0.7556
 3838TIP3   OH233004   2.333   2.194  16.621 -0.0739  0.0881 -0.0601
 3838TIP3    H133005   2.387   2.270  16.639  0.6186 -0.8018  1.7757
 3838TIP3    H233006   2.243   2.226  16.628  0.2108  0.6398  1.2177
 3839TIP3   OH233007   0.447   1.957   2.514  0.1083  0.4942  0.1426
 3839TIP3    H133008   0.356   1.950   2.544  0.6756  1.1185  2.0710
 3839TIP3    H233009   0.481   1.867   2.519 -0.2134  0.3675  0.0415
 3840TIP3   OH233010   6.517   2.103   5.022 -0.1697  0.3328 -0.1189
 3840TIP3    H133011   6.547   2.015   5.000 -0.8018 -0.3494  1.6902
 3840TIP3    H233012   6.430   2.110   4.982 -0.2929 -0.0133  0.0895
 3841TIP3   OH233013   1.895   4.995   1.822  0.1063  0.0200 -0.3647
 3841TIP3    H133014   1.977   5.008   1.869 -0.9661 -0.4829  1.7076
 3841TIP3    H233015   1.829   4.981   1.891 -2.3190  3.6257 -1.8291
 3842TIP3   OH233016   2.555   4.870   5.321  0.2507  0.0487  0.2024
 3842TIP3    H133017   2.466   4.889   5.292  0.3853 -0.8682 -0.8129
 3842TIP3    H233018   2.601   4.953   5.309 -0.4415  0.5056  0.6541
 3843TIP3   OH233019   2.855   0.640  17.010  0.6516 -0.1283 -0.0733
 3843TIP3    H133020   2.801   0.719  17.010  0.3219 -0.3548 -0.3898
 3843TIP3    H233021   2.883   0.630  16.919  1.4723  0.1577  0.1486
 3844TIP3   OH233022   4.709   4.890   1.413 -0.1381  0.5606  0.2208
 3844TIP3    H133023   4.788   4.882   1.360 -2.0702  0.9096 -2.8060
 3844TIP3    H233024   4.665   4.806   1.404  0.0663  0.2063  2.2718
 3845TIP3   OH233025   1.773   3.281   5.759  0.0236 -0.2341 -0.0481
 3845TIP3    H133026   1.835   3.341   5.800 -0.3463  0.4205 -0.4530
 3845TIP3    H233027   1.752   3.321   5.675  1.5020 -2.0104 -1.3349
 3846TIP3   OH233028   1.301   2.743  16.110 -0.0104 -0.2334  0.0979
 3846TIP3    H133029   1.259   2.827  16.130  1.2164  0.5104 -0.3257
 3846TIP3    H233030   1.392   2.766  16.092  0.0859 -1.5056 -1.2113
 3847TIP3   OH233031   1.290   2.514   5.355  0.1669 -0.2265 -0.1581
 3847TIP3    H133032   1.250   2.584   5.406 -0.4950 -0.0242 -0.9499
 3847TIP3    H233033   1.358   2.478   5.413 -0.2239  0.3402  0.6585
 3848TIP3   OH233034   3.064   3.256   5.933  0.2617  0.6027 -0.6472
 3848TIP3    H133035   3.074   3.162   5.946 -2.2941  0.0643 -2.3123
 3848TIP3    H233036   3.090   3.294   6.017  0.2466 -1.6577  0.4312
 3849TIP3   OH233037   0.832   6.435  11.899  0.0910  0.2034 -0.1325
 3849TIP3    H133038   0.784   6.353  11.884  1.3062  0.1787 -4.8866
 3849TIP3    H233039   0.767   6.503  11.880 -0.4414  0.3622  2.1415
 3850TIP3   OH233040   1.573   4.109  13.244  0.4053  0.3385  0.1022
 3850TIP3    H133041   1.664   4.125  13.266  1.1111 -1.3828 -1.4776
 3850TIP3    H233042   1.537   4.063  13.320  0.7524  1.2296  0.8260
 3851TIP3   OH233043   3.638   3.108   4.195 -0.5715 -0.4342  0.1955
 3851TIP3    H133044   3.570   3.175   4.203 -0.7256 -0.4931 -0.5189
 3851TIP3    H233045   3.708   3.151   4.144 -0.7288 -0.8530 -0.3780
 3852TIP3   OH233046   2.017   1.654  12.872 -0.3724 -0.3687 -0.5516
 3852TIP3    H133047   1.998   1.674  12.780 -0.7547  0.9031 -0.2172
 3852TIP3    H233048   1.934   1.673  12.917  0.4674  1.1884  0.3604
 3853TIP3   OH233049   3.460   1.450   2.727  0.5775 -0.0511 -0.2921
 3853TIP3    H133050   3.448   1.427   2.634  1.7794 -1.4416 -0.1288
 3853TIP3    H233051   3.492   1.540   2.725  1.9725 -0.5469 -1.3173
 3854TIP3   OH233052   3.829   5.787  10.770 -0.0158  0.3443 -0.0472
 3854TIP3    H133053   3.801   5.761  10.682  2.3314  1.2625 -1.1238
 3854TIP3    H233054   3.830   5.883  10.767  1.9166  0.3643  0.3404
 3855TIP3   OH233055   2.288   2.668   0.877  0.3469  0.0539 -0.5608
 3855TIP3    H133056   2.249   2.583   0.858 -1.0586  0.2693  1.2379
 3855TIP3    H233057   2.382   2.654   0.866  0.0905 -1.6253 -0.7267
 3856TIP3   OH233058   0.506   3.059   2.983 -0.5050  0.3249  0.1004
 3856TIP3    H133059   0.478   3.108   3.061  0.3389 -0.4539  0.9049
 3856TIP3    H233060   0.425   3.020   2.949 -0.9939  1.2698  0.1469
 3857TIP3   OH233061   1.907   4.774  16.627  0.1013  0.2402 -0.6106
 3857TIP3    H133062   1.917   4.834  16.701  1.2790 -0.0593 -0.5122
 3857TIP3    H233063   1.813   4.759  16.621 -0.0256  0.3945  0.7277
 3858TIP3   OH233064   5.639   0.326   5.316  0.0444 -0.9278  0.2064
 3858TIP3    H133065   5.635   0.358   5.226 -3.3001  0.6062  0.7863
 3858TIP3    H233066   5.581   0.250   5.317  0.2752 -1.0952  0.9890
 3859TIP3   OH233067   5.892   2.680  15.006 -0.1895 -0.4206  0.1892
 3859TIP3    H133068   5.963   2.742  15.024 -1.3793  0.6549  1.3297
 3859TIP3    H233069   5.815   2.735  14.996 -0.2034 -1.1468 -5.5562
 3860TIP3   OH233070   0.722   2.818   5.249 -0.1214  0.0863 -0.3882
 3860TIP3    H133071   0.729   2.897   5.195 -0.2457 -0.4582 -1.2104
 3860TIP3    H233072   0.753   2.845   5.336 -1.0548  1.2805 -0.4177
 3861TIP3   OH233073   1.101   1.017  12.089 -0.4505  0.3985 -0.3757
 3861TIP3    H133074   1.039   0.944  12.082 -0.2178  0.1414  0.2226
 3861TIP3    H233075   1.182   0.984  12.051  0.5351 -0.6795  2.5278
 3862TIP3   OH233076   2.120   1.708   2.338  0.1915  0.5177 -0.4391
 3862TIP3    H133077   2.187   1.751   2.286 -1.3927  0.2485 -2.8027
 3862TIP3    H233078   2.141   1.615   2.331  0.6322  0.5540  0.3651
 3863TIP3   OH233079   2.249   5.907  11.071 -0.4366 -0.2295  0.6299
 3863TIP3    H133080   2.185   5.937  11.006 -0.4751 -1.3109  0.1602
 3863TIP3    H233081   2.314   5.977  11.076 -1.2523  0.5331  0.5500
 3864TIP3   OH233082   1.406   6.103  11.776 -0.1060  0.3590  0.3264
 3864TIP3    H133083   1.365   6.019  11.756 -0.0804  0.6129 -0.8157
 3864TIP3    H233084   1.381   6.121  11.867 -1.4548 -0.1071  0.0596
 3865TIP3   OH233085   2.534   6.299  14.987  0.2923  0.0908  0.5893
 3865TIP3    H133086   2.533   6.330  14.896 -0.8718 -0.5257  0.3844
 3865TIP3    H233087   2.442   6.299  15.013  0.7644  2.3363  2.4840
 3866TIP3   OH233088   4.521   4.413   0.465  0.1374 -0.2409  0.5059
 3866TIP3    H133089   4.565   4.433   0.382  1.2510 -1.0766  0.8947
 3866TIP3    H233090   4.580   4.446   0.532 -0.2524 -0.5478  0.9997
 3867TIP3   OH233091   1.298   0.886   1.930  0.0469 -0.1375  0.1545
 3867TIP3    H133092   1.233   0.866   1.997 -0.6287 -0.1286 -0.4934
 3867TIP3    H233093   1.305   0.807   1.878  0.2617  0.0000 -0.0278
 3868TIP3   OH233094   4.938   5.912  13.408 -0.2071 -0.0984 -0.0303
 3868TIP3    H133095   4.994   5.917  13.486 -1.0622 -0.2197  0.5977
 3868TIP3    H233096   4.991   5.865  13.344  0.7590  0.5791  0.2524
 3869TIP3   OH233097   5.919   5.992   0.848  0.3960 -0.0141 -0.1962
 3869TIP3    H133098   5.922   6.088   0.845 -0.9525  0.1053  1.2245
 3869TIP3    H233099   5.839   5.969   0.800  0.8290 -0.4430 -0.7144
 3870TIP3   OH233100   2.788   6.080   3.440  0.1602 -0.7727 -0.0524
 3870TIP3    H133101   2.856   6.023   3.406  1.8042  0.4733  1.0467
 3870TIP3    H233102   2.829   6.166   3.446 -1.6299  0.0955  0.2822
 3871TIP3   OH233103   3.532   0.865  15.138  0.2827  0.0758  0.5891
 3871TIP3    H133104   3.565   0.778  15.160 -0.6428 -0.4227  0.0505
 3871TIP3    H233105   3.610   0.919  15.129  0.8682 -0.7086  0.8832
 3872TIP3   OH233106   1.489   2.610   0.067  0.3080  0.0663  0.2628
 3872TIP3    H133107   1.442   2.686   0.034 -0.9537 -1.2306 -0.9754
 3872TIP3    H233108   1.439   2.583   0.144 -0.2211 -0.5114 -0.2785
 3873TIP3   OH233109   0.490   2.229  14.379  0.4756 -0.2718  0.0400
 3873TIP3    H133110   0.493   2.189  14.292  0.5678  2.2340 -1.1558
 3873TIP3    H233111   0.411   2.283  14.377  2.0071  2.0711  0.4525
 3874TIP3   OH233112   2.301   5.584   4.651  0.3019  0.1029 -0.2477
 3874TIP3    H133113   2.361   5.515   4.622  1.1941  0.9746 -0.5018
 3874TIP3    H233114   2.303   5.580   4.747  0.8900  0.2356 -0.2551
 3875TIP3   OH233115   2.512   0.287  11.080  0.1791  0.1765  0.0941
 3875TIP3    H133116   2.562   0.301  11.161 -0.8424  0.3350  0.7024
 3875TIP3    H233117   2.537   0.200  11.051 -0.1238 -0.2334  1.0563
 3876TIP3   OH233118   6.457   3.765   5.823 -0.0057 -0.0668  0.2568
 3876TIP3    H133119   6.473   3.739   5.914  0.8762 -0.7028 -0.0712
 3876TIP3    H233120   6.523   3.831   5.804 -0.7116  0.6687  0.3268
 3877TIP3   OH233121   5.947   5.045  13.753 -0.2402  0.1244  0.8055
 3877TIP3    H133122   5.978   4.955  13.761 -0.8128 -0.2056 -0.5108
 3877TIP3    H233123   6.019   5.098  13.785  0.3378 -0.7794  1.0302
 3878TIP3   OH233124   0.313   3.123   3.568  0.1561 -0.2624 -0.1778
 3878TIP3    H133125   0.328   3.046   3.512  0.3552  0.0690 -0.5796
 3878TIP3    H233126   0.220   3.142   3.557 -0.9991 -3.1455  3.3630
 3879TIP3   OH233127   2.541   2.275  16.247 -0.5376  0.2042 -0.6135
 3879TIP3    H133128   2.525   2.364  16.279 -0.9970  0.1131 -0.5936
 3879TIP3    H233129   2.481   2.220  16.298  0.3872 -0.2295  0.0228
 3880TIP3   OH233130   4.783   4.126  12.906 -0.5474 -0.7780 -0.1233
 3880TIP3    H133131   4.702   4.116  12.856  0.3807  0.6925 -1.9493
 3880TIP3    H233132   4.852   4.115  12.841  0.6757  1.1527  0.8224
 3881TIP3   OH233133   1.745   6.069   2.148 -0.1212 -0.3958  0.3020
 3881TIP3    H133134   1.796   5.998   2.108  0.4772  0.0703  0.2400
 3881TIP3    H233135   1.790   6.087   2.231  0.1992  0.4703 -0.0648
 3882TIP3   OH233136   6.504   1.480  16.275 -0.0478 -0.2815  0.6402
 3882TIP3    H133137   6.552   1.521  16.347  1.1569 -2.9141  1.4190
 3882TIP3    H233138   6.529   1.530  16.198  2.8004 -0.6263  1.2711
 3883TIP3   OH233139   3.630   5.992  16.068 -0.3273  0.5607 -0.1486
 3883TIP3    H133140   3.599   5.908  16.100  0.4947  1.3210  2.7377
 3883TIP3    H233141   3.550   6.041  16.048 -0.8600  0.1745  1.0074
 3884TIP3   OH233142   3.404   3.790  12.721  0.1791 -0.7333  0.5232
 3884TIP3    H133143   3.340   3.749  12.663 -0.2117  0.1488  0.3300
 3884TIP3    H233144   3.356   3.861  12.764  0.6826 -0.8641  1.3255
 3885TIP3   OH233145   2.071   4.718  12.740 -0.0473 -0.8979 -0.1312
 3885TIP3    H133146   2.016   4.795  12.748  1.1189 -0.0463 -0.2200
 3885TIP3    H233147   2.084   4.688  12.831  1.0024  0.0926  0.0581
 3886TIP3   OH233148   0.720   2.769  16.244  0.3217  0.2036 -0.0139
 3886TIP3    H133149   0.796   2.750  16.299  2.7747 -0.2589 -3.3765
 3886TIP3    H233150   0.747   2.844  16.191 -2.0728  0.8314 -0.4275
 3887TIP3   OH233151   1.613   0.528   5.698  0.0460  0.1159  0.3511
 3887TIP3    H133152   1.545   0.460   5.702  2.1256 -1.9760  1.4001
 3887TIP3    H233153   1.646   0.534   5.788  2.9479 -0.7002 -0.6168
 3888TIP3   OH233154   4.093   2.898   3.605 -0.5894  0.3166 -0.6274
 3888TIP3    H133155   4.039   2.839   3.552 -0.3344 -0.9826  0.5130
 3888TIP3    H233156   4.173   2.911   3.554 -0.2280 -1.1463 -0.4571
 3889TIP3   OH233157   5.185   4.157  11.406  1.0870  0.9679  0.0217
 3889TIP3    H133158   5.103   4.152  11.357  0.8423 -1.9143  0.5971
 3889TIP3    H233159   5.243   4.095  11.362  1.9543  0.7836  1.3687
 3890TIP3   OH233160   0.706   3.752   1.176  0.2683 -0.2874 -0.0539
 3890TIP3    H133161   0.789   3.742   1.130  0.6375  0.3387  0.4737
 3890TIP3    H233162   0.640   3.751   1.107  0.6546 -1.5078 -0.4146
 3891TIP3   OH233163   6.621   1.455  15.211  0.0177  0.9210  0.1391
 3891TIP3    H133164   6.714   1.460  15.233 -0.2840 -0.7750  1.9958
 3891TIP3    H233165   6.583   1.399  15.280 -1.9676 -0.1919 -1.7869
 3892TIP3   OH233166   1.884   3.621   2.024 -0.1554 -0.4723  0.5590
 3892TIP3    H133167   1.842   3.684   1.965 -0.0244 -1.5962 -0.7582
 3892TIP3    H233168   1.926   3.675   2.091 -0.8360  0.8024 -0.0270
 3893TIP3   OH233169   0.719   3.195  11.135  0.0247  0.1411  0.1623
 3893TIP3    H133170   0.648   3.149  11.089 -0.7791  1.7303 -0.2048
 3893TIP3    H233171   0.691   3.286  11.137 -0.6362 -0.0317  5.0376
 3894TIP3   OH233172   0.716   2.559  14.861  0.6629 -0.3768  0.2913
 3894TIP3    H133173   0.737   2.595  14.775  1.7714 -1.3218  0.1577
 3894TIP3    H233174   0.707   2.465  14.847  3.4981 -0.9163  1.6493
 3895TIP3   OH233175   1.966   3.497  10.868  0.1303 -0.8182 -0.0798
 3895TIP3    H133176   1.930   3.410  10.853 -1.3983 -0.1040 -0.6162
 3895TIP3    H233177   1.890   3.553  10.881  1.0361  0.7882 -1.5809
 3896TIP3   OH233178   5.375   5.384  16.920 -0.0620  0.5129 -0.2449
 3896TIP3    H133179   5.384   5.391  17.015  1.7678  2.1699 -0.4984
 3896TIP3    H233180   5.445   5.439  16.885 -0.6138 -0.1822 -2.5668
 3897TIP3   OH233181   6.523   5.922   1.027 -0.9009 -0.0736 -0.0551
 3897TIP3    H133182   6.557   5.994   1.081 -2.9979  0.0953  1.0722
 3897TIP3    H233183   6.545   5.843   1.077  0.0257 -0.1481 -0.5531
 3898TIP3   OH233184   4.800   0.433   6.245  0.2565  0.0984 -0.3451
 3898TIP3    H133185   4.737   0.403   6.310 -0.3464 -0.1105 -1.0163
 3898TIP3    H233186   4.757   0.507   6.202  0.0395 -0.6718 -1.4849
 3899TIP3   OH233187   4.844   2.193   2.807  0.1576  0.2691 -0.2621
 3899TIP3    H133188   4.870   2.108   2.843  1.5943  0.7839 -0.0387
 3899TIP3    H233189   4.800   2.172   2.725 -0.2476 -0.7336  0.2060
 3900TIP3   OH233190   5.397   3.877  13.140 -0.2389 -0.5018  0.0490
 3900TIP3    H133191   5.342   3.907  13.213  1.4297 -0.2700  1.2669
 3900TIP3    H233192   5.439   3.798  13.173  1.3652  0.2099 -0.2516
 3901TIP3   OH233193   2.646   1.064   4.748 -0.0362  0.3260 -0.6678
 3901TIP3    H133194   2.643   1.014   4.829 -1.7587  1.9532  0.3340
 3901TIP3    H233195   2.729   1.112   4.752  1.2091 -1.7497 -1.2345
 3902TIP3   OH233196   6.518   2.970  12.955 -0.5242  0.2723  0.0988
 3902TIP3    H133197   6.591   2.973  12.893 -1.2436  0.7118 -0.7399
 3902TIP3    H233198   6.456   2.908  12.916 -0.0864 -1.0326  1.3969
 3903TIP3   OH233199   3.328   4.727   5.692 -0.2655 -0.2033 -0.5470
 3903TIP3    H133200   3.304   4.819   5.679  0.8247  0.1094 -0.3636
 3903TIP3    H233201   3.265   4.695   5.757  0.1763  0.7688  0.3631
 3904TIP3   OH233202   0.050   5.122   2.228  0.1987  0.2302 -0.2121
 3904TIP3    H133203   0.130   5.137   2.178  0.2837 -2.2278 -0.8774
 3904TIP3    H233204  -0.019   5.162   2.175  0.3343 -2.0508 -2.1951
 3905TIP3   OH233205   4.076   6.285   4.934  0.3938  0.4708 -0.3687
 3905TIP3    H133206   4.005   6.316   4.991  1.3252  0.2911  0.9055
 3905TIP3    H233207   4.132   6.233   4.992  1.6247  0.6957 -1.3481
 3906TIP3   OH233208   5.772   0.501  14.244 -0.5073  0.0105  0.1794
 3906TIP3    H133209   5.765   0.436  14.314  1.0310 -0.1352  0.2259
 3906TIP3    H233210   5.836   0.564  14.277  0.2749 -0.0890 -1.1136
 3907TIP3   OH233211   1.095   0.864  11.167  0.2246 -0.4819 -0.0745
 3907TIP3    H133212   1.001   0.875  11.179  0.4307  1.0903  0.3080
 3907TIP3    H233213   1.133   0.906  11.244  1.2688 -0.0156 -0.8358
 3908TIP3   OH233214   0.643   4.714  14.444 -0.5569 -0.2660 -0.5834
 3908TIP3    H133215   0.621   4.723  14.352 -2.0234  0.0353 -0.2140
 3908TIP3    H233216   0.611   4.627  14.468 -2.0311  0.4609  0.1368
 3909TIP3   OH233217   0.181   4.058   4.939 -0.0116 -0.3540  0.7278
 3909TIP3    H133218   0.216   4.138   4.899 -0.2812 -0.4782  0.2401
 3909TIP3    H233219   0.095   4.084   4.973 -1.4281 -1.1597 -2.0755
 3910TIP3   OH233220   1.929   3.076  13.188  0.0950 -0.1754  0.4539
 3910TIP3    H133221   1.932   3.170  13.169 -0.8223 -0.1663  0.3321
 3910TIP3    H233222   1.891   3.070  13.276 -1.1818 -0.4833 -0.1014
 3911TIP3   OH233223   5.888   2.693  16.077 -0.8370 -0.4571 -0.7375
 3911TIP3    H133224   5.935   2.771  16.106 -2.9194  0.7303 -0.4458
 3911TIP3    H233225   5.888   2.635  16.154 -0.3515 -0.2379 -0.5686
 3912TIP3   OH233226   1.552   4.468   2.848  0.5685  0.1910 -0.2706
 3912TIP3    H133227   1.522   4.489   2.760 -0.3752 -0.0844 -0.0141
 3912TIP3    H233228   1.641   4.436   2.836  0.9894  1.5542 -0.9728
 3913TIP3   OH233229   5.364   0.650   1.398  0.5484 -0.4076 -0.0899
 3913TIP3    H133230   5.382   0.674   1.307 -1.9341 -1.6613 -0.9432
 3913TIP3    H233231   5.439   0.597   1.424  0.7076 -1.0492 -1.8104
 3914TIP3   OH233232   2.949   5.204   2.455 -0.3911  0.0835 -0.5083
 3914TIP3    H133233   2.898   5.254   2.392 -3.7453 -0.7430  1.4076
 3914TIP3    H233234   2.935   5.248   2.539 -1.2059 -2.4067  0.7387
 3915TIP3   OH233235   1.737   4.865  15.063 -0.4624  0.1618  0.3984
 3915TIP3    H133236   1.695   4.815  15.133 -0.9813  0.4464  0.2898
 3915TIP3    H233237   1.823   4.823  15.052  0.2249  1.0300  2.2291
 3916TIP3   OH233238   2.322   2.448   1.837  0.1507 -0.2584  0.4782
 3916TIP3    H133239   2.374   2.528   1.850 -0.0104  0.3209 -2.2743
 3916TIP3    H233240   2.363   2.403   1.764  0.0172 -2.5788  1.7669
 3917TIP3   OH233241   1.374   6.465   3.736 -0.4626 -0.0432  0.2614
 3917TIP3    H133242   1.451   6.433   3.690  0.5103  1.1701  1.0293
 3917TIP3    H233243   1.383   6.432   3.825 -3.0966 -3.6578 -0.6755
 3918TIP3   OH233244   4.904   6.597  17.071 -0.1987  0.5983  0.4830
 3918TIP3    H133245   4.970   6.587  17.140 -0.9926 -2.4456  0.8396
 3918TIP3    H233246   4.834   6.647  17.112 -0.1700 -0.2156  1.5395
 3919TIP3   OH233247   3.107   0.163   3.452  0.3642  0.0494  0.1321
 3919TIP3    H133248   3.050   0.115   3.392 -1.1861  2.3296 -0.2915
 3919TIP3    H233249   3.163   0.215   3.394  3.1891 -2.4149  0.5273
 3920TIP3   OH233250   1.038   3.268   4.439  0.7364 -0.1054 -0.0835
 3920TIP3    H133251   1.126   3.238   4.463  0.3739 -0.8990  0.2804
 3920TIP3    H233252   1.000   3.195   4.390 -0.1577 -0.2579  0.8081
 3921TIP3   OH233253   5.571   2.180  12.441 -0.1109  0.3238 -0.0253
 3921TIP3    H133254   5.539   2.232  12.368 -0.1736  1.9576  1.1297
 3921TIP3    H233255   5.644   2.231  12.477  0.6105 -0.9681  0.4144
 3922TIP3   OH233256   5.578   5.351   0.315  0.3313 -0.8238 -0.4376
 3922TIP3    H133257   5.504   5.383   0.263 -0.2310 -1.8283 -0.2680
 3922TIP3    H233258   5.620   5.430   0.348 -2.1328 -0.2459  1.4906
 3923TIP3   OH233259   1.903   2.111   5.634 -0.4687 -0.2810  0.6266
 3923TIP3    H133260   1.956   2.033   5.623  0.0984  0.1032  0.6341
 3923TIP3    H233261   1.869   2.129   5.546  0.7433  0.4153  0.2869
 3924TIP3   OH233262   3.313   6.310   1.275 -0.2475 -0.0277  0.1480
 3924TIP3    H133263   3.305   6.404   1.292  0.4504  0.0465  0.0776
 3924TIP3    H233264   3.301   6.302   1.180 -0.2670 -0.0074  0.1487
 3925TIP3   OH233265   2.093   2.161   1.086 -0.4795 -0.1393  0.0066
 3925TIP3    H133266   2.165   2.223   1.097  0.3968 -1.0370 -0.5648
 3925TIP3    H233267   2.020   2.200   1.134  0.5497  0.5065  1.0825
 3926TIP3   OH233268   6.154   1.987  13.790 -0.4402  0.4200 -0.1475
 3926TIP3    H133269   6.101   1.908  13.793 -1.0876  0.8929  0.8649
 3926TIP3    H233270   6.095   2.055  13.758 -0.2526  0.7916  0.2866
 3927TIP3   OH233271   6.622   5.436  13.114  0.0745 -0.1352  0.4018
 3927TIP3    H133272   6.711   5.469  13.129  0.9102 -0.8230 -2.6350
 3927TIP3    H233273   6.588   5.489  13.043 -0.1165 -2.9678 -1.7026
 3928TIP3   OH233274   0.669   2.605  16.749  0.5258 -0.6295 -0.6348
 3928TIP3    H133275   0.716   2.624  16.668 -1.5541  1.6813 -1.3649
 3928TIP3    H233276   0.577   2.618  16.727 -0.1044 -0.3241  2.0082
 3929TIP3   OH233277   2.664   3.021   3.353 -0.7258 -0.4343 -1.0146
 3929TIP3    H133278   2.676   2.927   3.335  0.4491 -0.3682 -0.6079
 3929TIP3    H233279   2.735   3.043   3.413 -0.6551  0.8517 -1.5657
 3930TIP3   OH233280   1.433   5.465  15.078  0.2470 -0.2480  0.0114
 3930TIP3    H133281   1.478   5.451  14.994  1.1464 -1.4587  0.6841
 3930TIP3    H233282   1.449   5.557  15.098  2.6499 -0.6896  0.3312
 3931TIP3   OH233283   0.397   2.470   0.210 -0.1624 -0.5195 -0.3514
 3931TIP3    H133284   0.397   2.413   0.133  0.2002 -1.3841  0.2767
 3931TIP3    H233285   0.465   2.434   0.267  0.4167  0.8491 -0.1553
 3932TIP3   OH233286   6.773   3.491   4.841  0.4048 -0.0212  0.2854
 3932TIP3    H133287   6.742   3.444   4.764  0.5152 -0.0150  0.2357
 3932TIP3    H233288   6.747   3.437   4.915  1.7274 -0.8512  0.1608
 3933TIP3   OH233289   1.240   2.419  13.922  0.0338 -0.3258  0.1334
 3933TIP3    H133290   1.313   2.396  13.979 -0.3487 -0.3159  0.6292
 3933TIP3    H233291   1.175   2.350  13.936 -1.6323  1.6337  2.5551
 3934TIP3   OH233292   2.352   3.206  15.652  0.7203  0.4704 -0.2955
 3934TIP3    H133293   2.314   3.290  15.679  1.4875  1.2090 -1.4828
 3934TIP3    H233294   2.441   3.228  15.625  1.3063 -0.9100  0.4439
 3935TIP3   OH233295   6.604   1.476  12.073  0.0611  0.3134  0.5050
 3935TIP3    H133296   6.556   1.456  11.993  2.1444 -0.1634 -0.6620
 3935TIP3    H233297   6.621   1.570  12.068  0.3403  0.2530  0.2930
 3936TIP3   OH233298   3.018   4.620  16.182  0.6314 -0.0216 -0.1657
 3936TIP3    H133299   3.058   4.534  16.189  0.4699 -0.0471  0.5864
 3936TIP3    H233300   3.054   4.658  16.102  1.0279 -0.6188 -0.2692
 3937TIP3   OH233301   3.770   2.445   2.753  0.0717 -0.0622 -0.5164
 3937TIP3    H133302   3.772   2.426   2.847  0.6342  2.6938  0.0505
 3937TIP3    H233303   3.861   2.463   2.730 -0.0417 -0.8707 -1.6403
 3938TIP3   OH233304   4.001   4.979  13.916  0.1036  0.3464  0.1942
 3938TIP3    H133305   3.997   5.075  13.914 -1.2575  0.3257  1.4960
 3938TIP3    H233306   3.915   4.951  13.885 -0.5123 -0.4239  2.5351
 3939TIP3   OH233307   1.025   5.182   3.992  0.2937 -0.0477  0.7987
 3939TIP3    H133308   1.061   5.218   4.073 -0.0901  1.8167  0.1776
 3939TIP3    H233309   0.941   5.228   3.981  0.3288 -0.3050 -0.6380
 3940TIP3   OH233310   4.402   0.454  10.891  0.0537  0.1772  0.6950
 3940TIP3    H133311   4.387   0.493  10.805 -0.4540 -0.9382  0.2631
 3940TIP3    H233312   4.497   0.457  10.902  0.1311  0.2305  0.0502
 3941TIP3   OH233313   1.321   2.556   5.987  0.4964  0.8330 -0.1790
 3941TIP3    H133314   1.311   2.482   6.047  0.0933  0.4431 -0.7258
 3941TIP3    H233315   1.269   2.532   5.910  2.4864  0.5040 -1.4628
 3942TIP3   OH233316   1.008   0.841   2.635 -0.3186 -0.1885  0.9268
 3942TIP3    H133317   0.938   0.869   2.694 -0.1381 -0.2830  1.1867
 3942TIP3    H233318   1.089   0.870   2.678 -0.3304  2.6230 -0.8077
 3943TIP3   OH233319   0.122   2.382   6.649 -0.0985 -0.3738  0.3409
 3943TIP3    H133320   0.057   2.368   6.580 -0.2546 -0.4348  0.5000
 3943TIP3    H233321   0.206   2.379   6.604 -0.2054 -0.3118  0.1361
 3944TIP3   OH233322   3.997   2.137  12.609  0.6344  0.0466  0.0192
 3944TIP3    H133323   3.935   2.106  12.674 -0.5767 -1.3523 -1.7466
 3944TIP3    H233324   3.943   2.189  12.548  1.6282  0.8359 -0.1998
 3945TIP3   OH233325   4.988   2.926   5.015  0.3514  0.6281  0.2149
 3945TIP3    H133326   4.978   2.894   5.105 -1.4602  1.1792  0.2272
 3945TIP3    H233327   4.940   3.009   5.013 -0.5924  0.0834 -1.5359
 3946TIP3   OH233328   1.218   0.092   5.955  0.6322 -0.2151 -0.2129
 3946TIP3    H133329   1.127   0.080   5.979 -0.0529  0.4820 -2.3288
 3946TIP3    H233330   1.267   0.046   6.023 -1.2393  0.1493  1.4232
 3947TIP3   OH233331   4.025   0.739  13.480  0.3418 -0.1505 -0.2031
 3947TIP3    H133332   4.038   0.644  13.476 -1.2669 -0.4920  1.7589
 3947TIP3    H233333   3.933   0.749  13.507  0.5056  1.9588 -0.3708
 3948TIP3   OH233334   5.143   6.486   5.594  0.1015 -0.0830  0.8867
 3948TIP3    H133335   5.192   6.482   5.676  0.7318  2.3788  0.6633
 3948TIP3    H233336   5.201   6.531   5.533 -1.4199  0.5666 -0.1238
 3949TIP3   OH233337   6.781   4.427   5.509  0.0204 -0.0681  0.4362
 3949TIP3    H133338   6.827   4.492   5.561 -0.6238  0.5086  0.2976
 3949TIP3    H233339   6.787   4.346   5.560  1.7987 -0.1821  0.0807
 3950TIP3   OH233340   6.308   6.202  14.205  0.5894 -0.1585  0.3246
 3950TIP3    H133341   6.364   6.268  14.163 -2.0494  0.2722 -2.7732
 3950TIP3    H233342   6.352   6.119  14.188  0.4045  0.1800 -2.0339
 3951TIP3   OH233343   1.147   5.533   0.576  0.5512 -0.2554 -0.3183
 3951TIP3    H133344   1.199   5.613   0.583 -1.9468  1.5359 -1.6040
 3951TIP3    H233345   1.197   5.468   0.625  3.4682  1.6449 -0.6527
 3952TIP3   OH233346   1.173   2.629   2.585 -0.4958  0.1132 -0.0934
 3952TIP3    H133347   1.125   2.618   2.503 -1.0888  0.9428  0.1400
 3952TIP3    H233348   1.113   2.676   2.642  0.0510 -0.1398  0.7019
 3953TIP3   OH233349   1.666   6.614   2.007 -0.4454 -0.1973 -0.5747
 3953TIP3    H133350   1.756   6.647   2.017 -0.6633  1.3242 -3.1139
 3953TIP3    H233351   1.677   6.528   1.965 -0.1682  0.1352 -1.1946
 3954TIP3   OH233352   5.807   6.672   5.155  0.1651 -0.3465 -0.2848
 3954TIP3    H133353   5.826   6.579   5.144  0.5553 -0.4310  0.9446
 3954TIP3    H233354   5.873   6.717   5.102  1.0442 -0.7378  0.4602
 3955TIP3   OH233355   0.426   1.825   3.421 -0.0790 -0.3353 -0.6028
 3955TIP3    H133356   0.359   1.893   3.428 -0.6345 -0.8947 -0.4241
 3955TIP3    H233357   0.469   1.824   3.506  2.2222  2.1122 -1.6590
 3956TIP3   OH233358   1.371   2.476  14.296 -0.3578 -0.2809  0.4866
 3956TIP3    H133359   1.314   2.420  14.243  0.3026 -0.7311  0.2464
 3956TIP3    H233360   1.314   2.510  14.365 -1.2671  0.4406 -0.6021
 3957TIP3   OH233361   4.772   3.324  10.974 -0.3221  0.1593 -0.0413
 3957TIP3    H133362   4.856   3.367  10.990 -0.2087 -0.6425  1.6759
 3957TIP3    H233363   4.788   3.268  10.898  0.3511  0.9427 -0.4826
 3958TIP3   OH233364   2.380   4.023  13.210 -0.3857  0.0636  0.1464
 3958TIP3    H133365   2.426   3.962  13.267 -2.3221  0.1331  1.8582
 3958TIP3    H233366   2.374   4.104  13.261 -1.8629  0.2379 -0.2809
 3959TIP3   OH233367   1.062   6.462   2.954  0.0146  0.6580 -0.3381
 3959TIP3    H133368   0.987   6.482   3.010  0.1121 -1.1384  0.4647
 3959TIP3    H233369   1.139   6.489   3.005  0.1537 -1.7886  0.7989
 3960TIP3   OH233370   4.866   2.795   3.315  0.1220  0.2364  0.0699
 3960TIP3    H133371   4.829   2.710   3.292 -2.8471  0.9810  1.8768
 3960TIP3    H233372   4.931   2.776   3.382  0.1841 -0.6930 -0.2487
 3961TIP3   OH233373   3.138   4.635   5.392  0.0479  0.2311 -0.4145
 3961TIP3    H133374   3.084   4.671   5.463 -1.1447  1.0652 -1.7166
 3961TIP3    H233375   3.194   4.708   5.366 -0.5040  0.3502 -1.2714
 3962TIP3   OH233376   3.782   2.241   4.613  0.2556 -0.5573 -0.1074
 3962TIP3    H133377   3.830   2.162   4.638 -2.2910 -2.2453 -0.3739
 3962TIP3    H233378   3.701   2.208   4.574 -0.6674  2.2052 -0.6032
 3963TIP3   OH233379   3.789   1.282  12.238  0.1933  0.1793 -0.3914
 3963TIP3    H133380   3.821   1.363  12.276  0.2027 -0.0597  0.1151
 3963TIP3    H233381   3.721   1.309  12.176  0.0009  0.5503 -0.0170
 3964TIP3   OH233382   0.884   2.288   1.197 -0.1623 -0.1256 -0.1792
 3964TIP3    H133383   0.846   2.330   1.120  0.5456  0.8222 -0.0189
 3964TIP3    H233384   0.808   2.261   1.249 -0.6349 -0.4918 -1.0501
 3965TIP3   OH233385   3.311   1.661  13.001  0.0965 -0.5049 -0.5177
 3965TIP3    H133386   3.391   1.706  12.975  1.2084 -1.4880  1.0979
 3965TIP3    H233387   3.337   1.570  13.012 -1.0365 -0.6859  0.8640
 3966TIP3   OH233388   0.445   2.918   0.596  0.0046  0.0329  0.0925
 3966TIP3    H133389   0.360   2.954   0.572 -0.3891 -1.1395 -0.3231
 3966TIP3    H233390   0.455   2.841   0.540  2.1879  1.2197 -1.2182
 3967TIP3   OH233391   4.151   5.769   6.621 -0.5974  0.1491 -0.2146
 3967TIP3    H133392   4.208   5.777   6.544  0.5101 -2.0225  0.3347
 3967TIP3    H233393   4.179   5.840   6.679  0.1526  0.3524 -0.8157
 3968TIP3   OH233394   1.778   2.322   1.128  0.3976 -0.6532  0.2285
 3968TIP3    H133395   1.742   2.405   1.158 -1.3936 -2.4690  3.4477
 3968TIP3    H233396   1.862   2.314   1.174 -0.1931 -1.3310  1.2124
 3969TIP3   OH233397   5.783   4.402   1.683  0.4272 -0.2453  0.3786
 3969TIP3    H133398   5.731   4.482   1.681  1.3683  0.3536 -0.8282
 3969TIP3    H233399   5.727   4.336   1.643 -1.0052 -0.6206  2.8892
 3970TIP3   OH233400   2.312   4.309  14.108 -0.7819 -0.6964 -0.3769
 3970TIP3    H133401   2.218   4.303  14.126 -0.9137 -2.1743 -1.4768
 3970TIP3    H233402   2.346   4.223  14.133  0.6452  0.5201  2.0018
 3971TIP3   OH233403   6.044   5.522  15.133  0.0222 -0.2727 -0.1686
 3971TIP3    H133404   6.087   5.601  15.102 -3.3675  0.5800 -2.9396
 3971TIP3    H233405   6.032   5.536  15.227 -0.0142  2.2332 -0.5306
 3972TIP3   OH233406   5.792   0.158  11.265 -0.1535 -0.1844 -0.0338
 3972TIP3    H133407   5.702   0.191  11.268 -0.5645 -1.1766 -1.0827
 3972TIP3    H233408   5.846   0.235  11.252 -1.0068  0.2167 -1.2184
 3973TIP3   OH233409   5.951   6.118   4.835  0.1300  0.0503  0.0595
 3973TIP3    H133410   5.921   6.169   4.760  0.6413 -1.9770 -1.5699
 3973TIP3    H233411   6.045   6.106   4.820 -0.0920 -1.8963  0.0522
 3974TIP3   OH233412   4.245   3.396  11.742  0.3087 -0.4819 -0.1995
 3974TIP3    H133413   4.240   3.477  11.692  3.3524  0.2139  0.4743
 3974TIP3    H233414   4.294   3.420  11.821 -3.7658 -1.6721  2.8909
 3975TIP3   OH233415   5.367   4.870   0.802  0.0671  0.7925  0.2643
 3975TIP3    H133416   5.310   4.835   0.734  2.5136 -0.6883 -1.1120
 3975TIP3    H233417   5.314   4.936   0.847 -1.9434  1.0757 -2.4207
 3976TIP3   OH233418   6.215   2.703  16.287 -0.2761  0.1768  0.3655
 3976TIP3    H133419   6.266   2.622  16.291  0.2547  0.2971 -2.8363
 3976TIP3    H233420   6.124   2.674  16.287 -0.1730 -0.2247  2.3693
 3977TIP3   OH233421   4.800   3.695  12.488 -0.1874  0.7651  0.1797
 3977TIP3    H133422   4.787   3.649  12.570 -0.2119  1.5270  0.6135
 3977TIP3    H233423   4.872   3.757  12.506  2.6441 -1.8805 -1.5466
 3978TIP3   OH233424   6.141   3.679  11.061  0.0061 -0.3227  0.0203
 3978TIP3    H133425   6.126   3.585  11.073  0.9672 -0.4377  0.4312
 3978TIP3    H233426   6.212   3.684  10.997 -1.0465  0.1683 -1.1247
 3979TIP3   OH233427   6.622   1.516  11.394 -0.1360 -0.1071  0.6610
 3979TIP3    H133428   6.558   1.517  11.322  1.1475  1.3307 -0.4965
 3979TIP3    H233429   6.578   1.469  11.465 -2.3372  0.5311 -0.2413
 3980TIP3   OH233430   5.366   1.258   3.124  0.1264 -0.3727  0.3685
 3980TIP3    H133431   5.325   1.231   3.207 -0.4717 -0.8607 -0.0789
 3980TIP3    H233432   5.426   1.186   3.104  0.1386 -0.3395  0.2881
 3981TIP3   OH233433   2.883   3.529   0.741 -0.6407  0.1662 -0.0882
 3981TIP3    H133434   2.804   3.476   0.753 -2.1383  1.9261 -1.9381
 3981TIP3    H233435   2.885   3.586   0.818 -0.7231 -0.3901  0.3352
 3982TIP3   OH233436   3.787   2.835  12.578  0.9852  0.4190  0.0572
 3982TIP3    H133437   3.713   2.792  12.536  0.7533  0.1548  0.7206
 3982TIP3    H233438   3.755   2.922  12.601  0.4807 -0.1228  1.4509
 3983TIP3   OH233439   5.860   4.115   5.516  0.1140  0.3314  0.1104
 3983TIP3    H133440   5.954   4.122   5.505  0.1448 -0.7868 -0.3965
 3983TIP3    H233441   5.848   4.091   5.608  0.2543  1.7213  0.4985
 3984TIP3   OH233442   4.674   2.085  16.851  0.2522  0.0044 -0.5374
 3984TIP3    H133443   4.618   2.013  16.880  1.2820 -0.7523 -0.4076
 3984TIP3    H233444   4.719   2.051  16.774 -0.6697  1.1674 -1.6067
 3985TIP3   OH233445   3.645   4.529  12.023 -0.0231  0.0006  0.1239
 3985TIP3    H133446   3.619   4.500  12.110 -0.5004 -0.4396 -0.1644
 3985TIP3    H233447   3.738   4.551  12.031  0.0662 -0.5666  0.6014
 3986TIP3   OH233448   4.434   6.765  12.924  0.3259  0.0740  0.3077
 3986TIP3    H133449   4.344   6.749  12.952  0.3004  0.1983  0.2939
 3986TIP3    H233450   4.476   6.679  12.929  0.7730  0.3725  2.3035
 3987TIP3   OH233451   4.299   1.301   2.820 -0.4483  0.1867 -0.3843
 3987TIP3    H133452   4.251   1.384   2.826  1.0805  1.1366 -0.8413
 3987TIP3    H233453   4.338   1.302   2.733  0.2114 -0.6572 -0.1070
 3988TIP3   OH233454   1.205   3.080  13.456 -0.2776  0.0732 -0.0232
 3988TIP3    H133455   1.175   3.170  13.440 -1.3967 -0.1653  0.6743
 3988TIP3    H233456   1.197   3.069  13.551 -0.4591 -0.8779 -0.1510
 3989TIP3   OH233457   6.340   0.950  13.623 -0.1316 -0.1104  0.2902
 3989TIP3    H133458   6.339   1.012  13.550  2.6410 -1.0400 -0.5536
 3989TIP3    H233459   6.415   0.977  13.676  0.2590 -1.8919  0.6639
 3990TIP3   OH233460   4.289   0.307   2.510 -0.1776 -0.4444  0.2649
 3990TIP3    H133461   4.266   0.236   2.450  0.5379 -0.0512 -0.4658
 3990TIP3    H233462   4.339   0.369   2.458 -1.3273  0.9186  0.7446
 3991TIP3   OH233463   1.901   2.841   1.693  0.1469  0.3773  0.1318
 3991TIP3    H133464   1.846   2.765   1.675 -1.0344  1.1266  0.5244
 3991TIP3    H233465   1.975   2.806   1.743  0.4073 -0.7478 -1.0081
 3992TIP3   OH233466   0.704   1.253  14.567 -0.0228 -0.3896 -0.2968
 3992TIP3    H133467   0.751   1.335  14.576  1.1273 -0.8659 -1.7659
 3992TIP3    H233468   0.744   1.195  14.632  0.8622 -0.5418 -0.9733
 3993TIP3   OH233469   1.920   3.948  16.632  0.0213 -0.4023 -0.2533
 3993TIP3    H133470   1.864   3.972  16.706  1.2129  1.2122  0.1590
 3993TIP3    H233471   2.009   3.959  16.665  0.5750 -1.7640 -1.2824
 3994TIP3   OH233472   4.763   3.785   3.495 -0.6595  0.2936  0.7800
 3994TIP3    H133473   4.842   3.807   3.544 -1.0164 -0.4147  1.6890
 3994TIP3    H233474   4.694   3.780   3.561 -1.2207 -0.2991  0.1583
 3995TIP3   OH233475   2.363   6.027  16.534  0.3080 -0.1804 -0.0501
 3995TIP3    H133476   2.444   6.024  16.585 -0.0978 -1.4230  0.5501
 3995TIP3    H233477   2.345   6.120  16.522  0.8124  0.1165  1.4325
 3996TIP3   OH233478   5.854   2.953   4.950  0.7214 -0.9599  0.0912
 3996TIP3    H133479   5.893   2.993   5.028  2.4913 -1.5381 -0.4848
 3996TIP3    H233480   5.916   2.971   4.880 -1.9747  1.6588 -1.7721
 3997TIP3   OH233481   6.648   1.841  15.924 -0.4188 -0.0764  0.0671
 3997TIP3    H133482   6.735   1.812  15.894  0.2184  0.5661  1.2329
 3997TIP3    H233483   6.664   1.928  15.960 -1.9230  0.8503 -1.4566
 3998TIP3   OH233484   4.916   6.708   5.395 -0.2034  0.0658 -0.2869
 3998TIP3    H133485   4.983   6.710   5.464 -0.7447  0.9075  0.2188
 3998TIP3    H233486   4.867   6.789   5.407  0.2791  0.6685 -2.2578
 3999TIP3   OH233487   4.900   6.765  15.887 -0.1145 -0.2627  0.3979
 3999TIP3    H133488   4.911   6.800  15.799  2.9076 -0.6425  0.5629
 3999TIP3    H233489   4.848   6.831  15.933  2.3327  2.3225 -0.3506
 4000TIP3   OH233490   6.768   2.565  12.317 -0.0666 -0.2383  0.1103
 4000TIP3    H133491   6.743   2.653  12.343 -1.0598 -0.8321  1.2057
 4000TIP3    H233492   6.864   2.568  12.311 -0.2353  1.4668 -1.9829
 4001TIP3   OH233493   3.413   2.439   2.551  0.5541  0.2031 -0.0132
 4001TIP3    H133494   3.381   2.354   2.579  1.5034  0.0270  0.5476
 4001TIP3    H233495   3.420   2.490   2.631 -1.0149  1.1651 -0.4578
 4002TIP3   OH233496   1.121   4.419   2.202  0.4970 -0.1852 -0.2999
 4002TIP3    H133497   1.194   4.481   2.206 -0.3804  0.9910 -2.2724
 4002TIP3    H233498   1.058   4.452   2.267 -0.4512  1.6484 -2.1142
 4003TIP3   OH233499   2.012   0.706  15.526 -0.0279  0.1860  0.3702
 4003TIP3    H133500   1.918   0.698  15.514 -0.5739  1.7912  3.0437
 4003TIP3    H233501   2.031   0.651  15.602  1.1395  0.1490  0.0647
 4004TIP3   OH233502   4.345   6.325  14.126  0.0182 -0.8036 -0.0792
 4004TIP3    H133503   4.389   6.407  14.102 -0.9199 -0.4587 -0.6244
 4004TIP3    H233504   4.299   6.346  14.207 -0.8498 -0.5724 -0.6290
 4005TIP3   OH233505   5.406   5.543  12.812 -0.2129  0.3352 -0.0286
 4005TIP3    H133506   5.451   5.608  12.757 -0.6961  0.0241 -0.7854
 4005TIP3    H233507   5.414   5.578  12.901 -0.2835  1.3296 -0.4074
 4006TIP3   OH233508   4.265   0.634   3.178  0.2078  0.5482 -0.2641
 4006TIP3    H133509   4.232   0.544   3.181 -0.0940  0.6706  0.2102
 4006TIP3    H233510   4.283   0.650   3.085  0.8983 -0.2264 -0.2643
 4007TIP3   OH233511   3.365   3.870  15.404 -0.0642  0.3513  0.0430
 4007TIP3    H133512   3.439   3.822  15.369 -0.9573  0.9666 -2.8363
 4007TIP3    H233513   3.352   3.835  15.492  2.6674 -0.8071  0.0144
 4008TIP3   OH233514   6.152   4.099  13.107 -0.1286 -0.0037  0.6967
 4008TIP3    H133515   6.067   4.075  13.145  0.5423  0.9773  2.8850
 4008TIP3    H233516   6.216   4.057  13.165  0.9172  1.5655  0.6812
 4009TIP3   OH233517   3.179   6.010  11.608 -0.1602 -0.3868  0.1023
 4009TIP3    H133518   3.209   5.945  11.671  0.1038 -1.0332 -0.6885
 4009TIP3    H233519   3.237   6.000  11.533 -0.5836  0.2544 -0.3152
 4010TIP3   OH233520   0.868   5.534  16.568  0.0041  0.0210  0.3126
 4010TIP3    H133521   0.851   5.507  16.659 -0.1739 -0.1853  0.2185
 4010TIP3    H233522   0.782   5.562  16.536  0.2645  1.1317  0.5515
 4011TIP3   OH233523   1.726   3.992  13.851 -0.1968  0.3090  0.3730
 4011TIP3    H133524   1.816   4.001  13.818 -0.1133 -1.4014  0.1146
 4011TIP3    H233525   1.672   3.983  13.773 -0.0521 -3.2497  0.6133
 4012TIP3   OH233526   3.638   2.261   1.495  0.3013  0.3492 -0.6596
 4012TIP3    H133527   3.655   2.276   1.402  0.4388  2.1395 -0.3620
 4012TIP3    H233528   3.547   2.232   1.498  0.5439 -0.5066 -1.4288
 4013TIP3   OH233529   3.081   3.557  15.456  0.2080 -0.1867  0.0964
 4013TIP3    H133530   3.095   3.568  15.550 -0.0463 -2.6237  0.4645
 4013TIP3    H233531   3.168   3.556  15.418  0.3131  0.7584  0.3092
 4014TIP3   OH233532   5.774   5.535  13.879 -0.1796 -0.1340  0.1581
 4014TIP3    H133533   5.849   5.574  13.835 -0.2691  0.0923  0.2055
 4014TIP3    H233534   5.808   5.509  13.965 -0.3550  0.6935  0.4782
 4015TIP3   OH233535   1.688   6.402  13.470  0.2234  0.1470 -0.4090
 4015TIP3    H133536   1.715   6.358  13.389  1.8307  1.9778 -0.8918
 4015TIP3    H233537   1.637   6.477  13.441  1.4616  1.2522  0.2309
 4016TIP3   OH233538   6.062   2.661  11.770  0.9269  0.1508 -0.0610
 4016TIP3    H133539   6.137   2.604  11.754  0.8685  0.1308 -0.2677
 4016TIP3    H233540   6.095   2.750  11.754  0.8920  0.1375 -0.2146
 4017TIP3   OH233541   4.792   3.781   6.235  0.0679  0.0634 -0.8965
 4017TIP3    H133542   4.868   3.799   6.180 -1.2822  0.0232 -2.8524
 4017TIP3    H233543   4.740   3.719   6.184 -1.1590 -0.1080  0.5236
 4018TIP3   OH233544   4.923   0.025  15.565 -0.2279 -0.0349 -0.3386
 4018TIP3    H133545   4.949   0.102  15.617 -0.6924 -0.3902  0.4308
 4018TIP3    H233546   5.002  -0.028  15.561 -0.1931 -0.0134  0.0249
 4019TIP3   OH233547   2.643   5.984   4.863 -0.4734 -0.0887 -0.2909
 4019TIP3    H133548   2.708   6.021   4.923  0.0846 -0.5681 -0.5974
 4019TIP3    H233549   2.683   5.992   4.776 -2.0518  2.3432 -0.8673
 4020TIP3   OH233550   6.650   1.734   4.458 -0.3564 -1.0347  0.0678
 4020TIP3    H133551   6.673   1.730   4.365  0.0036  0.6702  0.0568
 4020TIP3    H233552   6.706   1.669   4.499  1.6028  0.1914 -0.5403
 4021TIP3   OH233553   3.117   1.396  12.592 -0.3931 -0.0664  0.1182
 4021TIP3    H133554   3.203   1.410  12.632  0.7927 -1.2387 -1.9060
 4021TIP3    H233555   3.069   1.476  12.609  1.0411  0.5198  1.4919
 4022TIP3   OH233556   6.632   1.598   1.975  0.1298 -0.0940 -0.2709
 4022TIP3    H133557   6.538   1.607   1.963  0.0810 -0.2361 -0.0014
 4022TIP3    H233558   6.667   1.686   1.957 -0.0549 -0.0389 -0.3560
 4023TIP3   OH233559   5.207   1.313  14.017  0.0285  0.1338  0.1664
 4023TIP3    H133560   5.302   1.309  14.032  0.6149 -0.5181 -3.1637
 4023TIP3    H233561   5.181   1.399  14.050  1.8946  0.5760  0.5558
 4024TIP3   OH233562   1.039   2.691   5.139  0.4091  0.5297  0.2051
 4024TIP3    H133563   1.112   2.706   5.078  1.3114  0.3384  1.2191
 4024TIP3    H233564   1.019   2.777   5.175 -1.5523  1.0123 -1.9149
 4025TIP3   OH233565   1.069   1.736  15.950 -0.2321  0.4510  0.5299
 4025TIP3    H133566   1.049   1.702  16.037  0.0962 -0.0547  0.4118
 4025TIP3    H233567   1.025   1.821  15.946 -0.6782  0.2426  0.9974
 4026TIP3   OH233568   0.675   5.571  12.839 -0.1811  0.1794 -0.0884
 4026TIP3    H133569   0.654   5.654  12.883 -1.3275  0.6193 -1.4344
 4026TIP3    H233570   0.770   5.572  12.831 -0.2311  1.7120 -0.7312
 4027TIP3   OH233571   1.779   0.067  16.688 -0.2276 -0.1480  0.1918
 4027TIP3    H133572   1.736  -0.008  16.730 -0.2342 -0.7974 -0.9520
 4027TIP3    H233573   1.781   0.134  16.756  0.4771 -1.4327  1.4897
 4028TIP3   OH233574   6.136   2.878   4.791  0.0815  0.1747  0.6423
 4028TIP3    H133575   6.160   2.966   4.821 -1.4230  1.0192 -0.5179
 4028TIP3    H233576   6.217   2.828   4.795  0.7128  1.2655  2.5027
 4029TIP3   OH233577   5.808   4.324  12.940 -0.4707 -0.3831 -0.0937
 4029TIP3    H133578   5.714   4.339  12.930 -0.7954 -0.5641  2.3481
 4029TIP3    H233579   5.845   4.411  12.955 -0.5179 -0.5321  0.8832
 4030TIP3   OH233580   3.455   1.548   5.379  0.3099  0.4070 -0.7064
 4030TIP3    H133581   3.410   1.481   5.430  1.9055  0.0639  0.2759
 4030TIP3    H233582   3.546   1.544   5.407  0.7649  1.8568 -1.8459
 4031TIP3   OH233583   5.224   6.517  13.083  0.4313  0.7849  0.5192
 4031TIP3    H133584   5.296   6.561  13.038  0.2297  0.2402 -0.3309
 4031TIP3    H233585   5.265   6.446  13.132  0.4997  0.6336  0.2392
 4032TIP3   OH233586   4.135   5.927  15.765  0.4579  0.1048  0.1285
 4032TIP3    H133587   4.137   6.022  15.761  0.6949  0.1156  0.4974
 4032TIP3    H233588   4.152   5.906  15.857  1.3647 -0.3252 -0.1319
 4033TIP3   OH233589   4.226   3.085  14.109 -0.3385  0.5843  0.3136
 4033TIP3    H133590   4.264   3.144  14.043 -0.2139 -0.9384 -1.0313
 4033TIP3    H233591   4.297   3.025  14.129 -0.8015  0.2159  0.8433
 4034TIP3   OH233592   0.525   1.488  13.242 -0.2751 -0.0589 -0.1284
 4034TIP3    H133593   0.567   1.574  13.247  0.1768 -0.1848 -1.3972
 4034TIP3    H233594   0.441   1.504  13.200 -0.5356 -0.1216  0.3710
 4035TIP3   OH233595   5.275   4.144  12.435 -0.4092  0.0826  0.2058
 4035TIP3    H133596   5.226   4.194  12.501  2.5371  1.3887  1.5427
 4035TIP3    H233597   5.286   4.205  12.363 -0.0751  0.0893  0.2602
 4036TIP3   OH233598   0.731   0.929   5.446 -0.0476 -0.6354 -0.0941
 4036TIP3    H133599   0.800   0.885   5.397 -0.3981  0.1068 -1.2848
 4036TIP3    H233600   0.699   0.863   5.507  1.1686 -1.2258 -0.0856
 4037TIP3   OH233601   2.906   4.750   5.784  0.0587  0.4149  0.1771
 4037TIP3    H133602   2.850   4.675   5.765  1.2116 -0.3546 -0.1654
 4037TIP3    H233603   2.879   4.778   5.872  0.9306 -1.5726  1.1120
 4038TIP3   OH233604   4.463   5.186  11.687  0.0545 -0.1038 -0.1952
 4038TIP3    H133605   4.509   5.207  11.605  2.7378 -1.7193  0.8151
 4038TIP3    H233606   4.469   5.091  11.694 -0.3183  0.0079  1.7788
 4039TIP3   OH233607   1.522   6.313  16.546  0.3631  0.2041  0.2092
 4039TIP3    H133608   1.585   6.368  16.500  1.7103 -0.5986  1.0567
 4039TIP3    H233609   1.441   6.364  16.547  0.3579  0.3585 -2.8080
 4040TIP3   OH233610   5.878   0.466   1.492  1.0647  0.0932 -0.1302
 4040TIP3    H133611   5.855   0.374   1.488 -0.3289  0.4737 -1.2925
 4040TIP3    H233612   5.974   0.468   1.486  0.9611 -1.1504 -2.5809
 4041TIP3   OH233613   5.197   1.110  15.070 -0.1779 -0.2703  0.5462
 4041TIP3    H133614   5.237   1.032  15.033 -1.3404 -1.3832  1.5522
 4041TIP3    H233615   5.210   1.100  15.165 -0.6160  0.5908  0.6982
 4042TIP3   OH233616   0.907   1.653   1.107 -0.2090  0.0688  0.5316
 4042TIP3    H133617   0.822   1.657   1.064 -0.4057 -0.1979  0.8872
 4042TIP3    H233618   0.947   1.739   1.090 -0.5334  0.1810  0.3318
 4043TIP3   OH233619   6.071   4.790   4.590  0.0005  0.5268  0.1801
 4043TIP3    H133620   6.095   4.833   4.671  3.1285 -2.8424  1.1513
 4043TIP3    H233621   6.015   4.717   4.617  0.3777 -0.1224 -0.7520
 4044TIP3   OH233622   6.609   5.714  11.770  0.3435 -0.7531  0.8305
 4044TIP3    H133623   6.559   5.656  11.828  0.2604 -0.8580  0.6533
 4044TIP3    H233624   6.609   5.669  11.685  0.8749 -0.8318  0.8691
 4045TIP3   OH233625   6.171   3.630   5.065 -0.1555  0.5441  0.0445
 4045TIP3    H133626   6.156   3.683   4.987  0.8500  2.2302  0.9571
 4045TIP3    H233627   6.087   3.629   5.111 -0.5509  0.1660 -0.6799
 4046TIP3   OH233628   5.154   5.866   0.193 -0.1799 -0.0761 -0.2695
 4046TIP3    H133629   5.070   5.906   0.170  0.4052  1.0838 -0.3978
 4046TIP3    H233630   5.216   5.903   0.131  0.6348 -0.1020  0.5273
 4047TIP3   OH233631   3.278   3.681   5.101  0.1404 -0.3134  0.0936
 4047TIP3    H133632   3.365   3.722   5.096 -0.2917  0.8700  1.6468
 4047TIP3    H233633   3.294   3.597   5.145  0.7504 -0.9560 -1.3289
 4048TIP3   OH233634   2.211   6.676   2.910  0.3532 -0.5282 -0.3579
 4048TIP3    H133635   2.134   6.683   2.854 -0.0032  0.8299  0.2743
 4048TIP3    H233636   2.213   6.585   2.938 -1.5022 -0.3694  0.3114
 4049TIP3   OH233637   2.974   6.746   4.480 -0.0112 -0.3013  0.3199
 4049TIP3    H133638   2.891   6.774   4.442 -0.1400  1.8333  2.0421
 4049TIP3    H233639   3.041   6.778   4.420 -0.3267  0.6539  0.4666
 4050TIP3   OH233640   2.538   3.745   2.747  0.2999 -0.0145  0.1420
 4050TIP3    H133641   2.514   3.830   2.783 -1.0839 -0.7673  1.0702
 4050TIP3    H233642   2.472   3.729   2.679 -1.6437 -1.8674  2.3501
 4051TIP3   OH233643   2.240   6.758   3.653 -0.1519 -0.2382 -0.6224
 4051TIP3    H133644   2.258   6.850   3.632  1.1267 -0.3601 -0.1472
 4051TIP3    H233645   2.268   6.710   3.575 -0.5319 -0.2432 -0.7532
 4052TIP3   OH233646   1.748   2.592   5.644 -0.4962  0.4058 -0.1107
 4052TIP3    H133647   1.749   2.683   5.674 -2.1209  0.4984 -0.3366
 4052TIP3    H233648   1.737   2.541   5.724  0.2642  0.3933 -0.0018
 4053TIP3   OH233649   4.220   2.676  12.412 -0.1869 -0.0405 -0.2641
 4053TIP3    H133650   4.175   2.759  12.428 -1.3876 -0.5410 -0.9949
 4053TIP3    H233651   4.173   2.612  12.464  0.2981 -0.3991 -0.2617
 4054TIP3   OH233652   2.069   0.984  11.254 -0.3331 -0.1095 -0.1757
 4054TIP3    H133653   2.115   1.068  11.257 -2.2026  0.9482 -0.6598
 4054TIP3    H233654   2.136   0.922  11.225  1.0517  1.2080  0.0832
 4055TIP3   OH233655   2.192   1.476   4.674  0.1688  0.2166 -0.7224
 4055TIP3    H133656   2.109   1.483   4.626 -0.4766 -0.4607  0.2690
 4055TIP3    H233657   2.169   1.497   4.764  0.7526 -1.6124 -0.1350
 4056TIP3   OH233658   1.742   1.379  11.042  0.7217 -0.5144  0.3238
 4056TIP3    H133659   1.800   1.312  11.007  0.6784 -0.3159 -0.1257
 4056TIP3    H233660   1.655   1.355  11.011  0.6637 -0.4173  0.4086
 4057TIP3   OH233661   5.822   6.355  14.840  0.0320  0.0535  0.1801
 4057TIP3    H133662   5.870   6.433  14.869 -2.5435  1.2623  1.3295
 4057TIP3    H233663   5.831   6.293  14.913 -0.5099  0.4504  0.5895
 4058TIP3   OH233664   1.246   5.761   0.825  0.1751  0.3980 -0.1031
 4058TIP3    H133665   1.304   5.743   0.750 -0.1227  0.1915 -0.2855
 4058TIP3    H233666   1.185   5.687   0.826 -0.1281  0.6504  0.0473
 4059TIP3   OH233667   1.786   5.198   5.745 -0.3480 -0.1906 -0.1236
 4059TIP3    H133668   1.713   5.238   5.698 -0.4567  0.6602  0.7424
 4059TIP3    H233669   1.751   5.178   5.832  0.2680 -0.3450  0.0938
 4060TIP3   OH233670   0.349   6.621  17.040 -0.4313 -0.4194 -0.1371
 4060TIP3    H133671   0.280   6.669  17.087 -0.5920 -1.1204  0.3420
 4060TIP3    H233672   0.336   6.530  17.064 -0.1434 -0.7174 -1.0859
 4061TIP3   OH233673   4.435   6.550  13.744 -0.3500  0.2347 -0.1594
 4061TIP3    H133674   4.491   6.593  13.809  0.4922 -0.4237 -0.4459
 4061TIP3    H233675   4.348   6.550  13.784 -0.8573  4.1735 -1.0608
 4062TIP3   OH233676   5.692   5.753   4.456 -0.4825  0.0406 -0.2460
 4062TIP3    H133677   5.694   5.780   4.364 -1.4587  0.5609 -0.1297
 4062TIP3    H233678   5.784   5.743   4.481 -0.2197 -0.4540 -1.3766
 4063TIP3   OH233679   1.488   4.093   2.204 -0.5716  0.2421 -0.2677
 4063TIP3    H133680   1.450   4.142   2.277  0.9804  0.1692  0.6105
 4063TIP3    H233681   1.431   4.017   2.194 -1.0630  0.4891  0.5582
 4064TIP3   OH233682   6.486   2.552  11.227  0.3826  0.8589  0.2048
 4064TIP3    H133683   6.453   2.486  11.288  1.7039  0.8991  0.9609
 4064TIP3    H233684   6.474   2.513  11.140  0.7535 -0.1822  0.6262
 4065TIP3   OH233685   6.091   1.167   4.305 -0.7391 -0.4268 -0.2174
 4065TIP3    H133686   6.146   1.211   4.241 -2.4335  2.0038 -0.0851
 4065TIP3    H233687   6.022   1.125   4.254 -1.1407  0.0979 -0.1121
 4066TIP3   OH233688   4.101   4.425  11.225  0.0688 -0.3614  0.0605
 4066TIP3    H133689   4.022   4.475  11.243 -1.1257 -2.2938  0.3739
 4066TIP3    H233690   4.106   4.420  11.129  0.1750  0.3021  0.0311
 4067TIP3   OH233691   6.125   5.577   5.929  0.3391  0.5311 -0.2990
 4067TIP3    H133692   6.161   5.654   5.973  0.1304  0.9288 -0.8221
 4067TIP3    H233693   6.080   5.612   5.852  0.4250 -0.1306 -0.6540
 4068TIP3   OH233694   4.519   5.474   0.488 -0.8045 -0.1692  0.0381
 4068TIP3    H133695   4.460   5.423   0.543  0.8649 -0.2922  1.7735
 4068TIP3    H233696   4.494   5.565   0.503 -0.6360 -0.2278  0.7159
 4069TIP3   OH233697   4.907   0.677   3.773  0.2959  0.0079  0.3033
 4069TIP3    H133698   4.890   0.725   3.854 -0.1402 -1.8448  1.3343
 4069TIP3    H233699   4.849   0.600   3.778 -0.9002  0.6558 -2.4913
 4070TIP3   OH233700   1.356   2.113   4.626  0.2857  0.2253  0.9816
 4070TIP3    H133701   1.375   2.116   4.532  2.9162  0.1173  1.4669
 4070TIP3    H233702   1.329   2.023   4.643  0.5706  0.0461  0.4804
 4071TIP3   OH233703   0.789   5.080  11.395  0.0252 -0.3385 -0.0799
 4071TIP3    H133704   0.715   5.118  11.348 -0.4943 -0.6853  0.4430
 4071TIP3    H233705   0.866   5.123  11.358 -0.3372 -0.8633 -1.4871
 4072TIP3   OH233706   2.087   3.689   0.512  0.0772  0.2154  0.0150
 4072TIP3    H133707   2.160   3.649   0.558  1.6473  0.2839 -2.2919
 4072TIP3    H233708   2.046   3.617   0.464 -1.3915  0.1783  1.2979
 4073TIP3   OH233709   6.317   6.076  12.485  0.5866 -0.2345  0.8414
 4073TIP3    H133710   6.237   6.031  12.511  0.5272  0.0222  1.1055
 4073TIP3    H233711   6.366   6.011  12.436  0.4902 -0.5849  1.2083
 4074TIP3   OH233712   0.744   4.282  13.625  0.0908  0.2317  0.4807
 4074TIP3    H133713   0.674   4.269  13.561 -0.1252 -1.8940  1.1064
 4074TIP3    H233714   0.795   4.201  13.622  0.8167  0.6024  2.0798
 4075TIP3   OH233715   5.812   3.964   2.742  0.1146 -0.3893  0.0041
 4075TIP3    H133716   5.790   4.033   2.679  2.5657 -0.2736 -0.7775
 4075TIP3    H233717   5.901   3.986   2.771  0.5694 -2.7119  0.4321
 4076TIP3   OH233718   5.694   5.514  15.491 -0.4013 -0.1997 -0.0901
 4076TIP3    H133719   5.715   5.606  15.478 -0.5544 -0.0000  1.0769
 4076TIP3    H233720   5.776   5.474  15.518  0.1039 -0.7712 -2.3560
 4077TIP3   OH233721   2.469   2.840   5.816  0.0918  0.4269 -0.3025
 4077TIP3    H133722   2.491   2.781   5.888 -0.9530 -0.8512 -1.0029
 4077TIP3    H233723   2.497   2.926   5.846  0.3951 -0.2140  1.3066
 4078TIP3   OH233724   5.800   5.627   3.163 -0.3062 -0.4761 -0.1909
 4078TIP3    H133725   5.777   5.596   3.251  1.6258 -1.1683  0.1010
 4078TIP3    H233726   5.870   5.689   3.177  0.5200 -1.1394 -1.2909
 4079TIP3   OH233727   5.338   2.178   4.200  0.9729  0.2079 -0.0134
 4079TIP3    H133728   5.329   2.087   4.227  0.1383  1.0373  2.5977
 4079TIP3    H233729   5.327   2.229   4.280 -0.1567  2.6948 -1.6861
 4080TIP3   OH233730   0.711   4.177  16.104 -0.3610 -0.7928  0.6743
 4080TIP3    H133731   0.666   4.223  16.175  1.9178 -2.5173  3.3388
 4080TIP3    H233732   0.655   4.103  16.084 -1.3431  0.0657  0.1815
 4081TIP3   OH233733   1.252   6.622   3.523  0.2761  0.0009  0.4714
 4081TIP3    H133734   1.271   6.646   3.613 -0.4941  1.6485  0.2110
 4081TIP3    H233735   1.319   6.558   3.500  0.1689 -0.8063  2.3630
 4082TIP3   OH233736   4.722   4.610  11.521  0.7247  0.8970 -0.3613
 4082TIP3    H133737   4.681   4.616  11.435 -0.1645 -1.1517 -0.1003
 4082TIP3    H233738   4.773   4.530  11.518 -0.8215 -0.2069  1.6194
 4083TIP3   OH233739   5.412   1.359   3.652 -0.2356 -0.4765 -0.2835
 4083TIP3    H133740   5.502   1.332   3.671 -0.3478 -0.9523 -0.4239
 4083TIP3    H233741   5.419   1.453   3.632  0.1299 -0.3635  0.3746
 4084TIP3   OH233742   2.573   4.333  12.149 -0.1454 -0.2062 -0.1334
 4084TIP3    H133743   2.666   4.357  12.157  0.1834 -1.4262 -0.1584
 4084TIP3    H233744   2.543   4.323  12.239 -0.0063 -0.7238 -0.1448
 4085TIP3   OH233745   0.583   2.581  13.635  0.7257 -0.0749 -0.1163
 4085TIP3    H133746   0.579   2.643  13.707 -0.8111 -1.3909  0.9508
 4085TIP3    H233747   0.630   2.628  13.566 -1.1132  2.5894  0.3651
 4086TIP3   OH233748   1.987   4.589  14.103 -0.3516  0.1163 -0.7365
 4086TIP3    H133749   1.962   4.613  14.193  0.7632 -0.4664 -0.2529
 4086TIP3    H233750   2.015   4.671  14.063  2.3350 -0.1266  0.5386
 4087TIP3   OH233751   6.253   5.421  16.389 -0.5103 -0.7504  0.4832
 4087TIP3    H133752   6.254   5.365  16.312 -2.2840  1.0193 -0.8820
 4087TIP3    H233753   6.345   5.447  16.401 -0.3516 -0.2145 -1.6664
 4088TIP3   OH233754   1.389   2.061  13.832  0.1231 -0.3862 -0.0243
 4088TIP3    H133755   1.429   2.145  13.851  1.1636 -0.9696  0.4021
 4088TIP3    H233756   1.381   2.058  13.737 -1.4827  0.8952  0.0416
 4089TIP3   OH233757   1.851   2.598  16.162  0.2642 -0.0754  0.2873
 4089TIP3    H133758   1.844   2.513  16.118  0.3430  0.6555 -1.1709
 4089TIP3    H233759   1.859   2.661  16.090  0.6116  1.1258  1.3697
 4090TIP3   OH233760   0.261   3.886   4.195  0.0495  0.2046  0.3199
 4090TIP3    H133761   0.240   3.967   4.241  0.2406  0.7812 -0.5972
 4090TIP3    H233762   0.355   3.892   4.176 -0.0147 -0.0542 -0.0904
 4091TIP3   OH233763   1.169   3.549  13.856 -0.1814 -0.2664  0.5294
 4091TIP3    H133764   1.112   3.475  13.834 -0.6537  0.0147  0.8204
 4091TIP3    H233765   1.241   3.510  13.906 -1.1142 -0.3417  1.8403
 4092TIP3   OH233766   6.103   2.857  12.349  0.1474  0.0117  0.1977
 4092TIP3    H133767   6.065   2.834  12.434  0.7415  0.6121  0.6266
 4092TIP3    H233768   6.136   2.946  12.360 -0.7637  0.5227 -0.9937
 4093TIP3   OH233769   6.389   6.408   4.840  0.0155 -0.0271  0.2880
 4093TIP3    H133770   6.483   6.410   4.819 -0.1333 -1.7812 -0.7038
 4093TIP3    H233771   6.346   6.391   4.756 -0.9316 -2.4713  1.2159
 4094TIP3   OH233772   4.314   3.466   5.600 -0.8274  0.6308  0.4921
 4094TIP3    H133773   4.276   3.403   5.538 -0.2484  1.0300 -0.2820
 4094TIP3    H233774   4.320   3.547   5.550  0.4203  0.7420  0.8076
 4095TIP3   OH233775   0.271   0.190  16.522  0.3302  0.3757 -0.4806
 4095TIP3    H133776   0.287   0.111  16.574 -1.8887 -1.4968 -2.5188
 4095TIP3    H233777   0.338   0.187  16.453  0.3310  0.3673 -0.4798
 4096TIP3   OH233778   0.077   4.654   6.058 -0.3190  0.5344 -0.0225
 4096TIP3    H133779   0.166   4.626   6.077 -0.4103  1.0604  1.1828
 4096TIP3    H233780   0.021   4.588   6.100 -0.4997  0.2516 -0.7018
 4097TIP3   OH233781   3.837   5.230  14.695 -0.0814  0.1979  0.3369
 4097TIP3    H133782   3.848   5.324  14.709  1.7604 -0.0605  0.7756
 4097TIP3    H233783   3.923   5.200  14.664 -1.0152 -1.1240 -1.0466
 4098TIP3   OH233784   4.034   0.774   2.963  0.2161  0.2111 -0.6630
 4098TIP3    H133785   4.026   0.727   2.880 -2.3725  0.5412 -0.6438
 4098TIP3    H233786   3.967   0.735   3.020  1.4009  0.5403  1.0066
 4099TIP3   OH233787   4.720   6.433  12.286 -0.0850  0.2663  0.6503
 4099TIP3    H133788   4.764   6.510  12.251 -1.2223  0.3581 -0.6388
 4099TIP3    H233789   4.791   6.376  12.315  0.8836  0.5819 -0.9976
 4100TIP3   OH233790   2.923   4.515   4.631  0.6258 -0.1123 -0.5840
 4100TIP3    H133791   2.840   4.491   4.672  0.6499  0.2186 -0.3321
 4100TIP3    H233792   2.939   4.605   4.661  1.4851 -0.4683  0.0356
 4101TIP3   OH233793   4.304   2.968  16.553  0.0886  0.4106 -0.2408
 4101TIP3    H133794   4.299   2.885  16.601 -0.8707  1.6250  1.8377
 4101TIP3    H233795   4.384   2.961  16.500  1.1962 -0.9676  1.5613
 4102TIP3   OH233796   0.632   1.538   0.710 -0.6358  0.0890 -0.4760
 4102TIP3    H133797   0.620   1.615   0.654  0.2942  1.7229  1.4829
 4102TIP3    H233798   0.726   1.538   0.731 -0.5243 -1.9035 -0.8788
 4103TIP3   OH233799   2.498   6.094   1.475  0.0303 -0.1523 -0.2852
 4103TIP3    H133800   2.482   6.098   1.381 -1.1899 -0.5948 -0.1081
 4103TIP3    H233801   2.594   6.095   1.483  0.1500 -0.3736 -1.5368
 4104TIP3   OH233802   6.511   6.762   2.940 -0.4550 -0.4398  0.4952
 4104TIP3    H133803   6.469   6.691   2.987 -2.4140 -2.1167 -3.5643
 4104TIP3    H233804   6.551   6.721   2.863 -0.0002  2.5517 -0.9676
 4105TIP3   OH233805   5.433   0.265  16.749  0.4684 -0.0252 -0.8050
 4105TIP3    H133806   5.487   0.270  16.828  2.6218  1.3177 -2.3142
 4105TIP3    H233807   5.465   0.186  16.704 -0.6045 -0.6644 -0.4655
 4106TIP3   OH233808   4.561   3.040   4.156  0.5065 -0.0698  0.1625
 4106TIP3    H133809   4.540   2.947   4.160 -2.7107  0.6599  2.7773
 4106TIP3    H233810   4.607   3.058   4.238 -1.8779  1.2601  1.2413
 4107TIP3   OH233811   4.759   3.513   5.163 -0.4929 -0.4276  0.0919
 4107TIP3    H133812   4.694   3.584   5.171 -0.9963 -0.9226  0.4433
 4107TIP3    H233813   4.815   3.541   5.091 -0.3031  0.6307  0.6360
 4108TIP3   OH233814   4.565   5.060   4.597  0.0987  0.0713  0.4764
 4108TIP3    H133815   4.646   5.047   4.548 -0.2154 -0.1330  0.0097
 4108TIP3    H233816   4.590   5.116   4.671  0.4169  1.0485 -0.3647
 4109TIP3   OH233817   5.163   2.771   4.474 -0.1455  0.1469  0.7938
 4109TIP3    H133818   5.099   2.824   4.426 -1.0417 -1.6482 -0.0627
 4109TIP3    H233819   5.144   2.788   4.566 -2.4084 -0.9186  0.5752
 4110TIP3   OH233820   6.391   1.506   2.936 -0.6710  0.1267  0.1160
 4110TIP3    H133821   6.452   1.439   2.904 -1.0032  0.0606 -0.3814
 4110TIP3    H233822   6.306   1.482   2.898 -0.5420  1.5683 -1.1610
 4111TIP3   OH233823   1.715   0.768   0.926  0.0943  0.4093 -0.1517
 4111TIP3    H133824   1.779   0.750   0.858 -1.1215 -1.2353 -0.9284
 4111TIP3    H233825   1.639   0.802   0.879 -0.6017 -0.3358  0.4104
 4112TIP3   OH233826   3.738   5.290   3.918  0.1362  0.4369  0.0217
 4112TIP3    H133827   3.784   5.328   3.844  1.5558 -0.3434  0.4804
 4112TIP3    H233828   3.806   5.275   3.984 -0.8464 -0.2929  0.8988
 4113TIP3   OH233829   5.749   6.320  13.674  0.1773 -0.1930 -0.2397
 4113TIP3    H133830   5.821   6.340  13.733  0.0973 -0.9815  0.1322
 4113TIP3    H233831   5.670   6.345  13.723  0.2890  3.6208 -1.8153
 4114TIP3   OH233832   5.947   3.288   1.013  0.2074 -0.1184  0.3436
 4114TIP3    H133833   5.996   3.207   1.026  0.9013  0.4772  1.4784
 4114TIP3    H233834   5.860   3.259   0.983  0.1860 -1.3195  1.5075
 4115TIP3   OH233835   0.769   0.873   5.895 -0.7961  0.5034 -1.1830
 4115TIP3    H133836   0.716   0.916   5.828 -2.6407 -0.0456 -0.1012
 4115TIP3    H233837   0.793   0.789   5.855 -1.9138  0.1650 -1.1631
 4116TIP3   OH233838   3.288   0.861  14.818  0.2677  0.0145  0.4480
 4116TIP3    H133839   3.356   0.832  14.878 -0.1780 -1.5201  0.2310
 4116TIP3    H233840   3.278   0.789  14.755 -1.9893 -0.0715  0.8540
 4117TIP3   OH233841   2.862   3.587   0.001  0.2148 -0.5056  0.8864
 4117TIP3    H133842   2.874   3.528   0.075  0.3487  0.4353  1.6188
 4117TIP3    H233843   2.944   3.637  -0.002  1.2240 -2.1717 -1.3743
 4118TIP3   OH233844   3.748   0.972  16.564 -0.1871  0.1085 -0.3380
 4118TIP3    H133845   3.814   0.940  16.503 -0.4036 -1.0635  0.0385
 4118TIP3    H233846   3.798   1.004  16.639 -0.1041 -3.0725  1.0469
 4119TIP3   OH233847   6.406   1.277   1.682  0.6072 -0.2764  0.0438
 4119TIP3    H133848   6.367   1.265   1.768  0.2618 -1.6027 -0.2949
 4119TIP3    H233849   6.475   1.343   1.696  0.2466 -0.1441  1.2270
 4120TIP3   OH233850   2.310   5.416   4.063 -0.0475  0.5358  0.4375
 4120TIP3    H133851   2.350   5.465   3.992  1.1848  0.1774  0.8766
 4120TIP3    H233852   2.359   5.442   4.141 -0.9832  0.4574  1.0661
 4121TIP3   OH233853   0.845   6.486   6.060 -0.7228 -0.0904  0.2208
 4121TIP3    H133854   0.810   6.479   5.971 -0.3792 -1.4486  0.1832
 4121TIP3    H233855   0.778   6.446   6.115 -1.3845  1.6389  0.7047
 4122TIP3   OH233856   4.599   0.224  11.355  0.4456  0.2261 -0.0172
 4122TIP3    H133857   4.643   0.149  11.314  0.3198  0.5496 -0.7585
 4122TIP3    H233858   4.651   0.242  11.433  0.6456 -0.4524  0.0126
 4123TIP3   OH233859   2.029   5.978  15.937  0.2744 -0.0011 -0.4643
 4123TIP3    H133860   2.041   5.980  16.032 -1.7558 -0.0689 -0.1864
 4123TIP3    H233861   1.957   6.039  15.921  0.1451 -0.5241 -1.8957
 4124TIP3   OH233862   1.074   2.862   3.100 -0.3161  0.0576 -0.1891
 4124TIP3    H133863   1.141   2.843   3.034  0.3404 -3.0700  1.2947
 4124TIP3    H233864   1.003   2.800   3.081 -0.4853 -0.2782  1.5033
 4125TIP3   OH233865   4.067   4.581   0.680 -0.0440 -0.9303 -0.4889
 4125TIP3    H133866   4.049   4.488   0.690 -0.5992 -0.8672 -0.8642
 4125TIP3    H233867   4.080   4.593   0.586  0.3461 -0.6874 -0.4053
 4126TIP3   OH233868   3.423   0.526  17.041 -0.2954  0.5387 -0.3090
 4126TIP3    H133869   3.418   0.621  17.033 -0.4381  0.4252 -1.6818
 4126TIP3    H233870   3.482   0.499  16.970 -2.2006 -0.6269 -1.4714
 4127TIP3   OH233871   2.339   6.566  16.195 -0.6926 -0.0945  0.1919
 4127TIP3    H133872   2.251   6.598  16.174 -0.5419 -1.4598 -2.7200
 4127TIP3    H233873   2.398   6.626  16.148 -0.0889  0.0805  1.1494
 4128TIP3   OH233874   5.477   5.958  11.576 -0.5961  0.3544 -0.1406
 4128TIP3    H133875   5.496   5.952  11.670  0.6743  0.5790 -0.3848
 4128TIP3    H233876   5.544   6.016  11.541  1.1594 -2.5767 -1.8190
 4129TIP3   OH233877   1.765   3.925   3.144  0.5627  0.0395 -0.5181
 4129TIP3    H133878   1.834   3.941   3.080 -1.8411  2.4674 -2.6560
 4129TIP3    H233879   1.737   4.013   3.172 -1.5288 -0.8735  0.3950
 4130TIP3   OH233880   3.799   1.409  13.923 -0.0375 -0.3425  0.5843
 4130TIP3    H133881   3.774   1.381  14.011 -0.2501 -2.2969 -0.0844
 4130TIP3    H233882   3.826   1.329  13.878  2.9767  1.0526 -0.2183
 4131TIP3   OH233883   5.249   2.988   4.978  0.2112  0.2949 -0.2076
 4131TIP3    H133884   5.158   2.967   4.999  0.2382  0.7016  0.3332
 4131TIP3    H233885   5.254   3.083   4.987  0.9803  0.1505  0.9232
 4132TIP3   OH233886   0.122   3.999   1.172 -0.7663  0.0719  0.7611
 4132TIP3    H133887   0.172   4.078   1.193 -0.8139  0.6828 -1.2678
 4132TIP3    H233888   0.034   4.031   1.152 -0.2868 -0.2059 -2.0367
 4133TIP3   OH233889   2.868   2.233  13.506 -0.0881  0.3913 -0.3913
 4133TIP3    H133890   2.774   2.231  13.523  0.1848 -0.2043  1.1458
 4133TIP3    H233891   2.888   2.325  13.489 -0.3495  1.1294  2.9623
 4134TIP3   OH233892   2.652   6.170  11.473 -0.1377  0.4130 -0.5074
 4134TIP3    H133893   2.612   6.092  11.510 -2.8820  0.8328 -2.4618
 4134TIP3    H233894   2.647   6.235  11.543 -0.4326 -0.3081  0.1576
 4135TIP3   OH233895   1.077   4.101  13.066  0.2867 -0.6360  0.6608
 4135TIP3    H133896   1.171   4.109  13.080  0.2140 -0.5497  1.0898
 4135TIP3    H233897   1.064   4.010  13.039  0.6441 -0.3264 -0.6142
 4136TIP3   OH233898   6.376   4.393   3.037 -0.1026  0.1744 -0.2363
 4136TIP3    H133899   6.372   4.318   2.977  1.0920  0.6232 -0.9032
 4136TIP3    H233900   6.464   4.429   3.024 -0.5724  1.5335  0.2682
 4137TIP3   OH233901   4.418   0.739   2.387 -0.4989 -0.2122  0.1784
 4137TIP3    H133902   4.495   0.794   2.404  0.6648 -1.9199  0.5574
 4137TIP3    H233903   4.350   0.801   2.358  0.6562  1.4638  0.9567
 4138TIP3   OH233904   2.315   5.570  11.294 -0.4999  0.5242  0.5489
 4138TIP3    H133905   2.330   5.564  11.388 -0.5302 -1.5489  0.4510
 4138TIP3    H233906   2.401   5.592  11.257  0.0229 -0.8891  0.8915
 4139TIP3   OH233907   3.384   1.928   3.468  0.6111 -0.2766 -0.1956
 4139TIP3    H133908   3.348   1.840   3.481  0.0353  0.0051  0.1495
 4139TIP3    H233909   3.456   1.916   3.407  1.3729 -1.1830  0.8720
 4140TIP3   OH233910   4.644   2.687   1.336  0.4534 -0.3862 -0.0005
 4140TIP3    H133911   4.594   2.695   1.254  0.9431 -2.2241 -0.4996
 4140TIP3    H233912   4.632   2.771   1.379  0.8692  0.9550 -2.3653
 4141TIP3   OH233913   5.819   3.038   6.245  0.6550 -0.1648 -0.7737
 4141TIP3    H133914   5.853   2.950   6.258 -1.2367 -0.7824  0.2721
 4141TIP3    H233915   5.761   3.031   6.169 -1.3545 -0.3956  0.7449
 4142TIP3   OH233916   5.342   6.715   2.808  0.2726 -0.2973  0.2606
 4142TIP3    H133917   5.311   6.677   2.890  0.8123 -3.9798 -1.1589
 4142TIP3    H233918   5.277   6.689   2.743  1.8806 -0.8445 -1.1677
 4143TIP3   OH233919   5.481   6.392  11.668  0.4604 -0.3404  0.1798
 4143TIP3    H133920   5.520   6.356  11.747 -0.7799  0.6231  1.2536
 4143TIP3    H233921   5.397   6.346  11.659 -0.5456  1.3006  0.8517
 4144TIP3   OH233922   4.367   5.811   4.090  0.0101  0.4013 -0.2650
 4144TIP3    H133923   4.442   5.850   4.135 -0.8102 -0.0939  1.5691
 4144TIP3    H233924   4.341   5.738   4.146 -0.6256 -0.6568 -1.8900
 4145TIP3   OH233925   0.735   5.282   2.905 -0.0539 -0.0267  0.5911
 4145TIP3    H133926   0.665   5.253   2.847 -0.2900  1.6283  0.0431
 4145TIP3    H233927   0.795   5.207   2.909  0.7380  0.3320 -2.9657
 4146TIP3   OH233928   6.570   2.288   2.481  0.2395 -0.6298 -0.4960
 4146TIP3    H133929   6.639   2.340   2.440 -0.2777 -0.8199 -1.6480
 4146TIP3    H233930   6.532   2.345   2.547  0.9072 -0.2088 -0.4702
 4147TIP3   OH233931   2.314   4.363  10.504  0.7250  0.6784 -0.2476
 4147TIP3    H133932   2.368   4.315  10.441  0.0925  1.1783 -1.1811
 4147TIP3    H233933   2.293   4.298  10.572 -1.0063 -0.6691 -2.0260
 4148TIP3   OH233934   3.536   2.896  15.160  0.2009 -0.0800  0.2373
 4148TIP3    H133935   3.528   2.801  15.160  2.1488 -0.2792 -2.3647
 4148TIP3    H233936   3.605   2.915  15.223  0.1842 -0.4210  0.3554
 4149TIP3   OH233937   0.569   3.035  15.547  0.1644 -0.0721 -1.0246
 4149TIP3    H133938   0.610   3.028  15.634  0.6682 -1.3580 -1.3573
 4149TIP3    H233939   0.492   3.091  15.562  0.4537  0.0307  0.1775
 4150TIP3   OH233940   1.754   1.914   1.435 -0.1087 -0.5846  0.3287
 4150TIP3    H133941   1.691   1.845   1.454  1.5300 -2.3124 -0.3844
 4150TIP3    H233942   1.749   1.927   1.341  0.1029 -0.2268  0.3641
 4151TIP3   OH233943   2.114   1.125  14.561 -0.1587 -0.1186 -0.1218
 4151TIP3    H133944   2.118   1.186  14.488 -0.7953  1.7399  1.3540
 4151TIP3    H233945   2.110   1.181  14.639 -0.0926 -2.0444  1.3051
 4152TIP3   OH233946   6.486   6.597  11.238  0.5071  0.1416  0.1543
 4152TIP3    H133947   6.431   6.575  11.163  0.3002 -0.6386  0.5271
 4152TIP3    H233948   6.550   6.658  11.203  2.5849 -2.8292 -1.5066
 4153TIP3   OH233949   0.800   6.163  14.923  0.2185  0.3290  0.0302
 4153TIP3    H133950   0.780   6.166  14.829 -0.6784  1.6605  0.2558
 4153TIP3    H233951   0.895   6.152  14.927  0.0727 -1.5210 -1.0429
 4154TIP3   OH233952   3.177   2.973  12.084  0.0794 -0.0004 -0.7351
 4154TIP3    H133953   3.124   2.950  12.007  0.9049 -0.1364 -1.2663
 4154TIP3    H233954   3.266   2.950  12.059  0.0700 -2.1755  1.1078
 4155TIP3   OH233955   1.959   6.351   2.234 -0.0532 -0.3665 -0.5425
 4155TIP3    H133956   1.951   6.263   2.271  0.0432 -1.1680 -2.3740
 4155TIP3    H233957   2.053   6.363   2.219 -0.1270 -0.2224 -0.9050
 4156TIP3   OH233958   2.515   6.653  13.485  0.0337 -0.3116 -0.4285
 4156TIP3    H133959   2.521   6.629  13.578 -0.9180  1.4730  0.1375
 4156TIP3    H233960   2.429   6.623  13.458  0.5264 -1.3160 -0.8942
 4157TIP3   OH233961   3.239   2.587  13.923  0.1436  0.3068 -0.8509
 4157TIP3    H133962   3.168   2.651  13.920  0.7738  1.0248 -0.4144
 4157TIP3    H233963   3.210   2.517  13.864 -1.6434 -0.1430  0.5011
 4158TIP3   OH233964   6.030   4.861   5.509 -0.3211  0.0363  0.2989
 4158TIP3    H133965   5.970   4.932   5.485 -0.0074 -0.3172 -1.6083
 4158TIP3    H233966   6.115   4.888   5.474  0.1606 -0.5195  1.0252
 4159TIP3   OH233967   2.185   0.836   2.289 -0.1416 -0.4823 -0.4138
 4159TIP3    H133968   2.214   0.805   2.375  0.4922 -1.3084 -0.9179
 4159TIP3    H233969   2.251   0.900   2.262 -0.3870 -0.1589 -0.2432
 4160TIP3   OH233970   3.253   3.124  16.838  0.3138  0.1078  0.4261
 4160TIP3    H133971   3.240   3.031  16.858  0.9247  0.1733  1.1495
 4160TIP3    H233972   3.340   3.144  16.873  0.8352  0.5776 -1.0566
 4161TIP3   OH233973   4.449   6.511   0.957  0.0551 -0.0906 -0.5264
 4161TIP3    H133974   4.384   6.449   0.990  2.0771 -1.4776  0.8669
 4161TIP3    H233975   4.405   6.596   0.963 -1.5028 -0.9568  0.7242
 4162TIP3   OH233976   1.926   4.478   5.530  0.7066  0.0364 -0.7692
 4162TIP3    H133977   1.887   4.392   5.516  0.0522  0.4451 -1.5319
 4162TIP3    H233978   2.019   4.461   5.538  0.3610 -0.9895  1.3738
 4163TIP3   OH233979   4.117   5.389   5.086 -0.2723 -0.4283 -0.2276
 4163TIP3    H133980   4.089   5.418   5.172  2.2914  0.5365  0.3238
 4163TIP3    H233981   4.116   5.468   5.032  1.7935 -0.2522 -0.0559
 4164TIP3   OH233982   2.837   3.345  13.276 -0.4720  0.1843  0.4731
 4164TIP3    H133983   2.909   3.408  13.272 -1.4734  1.4087  1.3251
 4164TIP3    H233984   2.767   3.387  13.226 -1.1579 -0.2291  1.0806
 4165TIP3   OH233985   3.298   5.724   3.910  0.0036  0.1933  0.0385
 4165TIP3    H133986   3.349   5.778   3.850  2.8731 -2.3946  0.0297
 4165TIP3    H233987   3.244   5.670   3.853 -0.2124  0.5176 -0.0675
 4166TIP3   OH233988   0.995   1.534  16.812  0.5784 -0.0201  0.6913
 4166TIP3    H133989   1.082   1.497  16.828  1.0000 -0.5193 -2.4834
 4166TIP3    H233990   0.944   1.461  16.775 -1.9025 -0.3417  4.4159
 4167TIP3   OH233991   2.758   6.789  12.889  0.2148  0.1877  0.2265
 4167TIP3    H133992   2.692   6.858  12.876 -1.9940 -2.2075 -1.9918
 4167TIP3    H233993   2.791   6.772  12.801 -0.5727 -2.7464  0.4505
 4168TIP3   OH233994   2.028   1.933  11.336 -0.1219 -0.1130 -0.4761
 4168TIP3    H133995   2.098   1.868  11.342 -0.6272 -0.5177  1.2431
 4168TIP3    H233996   1.949   1.887  11.362 -0.6838  0.8748 -0.3888
 4169TIP3   OH233997   1.224   6.181   4.060  0.1908 -0.1617  0.0698
 4169TIP3    H133998   1.134   6.176   4.027 -0.2025  0.5394  1.0285
 4169TIP3    H233999   1.233   6.271   4.091  0.2746 -1.0244  2.6362
 4170TIP3   OH234000   5.170   4.504   2.900  0.0414 -0.0698  0.0490
 4170TIP3    H134001   5.173   4.599   2.891 -1.6951  0.0218  0.2616
 4170TIP3    H234002   5.222   4.471   2.827  0.6270  1.0479 -0.0427
 4171TIP3   OH234003   0.923   5.896   0.194  0.2899 -0.5860  0.7443
 4171TIP3    H134004   0.871   5.961   0.147  1.0795 -0.5873 -0.1474
 4171TIP3    H234005   0.945   5.831   0.128  0.8415 -0.9455  1.2761
 4172TIP3   OH234006   0.883   1.093  11.088  0.2232  0.2698 -0.0380
 4172TIP3    H134007   0.973   1.121  11.074 -0.6062  1.8684 -2.6369
 4172TIP3    H234008   0.866   1.111  11.180  2.4047  0.3791  0.3627
 4173TIP3   OH234009   1.622   1.772   0.624 -0.0079  0.0636  0.1805
 4173TIP3    H134010   1.542   1.767   0.676 -0.8130 -0.4693 -1.1034
 4173TIP3    H234011   1.692   1.752   0.687 -0.9642 -0.5319  1.0721
 4174TIP3   OH234012   3.019   0.595  13.327  0.5412  0.3227 -0.7882
 4174TIP3    H134013   3.032   0.569  13.236  1.2433  1.0340 -0.9000
 4174TIP3    H234014   3.025   0.514  13.377  0.7567  0.0135 -1.3157
 4175TIP3   OH234015   6.062   0.993   3.209 -0.3660 -0.2661 -0.2929
 4175TIP3    H134016   6.012   0.911   3.201  0.2037 -0.7530  0.9837
 4175TIP3    H234017   6.006   1.059   3.168 -0.9739 -1.2321 -1.0646
 4176TIP3   OH234018   1.415   4.910  11.931  0.4569  0.5279 -0.4865
 4176TIP3    H134019   1.425   4.919  12.026  0.7664 -0.1345 -0.4579
 4176TIP3    H234020   1.491   4.956  11.895  0.1022  1.1677 -0.4282
 4177TIP3   OH234021   4.172   0.561  10.975 -0.3010 -0.5359 -0.6587
 4177TIP3    H134022   4.167   0.656  10.967  2.3259 -0.3543 -0.3555
 4177TIP3    H234023   4.258   0.538  10.941 -0.3462 -2.6640  0.5858
 4178TIP3   OH234024   4.954   2.008   1.858 -0.1422  0.0839  0.4866
 4178TIP3    H134025   4.958   1.972   1.769 -0.7585 -0.2430  0.5938
 4178TIP3    H234026   4.971   1.934   1.915  1.2995  0.4998  0.6102
 4179TIP3   OH234027   1.608   2.902  12.473 -0.1277  0.0541 -0.4419
 4179TIP3    H134028   1.586   2.979  12.526 -2.3793  0.0041 -1.2768
 4179TIP3    H234029   1.667   2.851  12.529 -0.3345  1.3155  0.9576
 4180TIP3   OH234030   6.676   4.068   1.173  0.3486 -0.4625  0.1049
 4180TIP3    H134031   6.637   4.018   1.244 -1.6592  0.8384 -0.0301
 4180TIP3    H234032   6.630   4.038   1.094  1.4146 -0.7254 -0.4301
 4181TIP3   OH234033   4.554   5.974   3.308  0.9285 -0.0655  0.3228
 4181TIP3    H134034   4.504   5.943   3.233  0.7761 -0.6570  0.6660
 4181TIP3    H234035   4.527   5.917   3.380  1.1614  0.4242  0.7966
 4182TIP3   OH234036   3.357   6.365   3.617  0.1187 -0.2039 -0.8700
 4182TIP3    H134037   3.314   6.449   3.604 -1.4958 -1.0508 -1.1224
 4182TIP3    H234038   3.301   6.318   3.679  0.7837 -1.2538 -1.0391
 4183TIP3   OH234039   6.557   0.330  14.574 -0.3173 -0.6131 -0.3167
 4183TIP3    H134040   6.487   0.394  14.592 -1.7618 -2.8545  2.4991
 4183TIP3    H234041   6.638   0.381  14.576 -1.6210  1.5236 -0.5913
 4184TIP3   OH234042   5.635   3.055  13.665  0.2610 -0.4029 -0.1006
 4184TIP3    H134043   5.646   2.984  13.602  0.8427 -1.5445  1.2518
 4184TIP3    H234044   5.668   3.018  13.748  2.9195  2.2350  0.1108
 4185TIP3   OH234045   3.674   1.873  13.858 -0.0573 -0.1019 -0.3415
 4185TIP3    H134046   3.677   1.954  13.907  1.6635 -1.1682  1.4067
 4185TIP3    H234047   3.759   1.832  13.874 -0.8371 -2.1888 -1.2914
 4186TIP3   OH234048   2.070   5.496  13.022 -0.2057  0.0604 -0.1822
 4186TIP3    H134049   1.989   5.501  12.971  0.7288  1.4949 -1.5910
 4186TIP3    H234050   2.134   5.458  12.962  0.6531  0.7995  0.2565
 4187TIP3   OH234051   4.401   4.144  12.885 -0.6949  0.5159 -0.0046
 4187TIP3    H134052   4.452   4.169  12.961 -0.1806 -2.2753  0.6295
 4187TIP3    H234053   4.463   4.144  12.812 -1.1986  3.2388 -0.5013
 4188TIP3   OH234054   2.175   0.495   0.915 -0.1418  0.1013 -0.3885
 4188TIP3    H134055   2.135   0.581   0.931  1.9218  1.6160 -2.8293
 4188TIP3    H234056   2.200   0.464   1.002 -0.7504  2.0765  0.5368
 4189TIP3   OH234057   6.538   5.076   2.739  0.2034  0.1010 -0.2609
 4189TIP3    H134058   6.584   5.135   2.800  0.6271 -0.0357 -0.4416
 4189TIP3    H234059   6.463   5.044   2.788  1.1628 -0.8989  0.5916
 4190TIP3   OH234060   6.201   0.404   1.070 -0.4486 -0.4770 -0.1500
 4190TIP3    H134061   6.242   0.355   0.999 -3.2321 -3.1612 -0.0481
 4190TIP3    H234062   6.108   0.385   1.061 -1.1324  1.2939  2.6030
 4191TIP3   OH234063   4.313   0.460   1.996  0.1661 -0.1839  0.1081
 4191TIP3    H134064   4.290   0.400   1.925 -0.2797  1.0606 -0.8152
 4191TIP3    H234065   4.322   0.545   1.953  1.0133  0.3696  1.3659
 4192TIP3   OH234066   4.368   2.392  13.540 -0.1677  0.0591 -0.1625
 4192TIP3    H134067   4.313   2.400  13.618  1.0123  1.5371  0.5478
 4192TIP3    H234068   4.322   2.442  13.472 -0.3597  0.1853  0.0620
 4193TIP3   OH234069   0.520   5.491  16.127  0.1240 -0.2852  0.6212
 4193TIP3    H134070   0.464   5.529  16.059  1.1779 -0.8399 -0.5746
 4193TIP3    H234071   0.520   5.557  16.197 -3.9274 -1.2959  1.7170
 4194TIP3   OH234072   3.978   2.674   3.440 -0.0171  0.1479  0.0197
 4194TIP3    H134073   3.955   2.721   3.360 -2.4401  1.3696  1.3897
 4194TIP3    H234074   4.009   2.589   3.410  2.8352  1.9582 -2.4239
 4195TIP3   OH234075   6.078   6.642  13.566  0.3637  0.3285 -0.4942
 4195TIP3    H134076   6.084   6.549  13.543 -1.0470  0.5183 -1.6906
 4195TIP3    H234077   6.138   6.685  13.506 -0.0088  0.3408 -0.8578
 4196TIP3   OH234078   6.250   3.254  13.323  0.2475 -0.0961 -0.1952
 4196TIP3    H134079   6.335   3.297  13.318  0.7386 -1.1725 -1.1915
 4196TIP3    H234080   6.189   3.325  13.341  1.2097  0.8573 -0.6437
 4197TIP3   OH234081   4.149   0.043  11.024  0.1497 -0.2560 -0.1261
 4197TIP3    H134082   4.223   0.014  11.077 -1.3572 -1.5314  1.3171
 4197TIP3    H234083   4.085  -0.028  11.030 -0.4563 -0.0162 -2.9025
 4198TIP3   OH234084   4.443   1.604  10.973 -0.8818 -0.2563 -0.2997
 4198TIP3    H134085   4.527   1.648  10.992 -0.1784 -2.2657  1.4111
 4198TIP3    H234086   4.382   1.642  11.036 -0.8668  0.0859 -0.4926
 4199TIP3   OH234087   3.514   5.535  17.120 -0.4576 -0.4419 -0.2065
 4199TIP3    H134088   3.443   5.592  17.087 -0.5804  0.3238  1.3593
 4199TIP3    H234089   3.589   5.558  17.065 -0.2528  1.9181  0.9971
 4200TIP3   OH234090   0.887   1.929  16.105  0.3506  0.0040  0.3088
 4200TIP3    H134091   0.849   1.921  16.018 -1.4468 -1.4530  1.1974
 4200TIP3    H234092   0.857   2.014  16.136  1.5755  0.8390 -0.7497
 4201TIP3   OH234093   2.213   4.615  15.422 -0.2963  0.2684  0.1394
 4201TIP3    H134094   2.190   4.682  15.358 -1.1344  0.0979  0.2550
 4201TIP3    H234095   2.164   4.640  15.501 -0.6710 -0.5191  0.1583
 4202TIP3   OH234096   0.308   4.157   2.395 -0.4380  0.1375 -0.2826
 4202TIP3    H134097   0.361   4.110   2.459 -0.0374  0.2527 -0.5280
 4202TIP3    H234098   0.218   4.145   2.425 -0.8072 -4.7244 -2.7809
 4203TIP3   OH234099   3.323   3.866   5.526  0.1622  0.3831  0.4695
 4203TIP3    H134100   3.381   3.909   5.462  1.0161  2.7288  2.7269
 4203TIP3    H234101   3.365   3.881   5.610 -1.3270 -2.0385  1.6871
 4204TIP3   OH234102   2.257   4.248   3.587 -0.1963 -0.0629 -0.5973
 4204TIP3    H134103   2.323   4.186   3.617 -1.4876  0.2836  3.2707
 4204TIP3    H234104   2.306   4.327   3.564  0.8673 -0.2522  0.9735
 4205TIP3   OH234105   6.447   2.150  15.720  0.5208 -0.0712  0.0958
 4205TIP3    H134106   6.490   2.147  15.634  0.1453  2.0461 -0.1856
 4205TIP3    H234107   6.514   2.184  15.780  0.1575  0.4112  0.2318
 4206TIP3   OH234108   0.024   3.115  15.078 -0.1973  0.0172  0.3803
 4206TIP3    H134109  -0.024   3.060  15.015 -0.5902 -1.0253  1.5666
 4206TIP3    H234110   0.108   3.132  15.035 -1.6252  1.9211 -1.7424
 4207TIP3   OH234111   1.167   2.565  11.572 -0.3188  0.2737  0.1474
 4207TIP3    H134112   1.172   2.469  11.577 -0.9129  0.3267  1.7854
 4207TIP3    H234113   1.192   2.584  11.482  1.7785 -1.2992  0.3384
 4208TIP3   OH234114   2.179   6.404   2.951  0.4263 -1.1607  0.1582
 4208TIP3    H134115   2.098   6.386   2.902  1.0485  0.9003 -1.7012
 4208TIP3    H234116   2.169   6.354   3.032 -2.2718 -1.7405 -0.4679
 4209TIP3   OH234117   6.512   5.598  12.907  0.1048 -0.0304  0.4888
 4209TIP3    H134118   6.455   5.625  12.979 -0.5951 -0.0177 -0.0747
 4209TIP3    H234119   6.550   5.680  12.875  1.3334 -0.1389  1.5970
 4210TIP3   OH234120   4.709   2.457  12.424 -0.2382  0.0797 -0.1192
 4210TIP3    H134121   4.788   2.490  12.468 -0.3693  0.4597 -0.1709
 4210TIP3    H234122   4.677   2.531  12.373 -1.0454  0.1479  0.4799
 4211TIP3   OH234123   5.339   4.190  13.398 -0.1457 -0.4286  0.4701
 4211TIP3    H134124   5.256   4.169  13.440 -0.6075 -0.1167 -0.2932
 4211TIP3    H234125   5.383   4.105  13.388 -0.3433 -0.5848  0.9182
 4212TIP3   OH234126   5.206   3.848  16.106 -0.0527 -0.4204  0.0247
 4212TIP3    H134127   5.217   3.757  16.133 -2.1959 -1.3267 -1.9455
 4212TIP3    H234128   5.178   3.894  16.186 -0.1579 -1.7444  0.7578
 4213TIP3   OH234129   6.293   0.705   0.328  0.2852  0.2589  0.2151
 4213TIP3    H134130   6.236   0.664   0.393 -0.1287  0.1652 -0.2045
 4213TIP3    H234131   6.302   0.640   0.259  1.1650  0.1479  0.4287
 4214TIP3   OH234132   3.741   3.831   2.109  0.1106  0.1917  0.4792
 4214TIP3    H134133   3.712   3.753   2.156  0.9544 -0.6938 -0.4412
 4214TIP3    H234134   3.721   3.903   2.168 -0.0110 -0.7826  1.6512
 4215TIP3   OH234135   6.590   3.098   5.823 -0.0067 -0.1891  0.2042
 4215TIP3    H134136   6.574   3.175   5.878  0.5834 -1.5738  2.3487
 4215TIP3    H234137   6.656   3.127   5.760  0.8988  0.8187  1.5861
 4216TIP3   OH234138   1.183   1.195   4.368  0.3980  0.0095  0.1274
 4216TIP3    H134139   1.090   1.178   4.351  0.5211  1.0574 -1.7200
 4216TIP3    H234140   1.230   1.141   4.305  0.9646  1.4239 -0.6883
 4217TIP3   OH234141   6.703   6.405   3.151 -0.0473 -0.2792  0.0080
 4217TIP3    H134142   6.771   6.380   3.214  0.9917  2.6418  0.1384
 4217TIP3    H234143   6.748   6.404   3.067  0.0046  1.0256  0.0131
 4218TIP3   OH234144   1.568   5.223   1.863  0.2422  0.1517  0.9789
 4218TIP3    H134145   1.624   5.274   1.922  1.5517  0.4701 -0.5053
 4218TIP3    H234146   1.481   5.264   1.872  0.8586  1.4430  1.2189
 4219TIP3   OH234147   5.112   1.955  14.927  0.6111  0.0124 -1.0395
 4219TIP3    H134148   5.026   1.977  14.963  2.2697 -1.4820  4.4518
 4219TIP3    H234149   5.150   2.039  14.901 -0.4179  1.4132  1.7652
 4220TIP3   OH234150   3.115   0.718   0.830 -0.3390 -0.7210  0.7488
 4220TIP3    H134151   3.080   0.641   0.875  0.1353  0.0003  2.4096
 4220TIP3    H234152   3.060   0.728   0.753  0.0882 -3.1741  0.0867
 4221TIP3   OH234153   1.603   5.885   5.977  0.6013  0.1193 -0.3513
 4221TIP3    H134154   1.580   5.914   6.065  1.8984  1.4333 -0.4345
 4221TIP3    H234155   1.650   5.803   5.990 -0.8413 -0.6680  0.0424
 4222TIP3   OH234156   6.667   2.112   0.284 -0.2853  0.0401  0.2189
 4222TIP3    H134157   6.672   2.018   0.271  1.1402  0.2531 -0.9688
 4222TIP3    H234158   6.758   2.139   0.297 -0.8640  0.9829  2.6949
 4223TIP3   OH234159   1.257   4.058  16.445  0.0198  0.3935  0.1450
 4223TIP3    H134160   1.201   4.038  16.520 -1.6854  2.3126 -0.5731
 4223TIP3    H234161   1.301   4.139  16.470 -0.1656  0.7621 -0.7358
 4224TIP3   OH234162   5.744   4.029   0.724 -0.2744  0.4679  0.3368
 4224TIP3    H134163   5.705   3.944   0.745  2.6203 -0.9969  0.1131
 4224TIP3    H234164   5.725   4.041   0.631  0.4751 -0.6207  0.0313
 4225TIP3   OH234165   3.461   4.436  16.179 -0.0548 -0.0645 -0.3847
 4225TIP3    H134166   3.430   4.527  16.184  0.1113 -0.0307  0.0973
 4225TIP3    H234167   3.554   4.441  16.200 -0.8105 -0.7720  3.6657
 4226TIP3   OH234168   0.443   4.576  12.305  0.1771 -0.0149  0.4959
 4226TIP3    H134169   0.408   4.540  12.386  1.7124 -0.0205  1.1748
 4226TIP3    H234170   0.468   4.500  12.253 -0.2295  0.0059  0.2616
 4227TIP3   OH234171   5.432   6.013  15.975  0.7327 -0.0548  0.1929
 4227TIP3    H134172   5.477   5.994  15.893 -0.1552 -1.9960  0.1134
 4227TIP3    H234173   5.485   5.969  16.042 -1.5977 -3.4127 -0.0372
 4228TIP3   OH234174   6.015   3.632   6.510  0.0369  0.3085 -0.2678
 4228TIP3    H134175   6.013   3.630   6.414 -1.3332  0.2397 -0.2575
 4228TIP3    H234176   5.948   3.697   6.533  1.5799  1.6259  0.6135
 4229TIP3   OH234177   2.220   4.991   1.643  0.0630 -0.2054 -0.4624
 4229TIP3    H134178   2.262   5.009   1.726  0.2129 -0.6077 -0.4476
 4229TIP3    H234179   2.273   4.921   1.604  0.9062  1.0333 -1.5949
 4230TIP3   OH234180   3.994   1.751  13.555  0.4412 -0.4808  0.0810
 4230TIP3    H134181   3.960   1.682  13.611  0.5130 -0.9175 -0.4020
 4230TIP3    H234182   3.924   1.817  13.552 -0.1078 -1.0797 -0.4024
 4231TIP3   OH234183   0.294   5.196  16.327  0.2644 -0.0363  0.1538
 4231TIP3    H134184   0.305   5.142  16.249  0.0844  1.1784 -0.7216
 4231TIP3    H234185   0.278   5.284  16.294 -1.5002  0.1927  1.5492
 4232TIP3   OH234186   4.849   1.166  13.060  0.1266  0.1835 -0.0139
 4232TIP3    H134187   4.856   1.099  13.128 -1.1594  0.8820  0.8358
 4232TIP3    H234188   4.757   1.192  13.061  0.1051  0.3059 -1.9415
 4233TIP3   OH234189   0.050   4.192  16.192 -0.2709  0.0843  0.4632
 4233TIP3    H134190   0.099   4.269  16.221  0.7580  0.3617 -1.9252
 4233TIP3    H234191   0.016   4.154  16.273  0.8668  1.9185  1.8504
 4234TIP3   OH234192   4.584   0.648   1.307  0.4238 -0.5475  0.0401
 4234TIP3    H134193   4.627   0.610   1.231  2.7572 -0.1693  1.1173
 4234TIP3    H234194   4.656   0.686   1.359 -1.1985 -0.0016  1.9610
 4235TIP3   OH234195   2.381   5.970  15.494 -0.8073  0.1450 -0.5715
 4235TIP3    H134196   2.334   5.962  15.410 -1.8001 -3.0870  0.2222
 4235TIP3    H234197   2.313   5.957  15.560  0.7038 -1.8055  0.6412
 4236TIP3   OH234198   5.266   0.681   0.638 -0.1922 -0.2748 -0.1507
 4236TIP3    H134199   5.326   0.640   0.699 -0.2119 -0.2203 -0.0939
 4236TIP3    H234200   5.267   0.774   0.662 -1.4873 -0.5082  0.8634
 4237TIP3   OH234201   2.551   2.423  14.999  0.1800 -0.2392  0.0484
 4237TIP3    H134202   2.554   2.388  14.910 -0.6208  2.8707 -1.2816
 4237TIP3    H234203   2.458   2.434  15.017  0.3390 -1.0617  1.3535
 4238TIP3   OH234204   2.220   4.826   4.428 -0.0618 -0.7087  0.0809
 4238TIP3    H134205   2.154   4.890   4.400  0.4470 -0.7378 -1.1725
 4238TIP3    H234206   2.187   4.795   4.513  1.2329  3.4300  2.2310
 4239TIP3   OH234207   4.968   5.241   4.392  0.0806  0.4441  0.1514
 4239TIP3    H134208   4.997   5.248   4.483 -0.7317  1.0854  0.3611
 4239TIP3    H234209   4.896   5.303   4.384  0.2994  0.5692 -1.0008
 4240TIP3   OH234210   5.698   4.817  15.697  0.0523 -0.2440  0.7569
 4240TIP3    H134211   5.752   4.739  15.691 -1.2393 -1.1422  0.6597
 4240TIP3    H234212   5.608   4.785  15.689 -0.4423  1.3627 -0.4674
 4241TIP3   OH234213   0.809   6.347   0.078  0.3320  0.0439  0.3660
 4241TIP3    H134214   0.768   6.351  -0.008  0.1441  0.2734  0.4634
 4241TIP3    H234215   0.816   6.254   0.098 -0.2975  0.0110  0.4207
 4242TIP3   OH234216   1.093   3.081  17.069 -0.1496 -0.8007  0.0993
 4242TIP3    H134217   1.139   3.149  17.119  0.4196 -2.4511  1.9142
 4242TIP3    H234218   1.130   3.085  16.981  0.2989  0.8397  0.3601
 4243TIP3   OH234219   2.088   5.240   3.052 -0.6806  0.1643  0.0348
 4243TIP3    H134220   2.029   5.273   3.120  0.0775  0.1317  0.7245
 4243TIP3    H234221   2.131   5.319   3.018 -2.8739  0.4545 -2.1685
 4244TIP3   OH234222   1.821   4.139  14.190 -0.0992 -0.2766  0.1872
 4244TIP3    H134223   1.828   4.119  14.096 -2.9392 -3.0647  0.4869
 4244TIP3    H234224   1.763   4.215  14.194  3.2229  2.3558 -0.4839
 4245TIP3   OH234225   4.130   1.495  11.542 -0.1307  0.6842 -0.2825
 4245TIP3    H134226   4.146   1.583  11.509 -1.2405  1.6304  1.6353
 4245TIP3    H234227   4.037   1.495  11.566  0.4077 -0.3003  1.8494
 4246TIP3   OH234228   4.539   3.131   6.117  0.0725 -0.0447  0.1508
 4246TIP3    H134229   4.477   3.097   6.180 -2.7113 -3.2215 -4.0255
 4246TIP3    H234230   4.597   3.057   6.098 -0.3625  0.2017 -2.3496
 4247TIP3   OH234231   2.497   0.998  16.720  0.0316  0.7327  0.3172
 4247TIP3    H134232   2.578   1.043  16.745  0.0463  0.0395  1.5692
 4247TIP3    H234233   2.525   0.909  16.700 -0.5753  0.1405  1.9957
 4248TIP3   OH234234   6.108   3.278  17.102 -0.0002 -0.2894 -0.0194
 4248TIP3    H134235   6.013   3.286  17.102  0.0600  0.7027  1.1643
 4248TIP3    H234236   6.138   3.360  17.143  1.3618 -0.4941 -0.5908
 4249TIP3   OH234237   1.928   5.491   0.018  0.3658 -0.0373  0.8836
 4249TIP3    H134238   1.837   5.490  -0.009  0.0858 -0.0966  1.8044
 4249TIP3    H234239   1.954   5.584   0.013 -0.1065  0.1497  1.7829
 4250TIP3   OH234240   5.854   5.779   6.088  0.1496 -0.5534 -0.5553
 4250TIP3    H134241   5.945   5.751   6.095  0.3803  0.3476  0.1799
 4250TIP3    H234242   5.803   5.700   6.100  0.8502 -1.2864 -2.1867
 4251TIP3   OH234243   6.734   6.722  13.485  0.3236 -0.2335 -0.3549
 4251TIP3    H134244   6.763   6.743  13.397  0.7115 -0.0795 -0.1914
 4251TIP3    H234245   6.802   6.757  13.542  1.1230 -2.1848 -0.0776
 4252TIP3   OH234246   2.963   6.183  16.755  0.7174  0.0948 -0.6105
 4252TIP3    H134247   2.914   6.165  16.676  0.9404 -1.3974 -0.4210
 4252TIP3    H234248   3.046   6.136  16.744  0.4797 -0.6897  0.7825
 4253TIP3   OH234249   2.352   1.354   4.935  0.4227 -0.2552 -0.1555
 4253TIP3    H134250   2.379   1.359   4.843 -0.3238 -1.2592 -0.4413
 4253TIP3    H234251   2.272   1.406   4.939  0.0880 -0.7544 -0.2281
 4254TIP3   OH234252   4.688   6.158   3.064  0.0478 -0.0216  0.1783
 4254TIP3    H134253   4.652   6.078   3.103 -1.1300  1.1983  1.6457
 4254TIP3    H234254   4.733   6.202   3.136 -0.1215  1.1027 -0.3892
 4255TIP3   OH234255   4.972   6.269  15.468  0.4973 -0.7081  0.3869
 4255TIP3    H134256   5.050   6.235  15.425  1.5110  0.9568  0.9110
 4255TIP3    H234257   4.976   6.232  15.557  0.4351 -0.9733  0.2830
 4256TIP3   OH234258   4.210   5.129  15.605 -0.0247  0.3155  0.5866
 4256TIP3    H134259   4.239   5.038  15.612  0.5766  0.6813  3.6294
 4256TIP3    H234260   4.237   5.156  15.518 -1.2451 -2.7547 -0.8130
 4257TIP3   OH234261   5.831   5.987   3.139  0.1307 -1.1476  0.4596
 4257TIP3    H134262   5.821   6.047   3.064  0.1551 -0.1155  1.2685
 4257TIP3    H234263   5.834   5.900   3.100 -1.6643 -0.7530 -0.6193
 4258TIP3   OH234264   3.946   2.146   3.127  0.2509  0.1810 -0.0250
 4258TIP3    H134265   3.898   2.097   3.193 -1.6773  2.0330  0.0131
 4258TIP3    H234266   4.022   2.092   3.107 -1.9664 -2.9990 -0.2757
 4259TIP3   OH234267   4.033   0.408  14.975 -0.1481  0.3398 -0.1160
 4259TIP3    H134268   3.943   0.375  14.976 -0.0249 -0.0624 -1.3500
 4259TIP3    H234269   4.087   0.329  14.978  0.1612  0.5978  0.9930
 4260TIP3   OH234270   0.681   5.048   0.055 -0.2584  0.3479 -0.2809
 4260TIP3    H134271   0.716   5.096   0.130  0.4081 -0.4750 -0.0597
 4260TIP3    H234272   0.677   4.957   0.085  0.4205 -0.0533 -1.3889
 4261TIP3   OH234273   3.387   2.385  14.560  0.6738  0.1347  0.2051
 4261TIP3    H134274   3.439   2.312  14.594 -0.0670 -0.7258 -0.4824
 4261TIP3    H234275   3.451   2.444  14.521  1.3332  0.1048  1.2165
 4262TIP3   OH234276   0.728   0.320  17.007  0.4329  0.0418 -0.0079
 4262TIP3    H134277   0.766   0.265  16.938 -3.2917 -0.8706 -1.4940
 4262TIP3    H234278   0.764   0.286  17.088  0.8064 -2.4434 -1.1563
 4263TIP3   OH234279   0.352   5.737  16.654 -0.2143 -0.1187  0.5933
 4263TIP3    H134280   0.381   5.654  16.692  1.2657  0.8154  1.5491
 4263TIP3    H234281   0.301   5.779  16.724 -2.1713 -0.8207 -0.3634
 4264TIP3   OH234282   3.858   3.315   2.225  0.3395  0.1300  0.5106
 4264TIP3    H134283   3.838   3.227   2.257  1.7323 -0.6161 -0.6216
 4264TIP3    H234284   3.808   3.322   2.144  0.3469  0.3362  0.5253
 4265TIP3   OH234285   1.133   6.105  15.284 -0.5960  0.4721  0.2833
 4265TIP3    H134286   1.062   6.169  15.287 -0.0410  1.0585  1.0636
 4265TIP3    H234287   1.208   6.150  15.323  0.7062  0.4610 -2.0989
 4266TIP3   OH234288   6.375   4.954   2.956 -0.1390 -0.2083  0.0261
 4266TIP3    H134289   6.462   4.915   2.966 -0.6105 -1.5024 -0.7422
 4266TIP3    H234290   6.318   4.900   3.009 -0.6232  0.1123 -0.1592
 4267TIP3   OH234291   6.309   2.777  12.825  0.1899 -0.3635 -0.1328
 4267TIP3    H134292   6.384   2.720  12.841  0.3791 -0.7404 -2.2448
 4267TIP3    H234293   6.237   2.717  12.809 -0.5171  0.0005  1.5622
 4268TIP3   OH234294   5.198   3.115  10.511  0.2075  0.4152 -0.6719
 4268TIP3    H134295   5.286   3.131  10.477  0.7155  0.8053  0.7734
 4268TIP3    H234296   5.153   3.198  10.498  0.2607  0.4253 -0.7944
 4269TIP3   OH234297   1.011   3.907   4.125 -0.3182  0.1701 -0.1135
 4269TIP3    H134298   0.941   3.965   4.094 -1.1395  0.7535  2.7272
 4269TIP3    H234299   1.072   3.965   4.170  1.3796 -0.5283 -1.4262
 4270TIP3   OH234300   1.377   1.219   1.653 -0.6284  0.2189  0.2971
 4270TIP3    H134301   1.348   1.133   1.683  0.2424  0.4666  1.8926
 4270TIP3    H234302   1.296   1.269   1.643 -1.0702 -0.4999  0.2343
 4271TIP3   OH234303   6.392   3.481   1.139 -0.0015  0.3968  0.0222
 4271TIP3    H134304   6.368   3.511   1.227  0.9822  0.7165  0.1979
 4271TIP3    H234305   6.311   3.485   1.089 -0.4810  0.6361  0.8041
 4272TIP3   OH234306   4.306   3.999  14.715  0.2834 -0.4339 -0.0717
 4272TIP3    H134307   4.237   4.064  14.723 -0.5234 -1.2276 -0.4739
 4272TIP3    H234308   4.261   3.915  14.727  1.5207 -0.8648  1.7664
 4273TIP3   OH234309   1.706   1.894  11.030 -0.6437  0.5305  0.6407
 4273TIP3    H134310   1.757   1.964  11.071 -1.0456 -0.1865  2.4343
 4273TIP3    H234311   1.618   1.931  11.020  0.0230  1.4971 -1.7251
 4274TIP3   OH234312   1.400   5.308  13.928  0.4344 -0.8364 -0.0448
 4274TIP3    H134313   1.341   5.276  13.859  0.3925 -0.9140  0.0268
 4274TIP3    H234314   1.411   5.233  13.986 -0.0469 -0.5820  0.3838
 4275TIP3   OH234315   6.141   2.556  10.391  0.3554  0.2265  0.0795
 4275TIP3    H134316   6.054   2.597  10.391 -0.2832 -1.0636 -1.3398
 4275TIP3    H234317   6.131   2.477  10.444  0.5016 -0.2240 -0.5522
 4276TIP3   OH234318   6.046   5.552   1.798  0.0335  0.2983  0.0306
 4276TIP3    H134319   6.076   5.497   1.871  0.2473  0.5010  0.0953
 4276TIP3    H234320   5.964   5.511   1.769  0.5661 -0.4687 -0.3898
 4277TIP3   OH234321   5.313   6.490  13.645 -0.0505  0.1883 -0.7031
 4277TIP3    H134322   5.329   6.535  13.563 -2.4950 -0.4555 -1.5657
 4277TIP3    H234323   5.281   6.557  13.704 -0.4981  0.2126 -0.9750
 4278TIP3   OH234324   6.614   1.131   1.618 -0.0467 -0.0149  0.0226
 4278TIP3    H134325   6.692   1.185   1.626  0.0438 -0.1948  0.3605
 4278TIP3    H234326   6.542   1.193   1.617 -0.0716  0.0585  2.2021
 4279TIP3   OH234327   2.116   4.980   1.328 -0.6783  0.1614  0.0902
 4279TIP3    H134328   2.176   5.043   1.366 -1.0716 -0.4694  1.8099
 4279TIP3    H234329   2.169   4.931   1.265 -0.2236  1.7692 -0.7984
 4280TIP3   OH234330   6.554   5.311  13.928  0.1085 -0.0586  0.8701
 4280TIP3    H134331   6.555   5.399  13.965  0.3822 -0.4339  1.7457
 4280TIP3    H234332   6.569   5.325  13.834  1.1259  0.7499  1.1500
 4281TIP3   OH234333   0.176   5.071  14.074  0.5084 -0.1970  0.0837
 4281TIP3    H134334   0.248   5.134  14.072  2.1531 -2.0590 -1.1879
 4281TIP3    H234335   0.161   5.050  13.982 -1.1543 -0.4243  0.3983
 4282TIP3   OH234336   0.496   4.432   4.419  0.6267 -0.5097 -0.3310
 4282TIP3    H134337   0.407   4.466   4.414  0.2834 -1.5551 -1.8311
 4282TIP3    H234338   0.552   4.508   4.405 -0.0793 -0.0735 -0.7959
 4283TIP3   OH234339   0.893   4.531   6.213  0.0437  0.2411 -0.6508
 4283TIP3    H134340   0.798   4.525   6.225 -0.1079  0.4582 -1.7398
 4283TIP3    H234341   0.928   4.469   6.277 -0.8150  0.2882 -0.1110
 4284TIP3   OH234342   2.468   4.720   1.828 -0.1870  0.4641  0.3056
 4284TIP3    H134343   2.505   4.632   1.829 -0.1376  0.4901  0.7442
 4284TIP3    H234344   2.544   4.778   1.822 -0.2761  0.4427 -1.4847
 4285TIP3   OH234345   6.722   0.950  12.842 -0.4568  0.1971 -0.3153
 4285TIP3    H134346   6.726   0.870  12.894 -1.0079 -0.0819 -0.6912
 4285TIP3    H234347   6.707   1.019  12.907 -0.6777 -0.0921 -0.0507
 4286TIP3   OH234348   2.716   5.428  15.658 -0.0794 -0.2117 -0.2233
 4286TIP3    H134349   2.751   5.494  15.599  1.6232 -1.5670 -0.7707
 4286TIP3    H234350   2.698   5.353  15.601  0.2490 -1.0344  0.7478
 4287TIP3   OH234351   3.220   4.174  14.184 -0.4682 -0.4289 -0.3016
 4287TIP3    H134352   3.229   4.096  14.239 -3.1616 -1.2119 -0.8752
 4287TIP3    H234353   3.238   4.247  14.243  0.8767 -1.4261  0.5539
 4288TIP3   OH234354   3.251   6.139  16.630  0.1802 -0.4466  0.4123
 4288TIP3    H134355   3.275   6.155  16.539 -0.4436  1.1163  0.5043
 4288TIP3    H234356   3.254   6.044  16.640  2.6549 -0.4823 -0.5575
 4289TIP3   OH234357   4.474   4.999   2.345 -0.0277  0.5972 -0.0351
 4289TIP3    H134358   4.419   5.077   2.337 -0.6147  0.5484  2.9296
 4289TIP3    H234359   4.418   4.927   2.315 -0.2770  1.0251 -0.6024
 4290TIP3   OH234360   0.682   2.922  10.577 -0.1067  0.7698 -0.1610
 4290TIP3    H134361   0.593   2.892  10.557 -0.8324  1.4219  1.9489
 4290TIP3    H234362   0.724   2.932  10.491 -2.0265  0.3410 -1.1790
 4291TIP3   OH234363   2.148   4.980  12.323 -0.6733  0.0207 -0.0119
 4291TIP3    H134364   2.163   5.030  12.243 -1.0086  0.7259  0.3638
 4291TIP3    H234365   2.191   4.896  12.307 -0.4890  0.2642 -0.8166
 4292TIP3   OH234366   3.725   3.998  11.667  0.1068 -0.2644  0.4962
 4292TIP3    H134367   3.787   4.034  11.603  1.6805 -1.6215  1.2088
 4292TIP3    H234368   3.640   4.003  11.624  0.5514  2.5758 -0.1189
 4293TIP3   OH234369   1.258   5.671   1.445 -0.1089 -0.5463  0.2299
 4293TIP3    H134370   1.335   5.639   1.492  1.3608  4.2401  1.3540
 4293TIP3    H234371   1.185   5.621   1.481  2.0650 -3.1939  1.1624
 4294TIP3   OH234372   1.627   4.103  11.424 -0.5097 -0.3062 -0.3933
 4294TIP3    H134373   1.539   4.077  11.398 -0.1671 -1.1536 -0.7248
 4294TIP3    H234374   1.684   4.066  11.356  0.0156  1.0422 -0.7100
 4295TIP3   OH234375   1.833   5.743   0.553  0.1389 -0.2922 -0.3613
 4295TIP3    H134376   1.848   5.715   0.463 -2.2551  0.5778 -1.0915
 4295TIP3    H234377   1.757   5.692   0.582  1.3398 -1.1075  1.4325
 4296TIP3   OH234378   5.407   3.235   0.832  0.3169  0.2016  0.3383
 4296TIP3    H134379   5.379   3.170   0.896  1.0025 -0.0247  0.4120
 4296TIP3    H234380   5.391   3.194   0.747  1.4233 -0.3548  0.3913
 4297TIP3   OH234381   2.907   1.707  13.553  0.3735  0.4472 -0.1662
 4297TIP3    H134382   2.926   1.705  13.459 -0.9420  1.4906 -0.4667
 4297TIP3    H234383   2.969   1.645  13.591  2.9714  2.1952 -1.3695
 4298TIP3   OH234384   4.581   4.184  12.706 -0.2066 -0.0510 -0.3127
 4298TIP3    H134385   4.580   4.275  12.676 -1.9690 -0.3265 -1.1659
 4298TIP3    H234386   4.597   4.133  12.627 -0.8472 -0.5723 -0.1071
 4299TIP3   OH234387   2.864   3.773   3.471  0.4385  0.1694  0.5827
 4299TIP3    H134388   2.817   3.853   3.495 -0.5744 -0.0535 -0.6371
 4299TIP3    H234389   2.932   3.803   3.410 -1.0061 -0.0889 -1.2105
 4300TIP3   OH234390   0.168   0.569   4.181 -0.4923  0.1534  0.5194
 4300TIP3    H134391   0.099   0.624   4.145 -1.4051  0.3349  2.4547
 4300TIP3    H234392   0.141   0.553   4.272  0.2024 -2.7085  0.2901
 4301TIP3   OH234393   0.384   0.327   2.640 -0.1757 -0.5209  0.2656
 4301TIP3    H134394   0.382   0.233   2.656 -0.4489 -0.3908  1.0618
 4301TIP3    H234395   0.351   0.365   2.722 -0.1349  0.2585 -0.0778
 4302TIP3   OH234396   5.199   5.023   0.931 -0.1209  0.2831 -0.4045
 4302TIP3    H134397   5.109   4.999   0.955  0.0304 -1.6595 -1.6591
 4302TIP3    H234398   5.200   5.119   0.935 -2.1377  0.3115  0.0147
 4303TIP3   OH234399   1.851   2.545  16.583  0.4078  0.0708  1.1360
 4303TIP3    H134400   1.868   2.570  16.674  0.5568  1.1455  0.8267
 4303TIP3    H234401   1.769   2.589  16.561 -0.2276 -1.1281  1.1044
 4304TIP3   OH234402   4.244   3.599   0.589 -0.2668 -0.6552  0.2502
 4304TIP3    H134403   4.174   3.642   0.540 -0.4076 -1.5052 -0.3039
 4304TIP3    H234404   4.234   3.506   0.569  0.2335 -0.9185  1.1777
 4305TIP3   OH234405   6.183   0.854  10.892 -0.0126 -0.3694 -0.3620
 4305TIP3    H134406   6.097   0.890  10.913  0.4129 -0.4754  1.6403
 4305TIP3    H234407   6.244   0.925  10.915  0.5113 -0.6723 -0.8085
 4306TIP3   OH234408   2.398   5.602  13.413  0.5598  0.2808 -0.6509
 4306TIP3    H134409   2.349   5.663  13.469  0.3399 -0.5804  0.0996
 4306TIP3    H234410   2.471   5.573  13.468  0.1012 -0.9018 -0.6480
 4307TIP3   OH234411   5.814   6.698  14.548  0.3207 -0.3536  0.1055
 4307TIP3    H134412   5.823   6.631  14.481  2.1334  0.5883 -0.6132
 4307TIP3    H234413   5.722   6.726  14.541  1.3706  2.3812 -4.5975
 4308TIP3   OH234414   1.286   5.610   1.884  0.2457  0.0401  0.4352
 4308TIP3    H134415   1.245   5.614   1.970  2.0490 -2.2791  1.4464
 4308TIP3    H234416   1.264   5.524   1.850  0.5802  0.4645 -0.8996
 4309TIP3   OH234417   5.783   5.565   4.211  0.4339 -0.4929 -0.7955
 4309TIP3    H134418   5.773   5.470   4.207  0.5130 -0.5318 -0.1261
 4309TIP3    H234419   5.729   5.598   4.139 -1.0268 -0.9546  0.0722
 4310TIP3   OH234420   5.120   4.411  14.718  0.6413 -0.0136 -0.6294
 4310TIP3    H134421   5.033   4.384  14.747  0.6281  1.4233  0.7392
 4310TIP3    H234422   5.115   4.507  14.711  2.0176  0.0639 -0.8586
 4311TIP3   OH234423   6.323   2.985   0.052  0.1432  0.6214  0.7094
 4311TIP3    H134424   6.394   3.039   0.086 -0.2842  1.1969  0.7070
 4311TIP3    H234425   6.313   2.914   0.116  0.1143  1.0519  1.1839
 4312TIP3   OH234426   3.062   6.298  12.500  0.6505  0.2497  0.3430
 4312TIP3    H134427   2.996   6.273  12.565 -0.2787 -0.9109 -1.0183
 4312TIP3    H234428   3.071   6.393  12.510  0.8382  0.0252  2.4404
 4313TIP3   OH234429   2.780   5.090  14.336 -0.2711  0.0318 -0.5974
 4313TIP3    H134430   2.739   5.047  14.260 -0.7440 -0.2828 -0.1695
 4313TIP3    H234431   2.711   5.146  14.371 -1.1826 -2.3787  1.6130
 4314TIP3   OH234432   3.514   0.393   0.010  0.0108 -0.1261  0.5402
 4314TIP3    H134433   3.419   0.387   0.000  0.0128  1.0074 -0.2967
 4314TIP3    H234434   3.530   0.485   0.030  0.8812 -0.4576  1.4303
 4315TIP3   OH234435   1.652   6.206  11.713 -0.4905  0.0539  0.1167
 4315TIP3    H134436   1.584   6.152  11.753 -2.0859  1.6729 -0.3278
 4315TIP3    H234437   1.677   6.159  11.634  1.1903 -2.1211  1.8874
 4316TIP3   OH234438   5.374   0.566  14.087 -0.3522 -0.0618 -0.4758
 4316TIP3    H134439   5.419   0.637  14.133 -1.1406  0.0483  0.1352
 4316TIP3    H234440   5.392   0.488  14.139  1.2432 -0.4912 -1.6193
 4317TIP3   OH234441   4.739   5.693   1.320  0.2074 -0.0884 -0.0313
 4317TIP3    H134442   4.747   5.668   1.228 -0.0002 -0.2845  0.0039
 4317TIP3    H234443   4.792   5.772   1.328 -0.5166  0.4539 -0.5257
 4318TIP3   OH234444   3.612   1.583   3.120  0.0003  0.1624  0.4184
 4318TIP3    H134445   3.563   1.564   3.200 -2.1487  0.0100 -0.8976
 4318TIP3    H234446   3.642   1.673   3.131 -0.8475  0.3682  1.1264
 4319TIP3   OH234447   2.873   6.445  16.840 -0.1672 -0.1434 -0.6630
 4319TIP3    H134448   2.907   6.357  16.825 -0.2182 -0.2178 -0.3304
 4319TIP3    H234449   2.883   6.489  16.755 -1.3582 -0.8750 -1.1948
 4320TIP3   OH234450   5.142   3.821   0.337  0.3075 -0.4738  0.4557
 4320TIP3    H134451   5.226   3.866   0.342  0.7375 -1.2573  0.3611
 4320TIP3    H234452   5.128   3.807   0.243 -0.2414  0.2472  0.4341
 4321TIP3   OH234453   4.514   0.063  13.264 -0.3944 -0.4807 -0.0226
 4321TIP3    H134454   4.446   0.091  13.203  0.0848  1.3385  0.2389
 4321TIP3    H234455   4.477  -0.012  13.309 -1.9843  0.0905 -0.3530
 4322TIP3   OH234456   1.119   3.472  16.736 -0.3802 -0.3065  0.7092
 4322TIP3    H134457   1.109   3.498  16.828  2.2039  0.8384  0.7327
 4322TIP3    H234458   1.150   3.382  16.739 -2.5116 -1.0350  0.8825
 4323TIP3   OH234459   6.018   0.119   3.555  0.0174 -0.2246 -0.1381
 4323TIP3    H134460   6.062   0.158   3.631  1.2770 -0.7091 -0.6034
 4323TIP3    H234461   6.002   0.028   3.582 -0.5748 -0.0849 -0.0218
 4324TIP3   OH234462   3.886   0.802   1.178 -0.3305  0.3831  0.0918
 4324TIP3    H134463   3.875   0.742   1.252  1.8190  1.2999  1.2129
 4324TIP3    H234464   3.802   0.799   1.132 -1.6947 -0.2735  2.5265
 4325TIP3   OH234465   0.684   0.289  13.312  0.2106  0.1638  0.3748
 4325TIP3    H134466   0.751   0.295  13.244  1.3138 -2.5628  1.1591
 4325TIP3    H234467   0.620   0.226  13.278 -0.1447  0.1163  1.1069
 4326TIP3   OH234468   1.010   2.987  15.738  0.3768 -0.0486  0.0935
 4326TIP3    H134469   1.082   3.020  15.686  1.2733 -0.3502  1.1229
 4326TIP3    H234470   1.040   2.901  15.769  0.0818  0.3413  1.5141
 4327TIP3   OH234471   6.357   2.808   5.807  0.1905 -0.3491 -0.1912
 4327TIP3    H134472   6.324   2.879   5.752 -1.7435  0.5268  1.9871
 4327TIP3    H234473   6.386   2.851   5.887  0.9950 -1.7965  0.3125
 4328TIP3   OH234474   6.345   1.240  13.841 -0.1808 -0.1305  0.1692
 4328TIP3    H134475   6.272   1.206  13.790 -0.7145 -2.1129  2.1507
 4328TIP3    H234476   6.413   1.258  13.777 -0.9207 -2.2722 -1.2735
 4329TIP3   OH234477   0.842   6.603   1.457  0.2581 -0.2853  0.4400
 4329TIP3    H134478   0.812   6.694   1.458  0.5678 -0.1585 -0.7106
 4329TIP3    H234479   0.793   6.563   1.385  1.5839 -0.5088 -0.3644
 4330TIP3   OH234480   5.687   5.097   2.670 -0.0131 -0.1167 -0.2549
 4330TIP3    H134481   5.653   5.162   2.609 -1.0748  0.7152  1.1959
 4330TIP3    H234482   5.609   5.055   2.707  0.6180 -0.6553  0.4891
 4331TIP3   OH234483   4.027   4.578   0.161  0.5123 -0.2725 -0.2115
 4331TIP3    H134484   4.011   4.666   0.127 -0.3260  0.0587  0.9974
 4331TIP3    H234485   3.967   4.522   0.112  1.5029 -0.2678 -1.4308
 4332TIP3   OH234486   1.514   0.574  14.083  0.1544 -0.1984  0.1940
 4332TIP3    H134487   1.495   0.562  13.990  0.0619  0.4155  0.1342
 4332TIP3    H234488   1.599   0.618  14.084 -0.4307  0.9403  0.3695
 4333TIP3   OH234489   6.797   4.632   5.000  0.2242  0.3991  0.6596
 4333TIP3    H134490   6.749   4.550   5.007  0.2907  0.3704  0.7841
 4333TIP3    H234491   6.795   4.669   5.089  2.9313 -1.0150  1.3556
 4334TIP3   OH234492   5.886   0.643  15.463  0.1839  0.0298 -0.1585
 4334TIP3    H134493   5.880   0.610  15.553 -2.2960  0.0254 -0.2888
 4334TIP3    H234494   5.854   0.571  15.409 -0.4264  0.8105 -0.8542
 4335TIP3   OH234495   1.939   6.658   2.068  0.3628 -0.4410  0.2307
 4335TIP3    H134496   2.000   6.717   2.023  1.6634 -2.9253 -1.3706
 4335TIP3    H234497   1.990   6.579   2.084 -1.9866 -1.9888  0.2850
 4336TIP3   OH234498   2.207   0.623   1.715 -0.0587  0.6036 -0.1196
 4336TIP3    H134499   2.190   0.636   1.808  0.1984 -1.7546  0.2906
 4336TIP3    H234500   2.157   0.545   1.692 -1.1121  1.8718 -2.2748
 4337TIP3   OH234501   3.833   5.559   3.827 -0.4336  0.7581 -0.2193
 4337TIP3    H134502   3.919   5.520   3.811 -1.7119 -2.1834 -0.3060
 4337TIP3    H234503   3.834   5.642   3.780  1.7182 -0.0702 -1.6931
 4338TIP3   OH234504   1.320   1.095  14.187 -0.2358 -0.5799  0.2516
 4338TIP3    H134505   1.357   1.007  14.192  0.3754 -0.3704 -0.4801
 4338TIP3    H234506   1.314   1.113  14.093  1.1339  0.7767  0.4140
 4339TIP3   OH234507   1.441   2.601   4.013 -0.5826 -0.0355 -0.6797
 4339TIP3    H134508   1.520   2.653   4.026  0.7667 -1.8106 -1.6583
 4339TIP3    H234509   1.469   2.511   4.028 -2.3730 -0.7027 -1.2551
 4340TIP3   OH234510   1.528   5.398  10.701 -0.3595  0.1237 -0.1880
 4340TIP3    H134511   1.555   5.479  10.743  0.5556  0.1014 -0.7223
 4340TIP3    H234512   1.433   5.405  10.694 -0.3205  0.9735  0.1295
 4341TIP3   OH234513   6.542   4.370   2.510 -0.4564 -0.3341 -0.1684
 4341TIP3    H134514   6.469   4.318   2.541  0.6696 -1.0411  1.3414
 4341TIP3    H234515   6.611   4.306   2.493  0.7599  0.5826  1.1996
 4342TIP3   OH234516   3.166   2.158  12.041 -0.1987  0.2099 -0.3404
 4342TIP3    H134517   3.088   2.206  12.067 -0.5538  0.1092 -1.2064
 4342TIP3    H234518   3.238   2.205  12.083 -0.7914 -0.1939  1.1588
 4343TIP3   OH234519   3.767   1.994   3.285  0.4368  0.1832 -0.2594
 4343TIP3    H134520   3.786   1.948   3.367  0.1750  0.5509  0.0063
 4343TIP3    H234521   3.707   2.064   3.309  0.2500  0.2090 -0.7897
 4344TIP3   OH234522   0.159   5.317   4.168 -0.1522 -0.0236 -0.0010
 4344TIP3    H134523   0.130   5.229   4.142 -0.1974  0.0637 -0.2450
 4344TIP3    H234524   0.159   5.367   4.087  0.4387  0.0434  0.0403
 4345TIP3   OH234525   1.552   4.396  16.888  0.0413  0.5431  0.1299
 4345TIP3    H134526   1.557   4.408  16.982  0.3903 -0.2295  0.2115
 4345TIP3    H234527   1.627   4.445  16.854  1.4147 -1.2851  0.4580
 4346TIP3   OH234528   1.641   5.653   3.947  0.5110  0.2960 -0.2390
 4346TIP3    H134529   1.550   5.636   3.921  0.8839 -2.4756  0.1015
 4346TIP3    H234530   1.676   5.707   3.876 -1.4023  1.4172 -0.3573
 4347TIP3   OH234531   1.892   1.053  15.939  0.4014  0.6697  0.0329
 4347TIP3    H134532   1.835   1.130  15.930  0.5769  0.8350  0.3193
 4347TIP3    H234533   1.913   1.029  15.849 -0.8363  0.0680 -0.1111
 4348TIP3   OH234534   6.030   4.724   2.324  0.4961  0.0230  0.0559
 4348TIP3    H134535   6.041   4.761   2.411 -0.1447  1.2910 -0.3963
 4348TIP3    H234536   6.107   4.753   2.276 -0.1469  1.0149 -0.3819
 4349TIP3   OH234537   5.283   3.928   2.579  0.1783 -0.2574 -0.5062
 4349TIP3    H134538   5.297   3.907   2.487 -1.8537  1.6600 -1.2980
 4349TIP3    H234539   5.369   3.915   2.620  0.8190 -2.2930 -2.4077
 4350TIP3   OH234540   2.904   1.512  11.376  0.1810 -0.7434 -0.2546
 4350TIP3    H134541   2.991   1.543  11.354  0.2156 -0.2423  0.6005
 4350TIP3    H234542   2.911   1.417  11.372  0.9850 -0.7244  0.6765
 4351TIP3   OH234543   6.043   2.434  12.487  0.5628 -0.6799  0.0525
 4351TIP3    H134544   5.949   2.426  12.500  0.6484 -0.3453  0.8865
 4351TIP3    H234545   6.069   2.351  12.447 -0.2621 -0.3207 -1.2753
 4352TIP3   OH234546   2.447   3.587   3.265 -0.7529 -0.1188  0.4956
 4352TIP3    H134547   2.481   3.625   3.183 -2.0371 -0.0713 -0.0200
 4352TIP3    H234548   2.430   3.496   3.244 -0.2734 -0.3160  0.9609
 4353TIP3   OH234549   0.855   1.852   2.670  0.4642  0.1487  0.6124
 4353TIP3    H134550   0.815   1.820   2.751  1.7226 -1.7511  0.4950
 4353TIP3    H234551   0.802   1.815   2.600 -0.0637  1.0413  0.5270
 4354TIP3   OH234552   3.221   6.264  11.679  0.0423  0.2614  0.0368
 4354TIP3    H134553   3.203   6.177  11.644  1.3716  0.7269 -1.8831
 4354TIP3    H234554   3.144   6.316  11.655 -0.1513 -0.0442 -0.0046
 4355TIP3   OH234555   5.182   6.253  13.573 -0.0966 -0.1176 -0.2487
 4355TIP3    H134556   5.095   6.281  13.546 -0.9583 -0.8895  1.6756
 4355TIP3    H234557   5.220   6.329  13.616 -0.1341 -0.0305 -0.3703
 4356TIP3   OH234558   6.332   0.058   3.525  0.1102  0.7355 -0.6350
 4356TIP3    H134559   6.271  -0.008   3.492  1.2108 -0.3797 -0.4796
 4356TIP3    H234560   6.385   0.082   3.449  0.2219  0.8933 -0.5078
 4357TIP3   OH234561   1.200   1.058  13.188 -0.6245 -0.4764  0.2825
 4357TIP3    H134562   1.177   1.151  13.186  1.2301 -0.0197 -0.8523
 4357TIP3    H234563   1.211   1.037  13.280 -0.3658  0.5949  0.4894
 4358TIP3   OH234564   6.780   1.285   4.632  0.6547 -0.2653  0.1772
 4358TIP3    H134565   6.773   1.205   4.579  3.2491  0.6461 -1.6339
 4358TIP3    H234566   6.869   1.282   4.667  1.3290  2.5755 -1.1847
 4359TIP3   OH234567   5.559   0.746  12.982 -0.5108 -0.3856 -0.3843
 4359TIP3    H134568   5.508   0.671  13.012 -1.5409  0.3033 -0.3946
 4359TIP3    H234569   5.632   0.753  13.044 -0.3791 -1.4254 -0.4205
 4360TIP3   OH234570   2.371   0.788   2.902 -0.0480  0.1654 -0.2942
 4360TIP3    H134571   2.417   0.838   2.969 -1.1748  0.0268  0.5972
 4360TIP3    H234572   2.307   0.849   2.866 -0.3927 -0.1833 -0.2740
 4361TIP3   OH234573   2.320   3.832  12.769  0.1588  0.0913  0.0059
 4361TIP3    H134574   2.392   3.812  12.829 -0.8037 -2.4802  0.3676
 4361TIP3    H234575   2.241   3.803  12.816 -0.7701 -0.2770 -1.7360
 4362TIP3   OH234576   5.279   2.913  14.125  0.0752 -0.8842 -0.0287
 4362TIP3    H134577   5.313   3.002  14.121 -2.3662  0.1353  1.0139
 4362TIP3    H234578   5.312   2.871  14.045  1.7640  0.7362 -0.2149
 4363TIP3   OH234579   6.588   0.832  15.495 -0.0428  0.2969  0.4433
 4363TIP3    H134580   6.514   0.795  15.447 -1.9455  2.4810  1.5857
 4363TIP3    H234581   6.644   0.758  15.515 -1.1078 -1.1724 -1.8677
 4364TIP3   OH234582   0.295   1.716   3.728  0.2566 -0.7813  0.8426
 4364TIP3    H134583   0.320   1.796   3.775  0.1647 -0.7633  0.8604
 4364TIP3    H234584   0.237   1.670   3.788  0.7263 -1.1136  1.0371
 4365TIP3   OH234585   1.922   1.456   3.047 -0.0413  0.1247 -0.4109
 4365TIP3    H134586   2.013   1.467   3.075 -0.0367 -0.8853  0.0049
 4365TIP3    H234587   1.882   1.404   3.117 -1.4011  2.0656  0.2835
 4366TIP3   OH234588   4.279   3.190   3.510 -0.7704  0.0110 -0.4263
 4366TIP3    H134589   4.290   3.138   3.430  0.8169  0.3244 -0.4322
 4366TIP3    H234590   4.185   3.199   3.520 -1.0941 -2.9429 -0.3727
 4367TIP3   OH234591   4.324   4.939   2.863 -0.1730 -0.2294 -0.3948
 4367TIP3    H134592   4.387   4.985   2.808 -0.7192  0.4367 -0.4786
 4367TIP3    H234593   4.306   4.857   2.817 -2.0702  1.1617 -2.1943
 4368TIP3   OH234594   3.759   2.677   3.649 -0.4504  0.2160  0.4626
 4368TIP3    H134595   3.799   2.640   3.570 -0.4520 -2.1134  1.5135
 4368TIP3    H234596   3.783   2.769   3.647 -0.9609  0.3355 -2.5804
 4369TIP3   OH234597   6.313   1.422   3.739  0.4759  0.3679  0.1946
 4369TIP3    H134598   6.350   1.486   3.678 -0.2092  0.0831 -0.5285
 4369TIP3    H234599   6.389   1.372   3.769  1.0251  1.5515  0.8090
 4370TIP3   OH234600   5.561   5.512  10.977 -0.4191 -0.1500 -0.0665
 4370TIP3    H134601   5.539   5.550  10.892  0.0508 -0.2736 -0.2487
 4370TIP3    H234602   5.479   5.476  11.010 -1.2238  2.3971  0.8212
 4371TIP3   OH234603   3.714   4.821  13.553  0.4763  0.5246 -0.4696
 4371TIP3    H134604   3.777   4.891  13.572 -0.2278  1.1240 -0.3483
 4371TIP3    H234605   3.764   4.740  13.567  1.9421  0.9921 -2.7600
 4372TIP3   OH234606   0.186   0.427   4.836  0.0164 -0.5868  0.1119
 4372TIP3    H134607   0.197   0.518   4.865 -1.7397 -0.6522  1.0387
 4372TIP3    H234608   0.216   0.428   4.745 -1.8587  1.3997 -0.5419
 4373TIP3   OH234609   0.201   0.196   0.292  0.1459 -0.0400  0.1268
 4373TIP3    H134610   0.136   0.250   0.247  1.3790  0.9390 -0.4697
 4373TIP3    H234611   0.221   0.126   0.230 -1.0154 -0.9077  0.6794
 4374TIP3   OH234612   2.604   4.432  13.662  0.1043  0.2378  0.0941
 4374TIP3    H134613   2.572   4.415  13.750  0.6199  0.2691  0.2888
 4374TIP3    H234614   2.594   4.526  13.650  0.1791  0.2552  0.1729
 4375TIP3   OH234615   6.804   6.313   6.164 -0.1852  0.0649  0.3413
 4375TIP3    H134616   6.817   6.292   6.257  1.2777  0.2753  0.1911
 4375TIP3    H234617   6.709   6.304   6.151 -0.7362  2.2970  2.4199
 4376TIP3   OH234618   1.411   6.639  12.866 -0.3884  0.4893 -0.9401
 4376TIP3    H134619   1.402   6.702  12.794  0.2640  0.1306 -1.3430
 4376TIP3    H234620   1.397   6.691  12.945  0.1142  1.1361 -1.2693
 4377TIP3   OH234621   5.363   5.171   4.492  0.2385  0.0538  0.0856
 4377TIP3    H134622   5.311   5.175   4.572 -2.4167  0.1806 -1.6083
 4377TIP3    H234623   5.323   5.236   4.434  2.4113  0.2933 -1.1946
 4378TIP3   OH234624   3.939   1.223   1.634  0.5411 -0.5042 -0.1531
 4378TIP3    H134625   4.030   1.217   1.662  1.2760  0.7997 -2.1116
 4378TIP3    H234626   3.933   1.309   1.593 -1.9248 -0.0373  1.1101
 4379TIP3   OH234627   2.147   5.668  10.937  0.0095  0.3037 -0.0843
 4379TIP3    H134628   2.056   5.673  10.906 -0.0225 -0.7421 -0.1856
 4379TIP3    H234629   2.168   5.757  10.964 -1.8778  0.0902  2.2514
 4380TIP3   OH234630   5.380   6.331  16.334 -0.1728  0.4842 -0.5505
 4380TIP3    H134631   5.291   6.341  16.368 -0.9854 -1.3475 -2.0513
 4380TIP3    H234632   5.422   6.415  16.353 -1.3789  0.4314  2.5492
 4381TIP3   OH234633   1.946   0.301  13.929  0.4393  0.9125 -0.5835
 4381TIP3    H134634   1.919   0.344  14.010  0.0662  2.3070 -1.4243
 4381TIP3    H234635   1.953   0.373  13.866  0.9098 -0.1358 -1.7345
 4382TIP3   OH234636   4.748   2.724  13.122 -0.2961 -0.2305 -0.4662
 4382TIP3    H134637   4.666   2.732  13.170 -0.3156  0.3111 -0.5984
 4382TIP3    H234638   4.815   2.748  13.186 -0.2697 -0.2317 -0.4929
 4383TIP3   OH234639   2.886   2.222  14.721  0.0853  0.3738  0.8508
 4383TIP3    H134640   2.911   2.267  14.802 -0.3218  1.8343  0.1729
 4383TIP3    H234641   2.959   2.238  14.662 -0.9217  1.8143 -0.0319
 4384TIP3   OH234642   3.814   6.021  16.851  0.1651  1.1858 -0.4067
 4384TIP3    H134643   3.781   5.943  16.806  3.1418  0.8874 -2.2148
 4384TIP3    H234644   3.802   6.092  16.788 -3.8594  2.5456  1.7684
 4385TIP3   OH234645   1.743   6.007  14.016  0.3159 -0.0949  0.4375
 4385TIP3    H134646   1.687   6.085  14.020 -0.2347 -0.2608 -2.5566
 4385TIP3    H234647   1.720   5.966  13.932  1.9381 -2.4674  1.1071
 4386TIP3   OH234648   6.510   5.617  12.392 -0.0707 -0.1122  0.1090
 4386TIP3    H134649   6.577   5.594  12.456 -0.6887 -0.2821  0.6997
 4386TIP3    H234650   6.555   5.611  12.307  0.5745 -0.5281  0.4754
 4387TIP3   OH234651   6.597   1.878   2.848  0.2153  0.6986 -0.4276
 4387TIP3    H134652   6.590   1.932   2.769  2.6477 -0.7223 -1.6857
 4387TIP3    H234653   6.540   1.803   2.831  1.1313  0.1427 -1.0610
 4388TIP3   OH234654   4.140   2.015   4.534 -0.5754 -0.2527 -0.0527
 4388TIP3    H134655   4.162   2.087   4.474  1.2620  0.5940  1.5489
 4388TIP3    H234656   4.120   1.941   4.477 -1.9231  1.3602 -1.7368
 4389TIP3   OH234657   5.702   4.397  14.718  0.8138  0.4570 -0.3607
 4389TIP3    H134658   5.693   4.352  14.634  3.2998 -0.4644 -0.1780
 4389TIP3    H234659   5.713   4.490  14.694 -0.1102  0.4128 -0.9631
 4390TIP3   OH234660   4.645   4.539  17.100 -0.0925  0.1031  0.5369
 4390TIP3    H134661   4.571   4.585  17.141 -0.9287 -1.4939  0.8699
 4390TIP3    H234662   4.629   4.548  17.006 -2.2260 -2.5086  0.5828
 4391TIP3   OH234663   4.778   0.572   4.800 -0.2563 -0.2844 -0.2487
 4391TIP3    H134664   4.764   0.493   4.747  0.5809 -0.3548 -0.3746
 4391TIP3    H234665   4.729   0.640   4.754 -0.1248 -0.5028 -0.7201
 4392TIP3   OH234666   2.378   0.190  16.708  0.0930  0.8611 -0.1819
 4392TIP3    H134667   2.352   0.187  16.616 -0.6698 -0.1676  0.0564
 4392TIP3    H234668   2.322   0.258  16.746 -0.4036  0.4974 -0.2476
 4393TIP3   OH234669   2.441   3.409  12.462  0.0527  0.1326  0.0104
 4393TIP3    H134670   2.361   3.365  12.434  0.4850 -1.1705  0.7628
 4393TIP3    H234671   2.412   3.490  12.503 -0.6998  1.0939 -2.3638
 4394TIP3   OH234672   0.220   6.577  11.475 -0.0759  0.1711  0.4046
 4394TIP3    H134673   0.253   6.491  11.503 -0.6478 -0.2432 -0.1781
 4394TIP3    H234674   0.137   6.587  11.522 -0.9556 -0.4515 -0.9880
 4395TIP3   OH234675   0.543   2.013   3.002 -0.2710  0.1785  0.6204
 4395TIP3    H134676   0.487   2.056   3.067 -1.0424 -1.0588  0.7871
 4395TIP3    H234677   0.485   1.951   2.957  0.2376  1.0772 -1.3143
 4396TIP3   OH234678   3.879   6.154  13.374 -0.0802 -0.0945 -0.2747
 4396TIP3    H134679   3.969   6.134  13.346 -0.1186  0.6174 -0.9007
 4396TIP3    H234680   3.839   6.068  13.387  0.3889 -0.4259 -0.9640
 4397TIP3   OH234681   6.564   1.583   3.334  0.2106  0.9924 -0.1750
 4397TIP3    H134682   6.585   1.660   3.280  0.0730  0.5504 -0.8663
 4397TIP3    H234683   6.578   1.509   3.276 -2.0674  0.6151 -0.3056
 4398TIP3   OH234684   5.136   4.568   1.476 -0.1561 -0.1397 -0.1604
 4398TIP3    H134685   5.116   4.626   1.550  1.3469 -1.6667  1.4538
 4398TIP3    H234686   5.101   4.483   1.501  0.0444 -0.5898 -1.3604
 4399TIP3   OH234687   5.376   6.747   6.717 -0.1935  0.0205  0.0600
 4399TIP3    H134688   5.430   6.821   6.690 -0.5720 -0.4590 -2.1220
 4399TIP3    H234689   5.300   6.786   6.761 -0.6731  0.9777 -1.5821
 4400TIP3   OH234690   6.097   0.923   5.091  0.0656 -0.1300  0.2979
 4400TIP3    H134691   6.053   0.838   5.098 -0.5241  0.0695 -0.7940
 4400TIP3    H234692   6.160   0.923   5.163  0.1181 -1.5216  0.2783
 4401TIP3   OH234693   6.806   2.028  13.151  0.4747  0.1864 -0.6050
 4401TIP3    H134694   6.853   2.099  13.108 -0.0690  0.5843 -0.5371
 4401TIP3    H234695   6.851   2.018  13.235 -1.4608  2.6365  0.7776
 4402TIP3   OH234696   1.075   5.897  13.961 -0.1042 -0.1391  0.1327
 4402TIP3    H134697   1.168   5.898  13.941 -0.4507 -0.0897 -1.5832
 4402TIP3    H234698   1.057   5.806  13.987  0.4960 -0.0585  0.8029
 4403TIP3   OH234699   3.591   3.548  13.246  0.6480  0.4477  0.6913
 4403TIP3    H134700   3.659   3.507  13.192  1.3948  1.0720  1.1544
 4403TIP3    H234701   3.629   3.551  13.334 -0.4084 -0.1944  1.1707
 4404TIP3   OH234702   1.506   4.268  11.211  0.0100  0.6481  0.4488
 4404TIP3    H134703   1.598   4.286  11.229  0.1540 -1.3556  1.8266
 4404TIP3    H234704   1.484   4.194  11.268 -2.3439  0.8523 -0.1492
 4405TIP3   OH234705   0.607   2.674   2.998 -0.8436 -0.4933 -0.2417
 4405TIP3    H134706   0.686   2.683   3.050  1.0132  0.6166 -3.1423
 4405TIP3    H234707   0.536   2.703   3.056  1.2768  1.7368  1.3107
 4406TIP3   OH234708   4.546   2.132  15.998 -0.0049  0.1961  0.5445
 4406TIP3    H134709   4.570   2.084  16.077  0.5477 -2.4313 -1.1311
 4406TIP3    H234710   4.467   2.087  15.966 -0.3467  1.3658 -0.2623
 4407TIP3   OH234711   4.804   5.943  15.599  0.1501  0.4078  0.5403
 4407TIP3    H134712   4.885   5.974  15.557 -0.4405 -0.3328 -1.1957
 4407TIP3    H234713   4.740   6.011  15.578  0.1199  0.5762  1.1867
 4408TIP3   OH234714   1.151   4.781   0.513 -0.3765  0.0843 -0.2425
 4408TIP3    H134715   1.184   4.783   0.603 -0.5296 -1.2268 -0.1417
 4408TIP3    H234716   1.168   4.691   0.484 -1.5891  0.1071 -1.0419
 4409TIP3   OH234717   4.838   6.806   1.866  0.1619  0.1023  0.0217
 4409TIP3    H134718   4.764   6.794   1.926  0.3431 -0.8546  0.0693
 4409TIP3    H234719   4.894   6.730   1.882  1.1964  0.8639  0.0365
 4410TIP3   OH234720   2.174   1.831   3.963 -0.4275 -0.1486 -0.5891
 4410TIP3    H134721   2.255   1.834   3.912 -2.0892 -0.3042 -3.3206
 4410TIP3    H234722   2.177   1.909   4.018  2.1589 -0.8306  0.3174
 4411TIP3   OH234723   3.700   5.925  13.469 -0.0015 -0.3578  0.3870
 4411TIP3    H134724   3.633   5.968  13.521 -0.9529  1.7823 -2.4314
 4411TIP3    H234725   3.669   5.835  13.458 -1.5881  0.1570  0.5033
 4412TIP3   OH234726   5.805   3.718  12.176  0.0321  0.2058 -0.2544
 4412TIP3    H134727   5.716   3.751  12.177  0.8355  2.4332 -0.2313
 4412TIP3    H234728   5.860   3.796  12.170  1.9533 -1.1819 -1.2598
 4413TIP3   OH234729   6.041   1.284  17.018 -0.1312 -0.1344 -0.4612
 4413TIP3    H134730   6.073   1.373  17.004  0.3641  0.0837  1.8279
 4413TIP3    H234731   5.965   1.295  17.076 -0.2356 -1.1730 -0.3877
 4414TIP3   OH234732   0.556   5.767  11.467  0.4126 -0.5592 -0.3778
 4414TIP3    H134733   0.532   5.719  11.546  0.0769  0.0040 -0.1404
 4414TIP3    H234734   0.504   5.727  11.397 -1.1538  0.5748  0.1085
 4415TIP3   OH234735   5.819   4.964  10.557  0.1996 -0.5251  0.0570
 4415TIP3    H134736   5.748   4.900  10.552 -2.2681  2.2561 -2.2868
 4415TIP3    H234737   5.876   4.942  10.484  0.0900 -0.9118  0.0878
 4416TIP3   OH234738   1.802   2.380  11.322  0.0710 -0.7089  0.0803
 4416TIP3    H134739   1.785   2.345  11.409 -1.0973 -0.3043  0.0242
 4416TIP3    H234740   1.896   2.369  11.309 -0.0001 -2.1930  0.7710
 4417TIP3   OH234741   5.034   6.498  14.898  0.3198 -0.2415 -0.3493
 4417TIP3    H134742   5.095   6.455  14.957 -0.0888 -1.2603 -0.6653
 4417TIP3    H234743   5.078   6.580  14.873  0.0564  0.7044  2.1568
 4418TIP3   OH234744   3.108   2.864   4.046  0.3376 -0.3319  0.3601
 4418TIP3    H134745   3.188   2.827   4.010 -0.0689 -0.5655 -0.2981
 4418TIP3    H234746   3.129   2.957   4.059 -0.6667  0.5592 -3.8988
 4419TIP3   OH234747   3.799   6.463  16.589 -0.3854  0.5778 -0.5498
 4419TIP3    H134748   3.732   6.507  16.641 -2.5997 -2.0912 -1.0471
 4419TIP3    H234749   3.773   6.477  16.498  0.0384 -0.0021 -0.7663
 4420TIP3   OH234750   1.620   6.451   4.597 -0.2669 -0.1670  0.0299
 4420TIP3    H134751   1.626   6.431   4.504 -0.1721 -1.9700  0.4096
 4420TIP3    H234752   1.615   6.546   4.601 -0.1457 -0.0751 -1.8086
 4421TIP3   OH234753   5.219   1.671  13.592 -0.1984  0.4064  0.1509
 4421TIP3    H134754   5.243   1.597  13.535 -0.5248 -0.8577  1.6058
 4421TIP3    H234755   5.202   1.630  13.677 -0.5766  2.1571  0.9293
 4422TIP3   OH234756   3.760   0.300   1.234 -0.5406  0.0642  0.1930
 4422TIP3    H134757   3.706   0.222   1.231  1.1416 -1.1075 -0.1355
 4422TIP3    H234758   3.807   0.301   1.151 -0.8428  1.6364  0.0284
 4423TIP3   OH234759   4.628   5.229  12.251 -0.0793  0.0495 -0.0219
 4423TIP3    H134760   4.690   5.184  12.193 -0.5155 -3.8810  2.3611
 4423TIP3    H234761   4.651   5.200  12.339 -2.0735  2.5799  1.4257
 4424TIP3   OH234762   3.171   2.554  11.423 -0.3589  0.4685 -0.6279
 4424TIP3    H134763   3.128   2.582  11.504  0.2121 -0.9048  0.1625
 4424TIP3    H234764   3.150   2.623  11.360 -0.0579  2.0045  0.9228
 4425TIP3   OH234765   5.952   3.770  16.119 -0.2390  0.3414 -0.2665
 4425TIP3    H134766   5.889   3.702  16.144  0.4396 -0.2723 -0.2050
 4425TIP3    H234767   5.910   3.852  16.144 -0.9572 -0.0710 -0.1043
 4426TIP3   OH234768   6.394   5.523   2.382 -0.1786  0.3356 -0.2466
 4426TIP3    H134769   6.361   5.599   2.430 -1.2656 -0.5039  0.3604
 4426TIP3    H234770   6.451   5.560   2.315  0.1506  1.6194  0.7230
 4427TIP3   OH234771   1.982   3.555  15.493  0.3954 -0.2655 -0.6153
 4427TIP3    H134772   2.046   3.500  15.538 -0.6112 -2.5419 -1.9089
 4427TIP3    H234773   1.899   3.539  15.539 -0.1722 -0.8685 -1.8087
 4428TIP3   OH234774   0.795   3.217  14.347 -0.1738 -0.0998  0.0390
 4428TIP3    H134775   0.875   3.270  14.349 -0.7483  0.7455  1.4498
 4428TIP3    H234776   0.752   3.234  14.431 -1.2339 -1.4892 -0.1895
 4429TIP3   OH234777   1.280   2.176   1.079 -0.0224  0.1135 -0.2211
 4429TIP3    H134778   1.352   2.122   1.046  2.0275  3.1935 -0.9606
 4429TIP3    H234779   1.259   2.235   1.007 -3.7229 -1.0655 -0.2192
 4430TIP3   OH234780   5.492   5.645  15.884  0.5052 -0.4467 -0.1066
 4430TIP3    H134781   5.493   5.550  15.889  0.5611 -0.4428 -0.0514
 4430TIP3    H234782   5.486   5.664  15.790 -0.5933 -0.5076 -0.0524
 4431TIP3   OH234783   2.765   5.141   2.871  0.5277 -0.1823  0.6003
 4431TIP3    H134784   2.842   5.164   2.820 -0.4031  0.8915 -0.3562
 4431TIP3    H234785   2.691   5.164   2.815 -0.4939 -1.2128  1.4916
 4432TIP3   OH234786   6.722   3.234  12.070  0.3203 -0.5006  0.6799
 4432TIP3    H134787   6.693   3.164  12.011  1.5828 -0.6411  0.2256
 4432TIP3    H234788   6.704   3.315  12.023 -0.7216 -0.5239  1.0207
 4433TIP3   OH234789   2.603   6.655  15.673  0.1609 -0.3037  0.1095
 4433TIP3    H134790   2.611   6.712  15.750  3.1140  0.7171 -0.8706
 4433TIP3    H234791   2.557   6.578  15.705  0.2242  0.6524  2.6097
 4434TIP3   OH234792   5.410   4.848   1.385 -0.4066  0.0401 -0.4311
 4434TIP3    H134793   5.414   4.754   1.406  0.9923  0.2824  0.4410
 4434TIP3    H234794   5.367   4.852   1.300  0.1484 -1.4425 -0.7955
 4435TIP3   OH234795   5.128   3.126   2.638 -0.0121 -0.3112 -0.9196
 4435TIP3    H134796   5.110   3.095   2.549 -1.4986 -1.9416 -0.0698
 4435TIP3    H234797   5.138   3.046   2.690 -0.7109  0.6210  0.6864
 4436TIP3   OH234798   4.747   5.080   3.247 -0.9179 -0.2339  0.0305
 4436TIP3    H134799   4.738   5.129   3.328 -1.1115  0.4748 -0.4133
 4436TIP3    H234800   4.749   4.988   3.274 -2.1547 -0.0585  0.7320
 4437TIP3   OH234801   0.845   1.462   4.303 -0.3236  0.4378 -0.0206
 4437TIP3    H134802   0.834   1.381   4.352 -1.0381  0.5663  0.0339
 4437TIP3    H234803   0.925   1.449   4.253  0.4631  0.3431  1.2436
 4438TIP3   OH234804   5.565   3.747   3.761  0.9849  0.3175 -0.3655
 4438TIP3    H134805   5.646   3.792   3.734 -0.0643  1.5737 -1.4835
 4438TIP3    H234806   5.532   3.707   3.681  0.1359  0.3715 -0.0497
 4439TIP3   OH234807   0.818   5.992   2.323 -0.4557  1.0273  0.0828
 4439TIP3    H134808   0.863   6.062   2.369 -0.4352  1.6729 -0.9172
 4439TIP3    H234809   0.834   6.008   2.230 -2.1313  0.8639 -0.2639
 4440TIP3   OH234810   0.791   2.961  11.301 -0.2678  0.0232 -0.2357
 4440TIP3    H134811   0.717   3.007  11.262 -0.1832  1.8802  1.6568
 4440TIP3    H234812   0.842   2.928  11.227 -1.0850  1.8453 -1.6269
 4441TIP3   OH234813   4.304   1.188   5.125 -0.3604  0.3176 -0.6265
 4441TIP3    H134814   4.323   1.166   5.034 -0.7170  0.3338 -0.7050
 4441TIP3    H234815   4.364   1.259   5.145 -1.0985  1.1220 -1.2175
 4442TIP3   OH234816   5.422   1.219   6.109  0.8446  0.7471 -0.2920
 4442TIP3    H134817   5.414   1.165   6.187 -0.2605  1.6875  0.2663
 4442TIP3    H234818   5.417   1.309   6.142  0.2964  1.1485 -1.4564
 4443TIP3   OH234819   2.452   2.727  15.506  0.2188  0.4181  0.1808
 4443TIP3    H134820   2.393   2.653  15.494  0.7157 -0.1640  1.1823
 4443TIP3    H234821   2.422   2.793  15.444  0.4145 -1.0124 -1.4621
 4444TIP3   OH234822   6.051   6.626   1.248  0.9670 -0.4546  0.0969
 4444TIP3    H134823   6.122   6.565   1.231  0.3949 -1.8262  2.4943
 4444TIP3    H234824   6.003   6.589   1.322  0.7588  3.0202  1.8086
 4445TIP3   OH234825   0.992   6.181  15.892  0.2198 -0.2300  0.6244
 4445TIP3    H134826   0.939   6.109  15.858  2.5041 -2.1124  0.9764
 4445TIP3    H234827   1.050   6.205  15.820  0.2340  0.5460  0.8851
 4446TIP3   OH234828   3.653   1.435   1.365  0.0948  0.0642 -0.8076
 4446TIP3    H134829   3.638   1.358   1.311 -3.1801  1.1921 -1.5934
 4446TIP3    H234830   3.579   1.438   1.424  0.8273  1.9177  0.0515
 4447TIP3   OH234831   2.723   2.143   4.714 -0.1121  0.4062  0.1561
 4447TIP3    H134832   2.707   2.076   4.780 -1.3386 -0.8199 -1.3695
 4447TIP3    H234833   2.773   2.099   4.646 -1.2770  0.9158 -1.0519
 4448TIP3   OH234834   3.070   1.931  12.693 -0.2484  0.1153  0.1713
 4448TIP3    H134835   3.120   1.962  12.769  0.7931  0.8894 -0.7964
 4448TIP3    H234836   3.073   1.836  12.699  1.2893  0.1513  0.1959
 4449TIP3   OH234837   5.541   6.698  15.482  0.4233  0.1290 -0.0534
 4449TIP3    H134838   5.616   6.665  15.433  0.4963 -0.9758  0.7843
 4449TIP3    H234839   5.524   6.785  15.445  2.6131  0.7287  0.2941
 4450TIP3   OH234840   4.681   2.523  15.596 -0.5522 -0.1341  0.1779
 4450TIP3    H134841   4.656   2.508  15.505  0.3344 -2.9455  0.3382
 4450TIP3    H234842   4.601   2.503  15.646 -0.3784 -0.9405  0.1467
 4451TIP3   OH234843   5.231   6.040   3.793 -0.3975 -0.0155  0.0685
 4451TIP3    H134844   5.167   6.061   3.861 -0.2201 -1.3446  0.6583
 4451TIP3    H234845   5.201   5.956   3.757  1.1108 -0.7514  0.4941
 4452TIP3   OH234846   0.434   4.583   3.764  0.4308 -0.5396 -0.2340
 4452TIP3    H134847   0.381   4.526   3.819  0.5473 -0.8110 -0.4014
 4452TIP3    H234848   0.386   4.588   3.681  1.9257 -2.8114 -1.2553
 4453TIP3   OH234849   2.557   2.849   4.362  0.2739 -0.0665  0.0250
 4453TIP3    H134850   2.482   2.827   4.417  0.2407  3.1957  1.3840
 4453TIP3    H234851   2.626   2.790   4.391 -1.2592 -1.9974 -0.1298
 4454TIP3   OH234852   0.318   0.006   5.090  0.0977 -0.4563 -0.2459
 4454TIP3    H134853   0.334   0.083   5.037 -1.9668  1.5070  1.8350
 4454TIP3    H234854   0.307   0.040   5.179 -0.0465 -3.2411  0.8611
 4455TIP3   OH234855   6.038   5.847   4.119  0.4897 -0.5138  0.1493
 4455TIP3    H134856   5.945   5.846   4.096  0.5495  0.0406 -0.0960
 4455TIP3    H234857   6.081   5.800   4.048  0.2037 -2.2189  1.0749
 4456TIP3   OH234858   0.202   0.038   2.480 -0.5302 -0.0416  0.0745
 4456TIP3    H134859   0.123  -0.014   2.489  0.3394 -0.9574  2.6993
 4456TIP3    H234860   0.254   0.018   2.558  1.9841  1.0604 -1.2476
 4457TIP3   OH234861   6.818   4.767   4.063 -0.4240 -0.5277 -0.1639
 4457TIP3    H134862   6.904   4.741   4.029 -0.1330 -0.8167  0.7624
 4457TIP3    H234863   6.757   4.749   3.992  0.3200 -0.0880 -0.9162
 4458TIP3   OH234864   1.338   1.878   2.637  0.0428 -0.7268  0.3931
 4458TIP3    H134865   1.309   1.941   2.704  0.3312  0.0582 -0.2104
 4458TIP3    H234866   1.414   1.836   2.676  0.9840  0.6367  0.0651
 4459TIP3   OH234867   3.065   2.192   4.627 -0.2830 -1.0526  0.0982
 4459TIP3    H134868   3.007   2.125   4.662 -0.4856 -0.7703  0.3007
 4459TIP3    H234869   3.016   2.231   4.555  0.2635 -1.8594 -0.7247
 4460TIP3   OH234870   3.551   5.127   5.910  0.2251 -0.0046  0.1015
 4460TIP3    H134871   3.619   5.071   5.870  0.8446 -0.5121  1.8470
 4460TIP3    H234872   3.533   5.086   5.994 -0.9804  1.1486  0.4070
 4461TIP3   OH234873   6.264   4.766  15.104 -0.3762 -0.1970 -0.2378
 4461TIP3    H134874   6.333   4.808  15.156 -0.3759 -0.4271 -0.0516
 4461TIP3    H234875   6.274   4.803  15.016 -1.0588  1.0206  0.1807
 4462TIP3   OH234876   5.283   1.507   3.035  0.0738 -0.3166  0.3785
 4462TIP3    H134877   5.306   1.426   3.079 -0.3564  0.2106  1.6119
 4462TIP3    H234878   5.330   1.575   3.083 -0.9426  0.3384  0.4738
 4463TIP3   OH234879   6.252   1.639  16.423  0.4739 -0.5409  0.3735
 4463TIP3    H134880   6.315   1.640  16.351  1.5359  0.0662  1.2883
 4463TIP3    H234881   6.212   1.553  16.420  0.2236 -0.3809 -1.1880
 4464TIP3   OH234882   4.723   5.256  12.884 -0.3309  0.0652  0.5682
 4464TIP3    H134883   4.660   5.186  12.867  0.0796 -0.6244  1.8333
 4464TIP3    H234884   4.738   5.296  12.799 -0.0222 -1.8579 -0.3046
 4465TIP3   OH234885   1.830   0.083  12.388 -0.3157 -0.1168 -0.1958
 4465TIP3    H134886   1.865   0.021  12.453 -0.4463 -0.7461 -0.7234
 4465TIP3    H234887   1.735   0.079  12.401 -0.2593  0.8726  0.5824
 4466TIP3   OH234888   6.583   6.237  15.250 -0.3697 -0.8068  0.4207
 4466TIP3    H134889   6.521   6.177  15.209 -0.6262  0.2212 -0.7252
 4466TIP3    H234890   6.572   6.222  15.344 -0.8360 -2.1378  0.1647
 4467TIP3   OH234891   3.576   6.244   4.618  0.1913 -0.2890  0.1390
 4467TIP3    H134892   3.538   6.301   4.685 -1.4600 -1.1739 -0.0250
 4467TIP3    H234893   3.652   6.204   4.662 -0.9191 -0.9268  1.5281
 4468TIP3   OH234894   6.649   3.448   3.660  0.0485 -0.2122  0.5950
 4468TIP3    H134895   6.652   3.374   3.720  1.0104 -0.1289  0.6546
 4468TIP3    H234896   6.722   3.505   3.687 -0.5783  0.6721  0.4471
 4469TIP3   OH234897   3.253   3.453  13.815 -0.7639  0.3207  0.3018
 4469TIP3    H134898   3.204   3.380  13.777 -0.2428  0.2828 -0.3060
 4469TIP3    H234899   3.309   3.483  13.744 -0.2205  0.6411  0.8687
 4470TIP3   OH234900   3.821   3.065   4.636  0.2077 -0.1384 -0.0163
 4470TIP3    H134901   3.797   3.157   4.641  0.5794 -0.1306  1.6487
 4470TIP3    H234902   3.837   3.050   4.542 -2.0336  0.9085 -0.5923
 4471TIP3   OH234903   0.993   0.041  15.513 -0.6048 -0.3828 -0.3025
 4471TIP3    H134904   1.052  -0.025  15.477 -0.2788 -0.2205 -0.0621
 4471TIP3    H234905   0.908   0.020  15.474 -0.3044 -0.3552 -0.9784
 4472TIP3   OH234906   2.199   3.663   5.281  0.0158 -0.0485 -0.0758
 4472TIP3    H134907   2.139   3.738   5.283 -1.5264 -1.2309 -0.5264
 4472TIP3    H234908   2.231   3.660   5.191 -0.5703 -0.4008 -0.2793
 4473TIP3   OH234909   2.342   4.074  16.787  0.2030  0.7141 -0.7625
 4473TIP3    H134910   2.261   4.087  16.737 -0.7473 -0.6123  0.3735
 4473TIP3    H234911   2.344   3.980  16.805  1.5700  0.8720 -0.0626
 4474TIP3   OH234912   0.119   4.651  15.250  0.2732 -0.4567  0.2631
 4474TIP3    H134913   0.195   4.659  15.307 -0.2022  1.4150  0.6937
 4474TIP3    H234914   0.136   4.712  15.179  0.3981 -2.0274 -1.0763
 4475TIP3   OH234915   6.357   3.437   4.959  0.3228  0.1537  0.4043
 4475TIP3    H134916   6.355   3.413   4.867  0.3797 -0.8930  0.6762
 4475TIP3    H234917   6.279   3.493   4.971  0.7706  0.9727 -0.4502
 4476TIP3   OH234918   6.315   0.923   0.722  0.8521 -0.3014 -0.6058
 4476TIP3    H134919   6.375   0.969   0.663  0.7886 -1.0401 -1.2608
 4476TIP3    H234920   6.372   0.881   0.786  0.8528  1.7394  0.8026
 4477TIP3   OH234921   3.055   5.817   5.248  0.1335  0.3559  0.4634
 4477TIP3    H134922   3.029   5.745   5.192  0.1248 -0.2451  1.2332
 4477TIP3    H234923   2.975   5.867   5.263 -0.4412 -1.0800  2.2425
 4478TIP3   OH234924   4.570   0.158   1.485  0.0293 -0.0573  0.1953
 4478TIP3    H134925   4.644   0.113   1.526 -0.7021 -1.1572  0.3244
 4478TIP3    H234926   4.534   0.213   1.554  0.3610  0.0163  0.3093
 4479TIP3   OH234927   3.451   1.680  16.021  0.2206  0.0565 -0.1901
 4479TIP3    H134928   3.491   1.658  15.937 -1.3860  2.6017 -1.6841
 4479TIP3    H234929   3.499   1.757  16.050  0.3265 -0.4286  0.9412
 4480TIP3   OH234930   0.689   4.431  14.970 -0.1512  0.3827  0.1368
 4480TIP3    H134931   0.687   4.438  14.874  0.2709  1.5363  0.2062
 4480TIP3    H234932   0.757   4.366  14.988 -0.0341  0.3720 -0.3357
 4481TIP3   OH234933   6.464   5.267   1.733  0.0058 -0.2642 -0.4973
 4481TIP3    H134934   6.375   5.251   1.703  0.1376  0.4141 -1.2579
 4481TIP3    H234935   6.488   5.187   1.780 -0.7215 -0.7583 -0.9607
 4482TIP3   OH234936   0.698   6.103   0.729  0.0145 -0.7228  0.8025
 4482TIP3    H134937   0.630   6.092   0.663  0.2111  1.2739  0.2191
 4482TIP3    H234938   0.763   6.036   0.708  0.2719  0.1348 -1.3135
 4483TIP3   OH234939   4.641   4.064  11.588  0.4631 -0.0204 -0.2803
 4483TIP3    H134940   4.562   4.098  11.547  1.3910  0.6588 -1.5387
 4483TIP3    H234941   4.688   4.020  11.516  1.2640 -0.3556  0.4409
 4484TIP3   OH234942   0.148   3.787  11.317 -0.2029  0.2110  0.2194
 4484TIP3    H134943   0.166   3.865  11.370 -1.7731  0.6878  0.0747
 4484TIP3    H234944   0.206   3.795  11.242 -0.2461  1.1605  0.2842
 4485TIP3   OH234945   3.400   1.504  12.656  0.2942  0.3360 -0.3399
 4485TIP3    H134946   3.413   1.413  12.680  0.2370  0.1828 -0.8728
 4485TIP3    H234947   3.473   1.551  12.697 -0.4170  0.2439  1.0343
 4486TIP3   OH234948   3.247   0.011   6.120 -0.3755  0.1766  0.2702
 4486TIP3    H134949   3.296  -0.053   6.171 -1.8197 -1.7134 -0.6684
 4486TIP3    H234950   3.221   0.078   6.184 -0.3875 -1.0904  1.5970
 4487TIP3   OH234951   4.426   5.199  13.095  0.3810 -0.0504  0.5799
 4487TIP3    H134952   4.371   5.264  13.138 -0.1784 -0.0148 -0.1845
 4487TIP3    H234953   4.445   5.236  13.009 -0.5335 -1.1988 -0.1397
 4488TIP3   OH234954   0.623   5.353  11.759 -0.2043  0.2621  0.2148
 4488TIP3    H134955   0.711   5.380  11.731 -0.4763  0.8427 -0.0989
 4488TIP3    H234956   0.592   5.295  11.689  0.1500 -0.4052  0.6051
 4489TIP3   OH234957   2.466   1.456   4.448  0.0478 -0.4579  0.0753
 4489TIP3    H134958   2.509   1.542   4.445 -1.0377  0.0589 -1.5024
 4489TIP3    H234959   2.395   1.463   4.385 -0.8881 -2.0896  0.9230
 4490TIP3   OH234960   1.060   0.060  16.386 -0.3672  0.0548  0.4040
 4490TIP3    H134961   0.985   0.004  16.365 -1.4082  1.5500  0.0794
 4490TIP3    H234962   1.065   0.122  16.314  0.1961  0.9859  1.2262
 4491TIP3   OH234963   0.398   5.902   3.101  0.2271  0.4980  0.5283
 4491TIP3    H134964   0.340   5.894   3.026 -0.0454 -1.2921  0.9184
 4491TIP3    H234965   0.486   5.907   3.063 -0.1601  4.2580 -0.1218
 4492TIP3   OH234966   1.679   5.020  16.518 -0.0303 -0.5591  0.0403
 4492TIP3    H134967   1.623   4.943  16.513  0.4738 -0.8621 -1.3664
 4492TIP3    H234968   1.686   5.050  16.427  1.0623  0.2042  0.3621
 4493TIP3   OH234969   0.882   0.631  11.377  0.0423  0.0278  0.6808
 4493TIP3    H134970   0.906   0.707  11.429  0.2166 -0.2330  0.9904
 4493TIP3    H234971   0.919   0.557  11.425  0.7106 -0.1707 -0.1216
 4494TIP3   OH234972   1.681   0.873   4.104 -0.2362 -0.9640 -0.8801
 4494TIP3    H134973   1.739   0.948   4.112 -0.1573 -0.9916 -1.2018
 4494TIP3    H234974   1.682   0.851   4.011 -1.7962 -0.1481 -1.1067
 4495TIP3   OH234975   5.445   2.791  12.329 -0.3110  0.0385  0.2337
 4495TIP3    H134976   5.437   2.699  12.355 -0.3706  0.0043  0.0913
 4495TIP3    H234977   5.516   2.792  12.264  0.1211  0.1865  0.7031
 4496TIP3   OH234978   5.943   6.546  17.055  0.2336  0.0342 -0.0831
 4496TIP3    H134979   5.950   6.465  17.003  0.9634 -0.0697  0.1622
 4496TIP3    H234980   5.998   6.609  17.009 -0.1682  0.3329 -0.1586
 4497TIP3   OH234981   0.637   1.386   6.124 -0.0514  0.3136  0.0538
 4497TIP3    H134982   0.688   1.396   6.204  2.7520 -1.7200 -1.4250
 4497TIP3    H234983   0.546   1.388   6.153  0.9209 -2.2167  3.5276
 4498TIP3   OH234984   1.272   2.941   1.891  0.0365  0.6901  0.2265
 4498TIP3    H134985   1.264   2.928   1.986  2.0550 -0.6707  0.2458
 4498TIP3    H234986   1.233   2.862   1.853  2.5088 -0.5368  0.0716
 4499TIP3   OH234987   3.508   3.906   5.708  0.1102  0.5659 -0.1986
 4499TIP3    H134988   3.511   3.866   5.795 -1.0421  0.0132 -0.3980
 4499TIP3    H234989   3.585   3.962   5.705 -0.5540  1.6330  1.6800
 4500TIP3   OH234990   0.442   1.553  17.072 -0.1350 -0.3350 -0.6006
 4500TIP3    H134991   0.506   1.566  17.141  1.2738 -1.0066 -1.7454
 4500TIP3    H234992   0.387   1.631  17.075  0.7661  0.2797  0.3741
 4501TIP3   OH234993   5.715   2.931  16.170 -0.0267 -0.0598 -0.0049
 4501TIP3    H134994   5.692   2.847  16.209 -1.1195  0.3835  0.3398
 4501TIP3    H234995   5.674   2.929  16.083 -1.3574  0.7117  0.5913
 4502TIP3   OH234996   6.482   3.064   5.392  0.0969  0.4219  0.3003
 4502TIP3    H134997   6.559   3.121   5.382 -0.6637  1.4867  0.3737
 4502TIP3    H234998   6.518   2.978   5.411  1.2808  0.9046  0.3015
 4503TIP3   OH234999   6.505   2.026  13.966 -0.5275  0.2217  0.1160
 4503TIP3    H135000   6.518   1.974  13.887 -0.3196  1.1031 -0.4406
 4503TIP3    H235001   6.425   1.991  14.005 -0.6367 -0.2183 -0.4956
 4504TIP3   OH235002   4.039   4.554  14.684  0.3432  0.0271 -0.1121
 4504TIP3    H135003   4.020   4.638  14.642  0.1053  1.0026  1.8577
 4504TIP3    H235004   4.057   4.494  14.612  1.3513  1.9742 -1.5380
 4505TIP3   OH235005   2.206   2.535   4.612  0.1818  0.8451 -0.1312
 4505TIP3    H135006   2.166   2.448   4.615  0.4610  0.6990 -0.5688
 4505TIP3    H235007   2.273   2.533   4.680  1.0475  0.2837 -0.9873
 4506TIP3   OH235008   6.143   3.923   1.561  0.1113 -0.3292  0.1695
 4506TIP3    H135009   6.228   3.966   1.574  0.2855 -0.4833 -0.4077
 4506TIP3    H235010   6.082   3.994   1.545  0.5844 -0.3161 -1.7911
 4507TIP3   OH235011   1.584   2.779  16.178  0.9419 -0.9509  0.8596
 4507TIP3    H135012   1.597   2.696  16.131  0.6328 -0.7152  0.3425
 4507TIP3    H235013   1.590   2.846  16.110 -1.2067 -0.7155  0.8446
 4508TIP3   OH235014   1.129   5.582   2.114 -0.2848 -0.2535  0.3476
 4508TIP3    H135015   1.194   5.526   2.155 -0.0518 -1.1371 -1.1696
 4508TIP3    H235016   1.057   5.586   2.177  0.4993 -0.7071  1.2796
 4509TIP3   OH235017   2.962   1.405  15.396 -0.3957 -0.0045  0.1889
 4509TIP3    H135018   3.021   1.462  15.446 -0.6083  1.1721 -0.8964
 4509TIP3    H235019   2.876   1.420  15.435 -0.5608  0.9088 -0.5180
 4510TIP3   OH235020   4.022   5.204   4.315  0.7917 -0.5970 -0.2276
 4510TIP3    H135021   4.106   5.175   4.279  1.2357 -0.3715  0.6116
 4510TIP3    H235022   3.986   5.127   4.358  1.5254 -0.1577  1.1782
 4511TIP3   OH235023   0.937   2.469  15.633  0.6096 -0.1597 -0.7762
 4511TIP3    H135024   1.003   2.414  15.592  1.3213  1.7464 -2.2828
 4511TIP3    H235025   0.884   2.502  15.561  0.8551  1.9513 -0.0437
 4512TIP3   OH235026   6.688   1.713  14.570 -0.3143 -0.1342 -0.0396
 4512TIP3    H135027   6.744   1.680  14.501 -0.1676 -0.0446  0.0351
 4512TIP3    H235028   6.617   1.758  14.524  1.8924  3.4701 -0.1456
 4513TIP3   OH235029   1.823   5.549   5.337 -0.0224 -0.3759  0.2274
 4513TIP3    H135030   1.743   5.596   5.317  0.1771 -0.4594 -0.8352
 4513TIP3    H235031   1.847   5.577   5.425 -0.9436  0.0305  0.3493
 4514TIP3   OH235032   6.227   3.419   3.697 -0.5659 -0.1111  0.0215
 4514TIP3    H135033   6.182   3.377   3.624 -0.4024  1.3437 -0.9368
 4514TIP3    H235034   6.251   3.505   3.664  1.0859 -0.0900  1.2021
 4515TIP3   OH235035   5.757   6.113  12.842 -0.4177  0.2361 -0.3176
 4515TIP3    H135036   5.796   6.048  12.900  0.9374  1.6847  0.4421
 4515TIP3    H235037   5.673   6.076  12.816  0.6575 -2.1381 -0.4852
 4516TIP3   OH235038   3.995   4.468   2.498 -0.0670 -0.4289  0.1540
 4516TIP3    H135039   3.921   4.528   2.495 -0.5974 -1.0870 -0.0455
 4516TIP3    H235040   4.014   4.449   2.407  1.1580  0.7174  0.1595
 4517TIP3   OH235041   1.459   0.251   6.008  0.2755  0.5441 -0.3463
 4517TIP3    H135042   1.521   0.293   6.068 -0.3175  1.9960 -0.7360
 4517TIP3    H235043   1.447   0.163   6.044  1.2665  0.8102  0.6750
 4518TIP3   OH235044   1.458   1.150   3.413  0.4213 -0.0787  0.6237
 4518TIP3    H135045   1.441   1.057   3.398  1.1255 -0.9000  4.5223
 4518TIP3    H235046   1.373   1.187   3.437  0.3730  0.0266  0.2904
 4519TIP3   OH235047   0.248   0.249   1.302  0.0735 -0.5788 -0.0215
 4519TIP3    H135048   0.337   0.263   1.270 -0.0106  2.9774  1.1618
 4519TIP3    H235049   0.191   0.277   1.230 -0.0806  0.6443  0.5644
 4520TIP3   OH235050   3.411   6.481   3.352  0.2079 -0.0490 -0.3926
 4520TIP3    H135051   3.382   6.391   3.366 -0.0686  0.2411  0.9476
 4520TIP3    H235052   3.373   6.530   3.424  1.9393  0.7935 -0.0252
 4521TIP3   OH235053   4.265   6.285   2.885 -0.0116 -0.2772  0.3346
 4521TIP3    H135054   4.183   6.287   2.836 -0.6802 -1.3655  1.3822
 4521TIP3    H235055   4.239   6.280   2.976  1.1719 -3.4869  0.5655
 4522TIP3   OH235056   1.285   6.441  15.647 -0.4945  0.0170  0.2910
 4522TIP3    H135057   1.232   6.368  15.679 -1.4679  1.2474  1.5133
 4522TIP3    H235058   1.360   6.443  15.706 -0.1437 -0.3859 -0.1365
 4523TIP3   OH235059   4.316   1.437  12.269 -0.4601  0.2985 -0.1946
 4523TIP3    H135060   4.309   1.530  12.289 -0.5388  0.3187 -0.3104
 4523TIP3    H235061   4.266   1.427  12.188 -0.0815  0.2334 -0.4207
 4524TIP3   OH235062   4.348   3.946  10.868  0.5624 -0.6244  0.2194
 4524TIP3    H135063   4.332   4.037  10.840  1.8213 -1.0018 -1.8265
 4524TIP3    H235064   4.438   3.928  10.841  0.4699 -2.3413  1.0130
 4525TIP3   OH235065   1.391   2.191   2.450 -0.1147 -0.4212 -0.3062
 4525TIP3    H135066   1.322   2.252   2.424  0.6349  2.0481  3.1101
 4525TIP3    H235067   1.453   2.191   2.377 -1.1327  1.3932 -1.1947
 4526TIP3   OH235068   1.023   2.279   3.351 -0.4694  0.4378  0.4250
 4526TIP3    H135069   1.096   2.232   3.312  0.4103  1.1118  1.2359
 4526TIP3    H235070   0.976   2.317   3.276 -0.7067 -1.0242 -0.1666
 4527TIP3   OH235071   5.118   6.195   2.403  0.2624 -0.0291 -0.7190
 4527TIP3    H135072   5.173   6.124   2.438  1.0627  1.1043  0.4034
 4527TIP3    H235073   5.067   6.154   2.334  1.6784 -1.3978 -0.9944
 4528TIP3   OH235074   2.862   2.827  15.060 -0.2902 -0.9147 -0.3757
 4528TIP3    H135075   2.803   2.757  15.034 -2.4159  1.2993 -1.6403
 4528TIP3    H235076   2.918   2.842  14.983 -1.0386 -0.0154 -0.7508
 4529TIP3   OH235077   5.872   3.503  14.238 -0.0356 -0.0934  0.9115
 4529TIP3    H135078   5.791   3.554  14.245  0.5389  1.0257 -0.2096
 4529TIP3    H235079   5.934   3.564  14.197  1.1237 -1.2126  0.9821
 4530TIP3   OH235080   3.332   6.575  13.123  0.3061 -0.6103 -0.0806
 4530TIP3    H135081   3.272   6.531  13.184 -2.2296 -0.1973 -2.2000
 4530TIP3    H235082   3.332   6.666  13.153 -0.2148 -0.5934 -0.1150
 4531TIP3   OH235083   0.733   3.608  11.962  0.1101 -0.1872  0.0533
 4531TIP3    H135084   0.789   3.532  11.974 -0.5692 -1.2310 -2.9841
 4531TIP3    H235085   0.792   3.683  11.970  0.9987 -1.0404  1.8619
 4532TIP3   OH235086   6.385   0.292  15.278  0.1525 -0.1611 -0.2569
 4532TIP3    H135087   6.321   0.356  15.248 -0.2127  0.2497  1.3225
 4532TIP3    H235088   6.383   0.299  15.374  0.7320 -1.9218 -0.0892
 4533TIP3   OH235089   6.306   5.154  11.913 -0.5549 -0.2450  0.4395
 4533TIP3    H135090   6.325   5.167  12.006 -0.1594 -1.5280  0.5534
 4533TIP3    H235091   6.267   5.066  11.909 -0.3255 -0.3033 -0.6391
 4534TIP3   OH235092   5.957   0.937   4.162  0.2585 -0.9203  0.3362
 4534TIP3    H135093   5.918   0.861   4.120 -0.2030 -0.0379 -0.8562
 4534TIP3    H235094   5.903   0.953   4.239 -1.8937  0.3744 -1.3695
 4535TIP3   OH235095   5.078   5.161   0.252  0.4147 -0.8855 -0.1923
 4535TIP3    H135096   5.145   5.096   0.273  0.5273 -0.1564  1.8907
 4535TIP3    H235097   4.998   5.126   0.290  0.6067  0.4488  1.5147
 4536TIP3   OH235098   0.054   6.213   5.573  0.1877 -0.1858  0.5130
 4536TIP3    H135099   0.061   6.306   5.593  1.6410 -0.3392  0.7382
 4536TIP3    H235100  -0.005   6.179   5.640 -0.0049  0.4864  0.6948
 4537TIP3   OH235101   0.131   1.849   4.471 -0.2354 -0.5590 -0.2779
 4537TIP3    H135102   0.097   1.866   4.383  0.9570  0.9940 -0.4777
 4537TIP3    H235103   0.188   1.773   4.460  0.2376 -0.1148 -0.9374
 4538TIP3   OH235104   4.304   0.724   2.776  0.4960  0.0388  0.3017
 4538TIP3    H135105   4.364   0.766   2.715  0.3020  0.3335  0.3090
 4538TIP3    H235106   4.324   0.763   2.861  0.8222 -0.4332  0.4385
 4539TIP3   OH235107   3.663   0.094  14.789 -0.3298 -0.0240 -0.1824
 4539TIP3    H135108   3.694   0.137  14.709  1.4759 -0.5408  0.2234
 4539TIP3    H235109   3.697   0.004  14.782 -2.8722 -1.0004 -0.3432
 4540TIP3   OH235110   4.082   2.480   4.738  0.7322 -0.2702  0.1661
 4540TIP3    H135111   4.103   2.389   4.755  1.3996 -0.2424 -0.4447
 4540TIP3    H235112   4.067   2.484   4.644  0.4733  0.2047  0.2247
 4541TIP3   OH235113   4.261   3.464   4.314 -0.4400  0.3033 -0.2732
 4541TIP3    H135114   4.272   3.467   4.409 -0.2563  0.0235 -0.2860
 4541TIP3    H235115   4.177   3.418   4.301  0.8069 -2.0375 -0.3169
 4542TIP3   OH235116   2.356   6.644  16.761 -0.3982  0.1256 -0.5246
 4542TIP3    H135117   2.396   6.694  16.832 -1.8548  0.4994  0.0518
 4542TIP3    H235118   2.430   6.608  16.712  0.6255  0.3485  0.8356
 4543TIP3   OH235119   3.805   4.715  12.188 -0.0732 -0.2324 -0.1626
 4543TIP3    H135120   3.874   4.666  12.232 -0.5652  0.5415  1.5149
 4543TIP3    H235121   3.731   4.713  12.249 -0.7977  0.7872 -0.9817
 4544TIP3   OH235122   0.484   6.610   3.204  0.1814  0.2149  0.0715
 4544TIP3    H135123   0.545   6.683   3.208 -0.1989  0.6773 -1.9233
 4544TIP3    H235124   0.473   6.583   3.295  2.5788  0.7522  0.5607
 4545TIP3   OH235125   3.493   6.471  10.733 -0.1073  0.1852  0.8041
 4545TIP3    H135126   3.473   6.407  10.801 -1.2751  0.6753  0.9314
 4545TIP3    H235127   3.412   6.480  10.683  0.4041  0.6780  0.0527
 4546TIP3   OH235128   5.918   5.932   5.865 -0.0614 -0.4199 -0.2280
 4546TIP3    H135129   5.977   6.005   5.886  1.3144 -1.7766  0.7531
 4546TIP3    H235130   5.911   5.883   5.946 -0.5299 -1.6930 -1.0267
 4547TIP3   OH235131   0.752   3.570   6.075 -0.0762  0.2333  0.2440
 4547TIP3    H135132   0.698   3.542   6.149 -0.5757  3.0327  0.9907
 4547TIP3    H235133   0.695   3.627   6.024  1.6273  1.8994  0.1436
 4548TIP3   OH235134   0.905   4.507  11.557 -0.2775 -0.1914  0.1895
 4548TIP3    H135135   0.957   4.527  11.480 -0.6443 -2.7959 -0.8006
 4548TIP3    H235136   0.962   4.526  11.631  1.6541 -1.8611 -0.8435
 4549TIP3   OH235137   1.503   1.353  14.325 -0.1091  0.0772 -0.1636
 4549TIP3    H135138   1.569   1.346  14.257  1.0762 -0.0133  0.9731
 4549TIP3    H235139   1.439   1.284  14.304 -0.6070  1.0989 -2.0637
 4550TIP3   OH235140   4.761   5.027  15.510  0.0527 -0.0985 -0.0790
 4550TIP3    H135141   4.823   5.072  15.567 -0.5049  0.9130 -0.2689
 4550TIP3    H235142   4.815   4.992  15.438  0.1853  2.2567 -1.1652
 4551TIP3   OH235143   0.079   6.781  12.921 -0.4304  0.6904  0.1317
 4551TIP3    H135144   0.164   6.747  12.949  0.8542  1.3435 -2.7782
 4551TIP3    H235145   0.058   6.731  12.842 -1.8053  1.9271 -0.2997
 4552TIP3   OH235146   5.785   4.090  12.653 -0.3026 -0.2129 -0.2156
 4552TIP3    H135147   5.793   4.129  12.566 -0.4654  0.4221  0.0532
 4552TIP3    H235148   5.697   4.053  12.655  0.0999 -1.2226 -0.7239
 4553TIP3   OH235149   5.074   0.636  13.398 -0.1414 -0.0069 -0.1459
 4553TIP3    H135150   5.091   0.712  13.342 -1.6741  0.8955  0.5786
 4553TIP3    H235151   5.094   0.666  13.486 -1.7974 -0.0698  0.2766
 4554TIP3   OH235152   4.458   2.369  17.290  0.0465 -0.1661 -0.1598
 4554TIP3    H135153   4.492   2.349  17.202 -0.2097 -1.3767  0.0065
 4554TIP3    H235154   4.520   2.433  17.325  0.6327 -0.3160 -0.8950
 4555TIP3   OH235155   6.497   1.374   4.989  0.1306  0.7663  0.1159
 4555TIP3    H135156   6.490   1.328   4.905  0.7718 -0.0726  0.5135
 4555TIP3    H235157   6.455   1.315   5.052 -0.3349  1.3868  0.3860
 4556TIP3   OH235158   2.704   2.127   2.366  0.1065  0.3434 -0.3251
 4556TIP3    H135159   2.696   2.192   2.297 -0.6735 -1.5431 -2.0459
 4556TIP3    H235160   2.741   2.051   2.324  1.0899 -0.3274  1.6920
 4557TIP3   OH235161   3.210   3.814  14.578 -0.3579 -0.3930  0.3259
 4557TIP3    H135162   3.160   3.846  14.653 -2.4055  1.5559 -1.7847
 4557TIP3    H235163   3.155   3.746  14.539 -0.9466  1.0116 -1.3878
 4558TIP3   OH235164   3.114   1.274  11.996  0.0429  0.3366  0.5015
 4558TIP3    H135165   3.184   1.332  11.966  0.4013  0.6998  2.0111
 4558TIP3    H235166   3.160   1.195  12.026 -0.2836  0.1684  0.5609
 4559TIP3   OH235167   1.634   1.432  16.724 -0.2099  0.4149  0.0753
 4559TIP3    H135168   1.681   1.422  16.806  1.0828  0.1738 -0.6766
 4559TIP3    H235169   1.634   1.344  16.685 -1.7008  0.3097  0.2817
 4560TIP3   OH235170   2.074   6.469  10.860 -0.5259 -0.3569  0.7445
 4560TIP3    H135171   2.163   6.460  10.897 -0.9212 -0.1362  1.7848
 4560TIP3    H235172   2.069   6.402  10.793  0.6219 -0.0151  0.3060
 4561TIP3   OH235173   3.927   1.417   2.699  0.3488  0.3370  0.2157
 4561TIP3    H135174   4.012   1.452   2.723  1.3498 -0.6909 -1.7043
 4561TIP3    H235175   3.883   1.401   2.782  1.9566  1.0662  1.2201
 4562TIP3   OH235176   0.989   6.375  11.025  0.2338 -0.0230 -0.5089
 4562TIP3    H135177   1.030   6.461  11.033  0.3673 -0.2074  0.7915
 4562TIP3    H235178   0.912   6.390  10.970 -0.9936  1.3763  1.5407
 4563TIP3   OH235179   6.011   6.503   4.804  0.2738  0.2606  0.9916
 4563TIP3    H135180   5.975   6.548   4.727 -0.1439  1.9967  2.1702
 4563TIP3    H235181   6.104   6.528   4.804  0.4171 -0.2661  0.6927
 4564TIP3   OH235182   5.980   2.549  16.302 -0.0379  0.2214 -0.4091
 4564TIP3    H135183   5.896   2.544  16.347  0.4188  0.2760  0.4628
 4564TIP3    H235184   6.005   2.458  16.287  0.9311  0.1499  1.5798
 4565TIP3   OH235185   0.885   2.539  12.870 -0.3470  0.1102 -0.7432
 4565TIP3    H135186   0.903   2.505  12.957  0.3759  1.6461 -0.2757
 4565TIP3    H235187   0.891   2.635  12.879  2.0722  0.2353 -2.9419
 4566TIP3   OH235188   6.009   5.339   2.365 -0.8315 -0.3749  0.3901
 4566TIP3    H135189   6.091   5.372   2.401  0.0698 -0.9695 -1.0797
 4566TIP3    H235190   5.944   5.354   2.434  0.1669  1.6673  0.8932
 4567TIP3   OH235191   0.967   5.424  13.583 -0.0797  0.4238 -0.0672
 4567TIP3    H135192   0.994   5.339  13.549 -0.5821 -0.1398  0.8936
 4567TIP3    H235193   0.889   5.446  13.533 -1.2053 -0.7166  1.1398
 4568TIP3   OH235194   0.686   1.472   1.019  0.1797  0.3744 -0.0870
 4568TIP3    H135195   0.676   1.471   0.924 -0.7011  1.8992 -0.0364
 4568TIP3    H235196   0.648   1.556   1.046 -0.3574 -0.4041  1.6850
 4569TIP3   OH235197   5.206   5.217  11.517 -0.0124 -0.0619 -0.0941
 4569TIP3    H135198   5.251   5.196  11.599 -0.0287  0.9178  0.1682
 4569TIP3    H235199   5.264   5.277  11.472 -0.0260 -0.5652 -0.7887
 4570TIP3   OH235200   0.905   5.133   4.947 -0.4955 -0.0906  0.4836
 4570TIP3    H135201   0.873   5.218   4.976  1.6219  0.8471  0.1939
 4570TIP3    H235202   0.961   5.103   5.019  1.1233  0.1605 -0.6218
 4571TIP3   OH235203   0.269   0.695   3.882  0.5495 -0.4117  0.7844
 4571TIP3    H135204   0.210   0.629   3.847 -1.0033  1.5985 -0.5284
 4571TIP3    H235205   0.259   0.689   3.977 -0.8472 -0.9355  0.6191
 4572TIP3   OH235206   2.104   3.121   1.829  0.5985 -0.1430  0.7535
 4572TIP3    H135207   2.138   3.197   1.782 -0.0814 -0.1595  0.2264
 4572TIP3    H235208   2.149   3.122   1.913  1.7974 -0.0891  0.1207
 4573TIP3   OH235209   0.347   2.132   5.796 -0.3619  0.4198 -0.1964
 4573TIP3    H135210   0.326   2.224   5.809  0.4749  0.8928 -2.0700
 4573TIP3    H235211   0.269   2.096   5.753  0.3619  0.8490 -1.8597
 4574TIP3   OH235212   4.040   2.712  16.244 -0.4159  0.0740 -0.7425
 4574TIP3    H135213   4.111   2.774  16.225 -1.3643  0.4862 -3.0943
 4574TIP3    H235214   4.013   2.733  16.333  1.3719  0.9546 -0.3820
 4575TIP3   OH235215   4.161   1.246   0.452  0.0773  0.6872  0.3788
 4575TIP3    H135216   4.226   1.176   0.440  1.4777  2.0853 -0.3693
 4575TIP3    H235217   4.205   1.325   0.422 -2.7680  1.3480 -2.3100
 4576TIP3   OH235218   4.934   5.400  15.091 -0.8014 -0.0269 -0.2948
 4576TIP3    H135219   4.934   5.345  15.169  0.3170 -0.1438 -0.3712
 4576TIP3    H235220   4.859   5.368  15.039 -2.3714  0.9281  1.3234
 4577TIP3   OH235221   4.731   5.931   5.757 -0.5836 -0.6942 -0.2094
 4577TIP3    H135222   4.793   6.001   5.736  0.2706 -1.5635 -0.6113
 4577TIP3    H235223   4.768   5.889   5.834 -1.3519 -0.4037  0.3221
 4578TIP3   OH235224   4.728   5.376  13.123 -0.3305  0.2620  0.2425
 4578TIP3    H135225   4.822   5.395  13.115 -0.8236  2.3072 -0.8874
 4578TIP3    H235226   4.708   5.324  13.045 -0.3389  0.6261  0.0024
 4579TIP3   OH235227   3.552   0.656  16.464 -0.5071  0.0433  0.0361
 4579TIP3    H135228   3.508   0.715  16.403 -2.2190 -0.8566  0.3620
 4579TIP3    H235229   3.570   0.710  16.542 -1.4472  0.3047  0.0697
 4580TIP3   OH235230   6.584   1.598  14.961 -0.5204 -0.0538  0.4903
 4580TIP3    H135231   6.676   1.619  14.979 -0.8362  0.3546  1.6817
 4580TIP3    H235232   6.556   1.548  15.038 -1.1318 -0.6832 -0.1409
 4581TIP3   OH235233   5.065   3.731   0.037 -0.2521 -0.1408  0.3345
 4581TIP3    H135234   5.126   3.735  -0.037 -0.1869 -0.5388  0.3682
 4581TIP3    H235235   4.987   3.777   0.006 -0.3712 -0.6425 -0.1225
 4582TIP3   OH235236   0.071   3.700   4.128 -0.0688  0.3409  0.0174
 4582TIP3    H135237   0.135   3.769   4.142 -0.3570  0.4844  0.6342
 4582TIP3    H235238   0.096   3.660   4.045  0.4928  0.7528 -0.0086
 4583TIP3   OH235239   1.128   3.658  10.898  0.1352 -0.6472 -0.2901
 4583TIP3    H135240   1.163   3.746  10.905  0.9722 -1.1494  2.0337
 4583TIP3    H235241   1.157   3.628  10.811 -1.9608  2.0798 -2.0167
 4584TIP3   OH235242   5.473   0.475  15.641 -0.5356 -1.0840  0.0792
 4584TIP3    H135243   5.474   0.569  15.623  1.6170 -0.9061  1.0219
 4584TIP3    H235244   5.399   0.462  15.700 -1.2190 -0.0961 -0.5522
 4585TIP3   OH235245   5.481   0.159  13.380  0.3118  0.2906  0.7204
 4585TIP3    H135246   5.548   0.192  13.440  1.8566  0.2390 -0.9404
 4585TIP3    H235247   5.451   0.236  13.332  1.4014 -0.1526 -0.6968
 4586TIP3   OH235248   5.561   4.536  16.230  0.4952 -0.3756  0.1345
 4586TIP3    H135249   5.631   4.565  16.171 -0.0333 -0.7666 -0.6884
 4586TIP3    H235250   5.606   4.516  16.312  0.9569  2.3222  0.5893
 4587TIP3   OH235251   5.383   2.630  15.815 -0.0312  0.0612  0.5189
 4587TIP3    H135252   5.468   2.603  15.850 -0.3618 -0.0039  1.2750
 4587TIP3    H235253   5.321   2.568  15.853 -0.5233  0.6161  0.6178
 4588TIP3   OH235254   3.809   2.142  12.213 -0.2421 -0.4729  0.1104
 4588TIP3    H135255   3.758   2.176  12.140 -0.4144  0.7714  0.7924
 4588TIP3    H235256   3.895   2.121  12.175 -0.9959 -1.8104 -0.8703
 4589TIP3   OH235257   1.206   3.600   0.874 -0.5997  0.0225  0.2092
 4589TIP3    H135258   1.266   3.528   0.891 -1.4433 -1.2379 -1.9826
 4589TIP3    H235259   1.125   3.577   0.921 -0.4696  0.1321  0.4879
 4590TIP3   OH235260   0.101   0.710   0.974  0.4565  0.0769  0.0199
 4590TIP3    H135261   0.048   0.639   1.010  1.5481 -0.5470  0.4223
 4590TIP3    H235262   0.130   0.761   1.050  0.6432  0.2675 -0.1770
 4591TIP3   OH235263   5.542   3.992  13.394  0.9978 -0.8065 -0.1160
 4591TIP3    H135264   5.599   3.931  13.441 -2.0098 -4.7430 -1.3685
 4591TIP3    H235265   5.579   3.997  13.306  1.0438 -1.0854 -0.1116
 4592TIP3   OH235266   4.934   5.109   3.037 -0.1872  0.0078  0.2642
 4592TIP3    H135267   4.872   5.145   3.101 -1.3637 -1.9040  0.2240
 4592TIP3    H235268   5.017   5.154   3.056 -1.1427  1.2862  1.4875
 4593TIP3   OH235269   2.458   4.692   2.783 -0.4684  0.3769 -0.3078
 4593TIP3    H135270   2.534   4.750   2.784 -0.2403  0.0727  0.0128
 4593TIP3    H235271   2.414   4.712   2.701 -0.1812  0.7332 -0.3773
 4594TIP3   OH235272   0.106   6.438  12.983 -0.4021 -0.5848  0.4372
 4594TIP3    H135273   0.176   6.387  13.023  0.1822 -0.9196 -0.9728
 4594TIP3    H235274   0.145   6.472  12.902 -1.7676 -0.5128 -0.2029
 4595TIP3   OH235275   0.173   3.322   1.220 -0.1480  0.1889  0.1143
 4595TIP3    H135276   0.161   3.291   1.130 -0.2181  1.6319 -0.3831
 4595TIP3    H235277   0.120   3.402   1.224  1.5639  1.2902  0.8138
 4596TIP3   OH235278   3.120   4.961   4.379 -0.4928  0.1710  0.0848
 4596TIP3    H135279   3.130   5.052   4.353  0.5951  0.5129  1.5812
 4596TIP3    H235280   3.187   4.949   4.447 -1.2971 -1.4492  0.6053
 4597TIP3   OH235281   0.457   2.623  13.280 -0.1688  0.7355  0.5531
 4597TIP3    H135282   0.532   2.656  13.329 -0.0617  0.8580  0.3004
 4597TIP3    H235283   0.386   2.682  13.303 -0.4719 -0.0285  1.6765
 4598TIP3   OH235284   1.535   1.209   3.086 -0.6392 -0.2953  0.4391
 4598TIP3    H135285   1.488   1.181   3.164 -0.7053  0.8169  0.8120
 4598TIP3    H235286   1.489   1.289   3.058  1.2889  1.0828  1.0809
 4599TIP3   OH235287   2.840   5.352  12.551  0.3553 -0.3910  0.1391
 4599TIP3    H135288   2.918   5.309  12.587  0.0640  0.0654  1.3400
 4599TIP3    H235289   2.772   5.285  12.554  1.0147 -1.2416 -2.2287
 4600TIP3   OH235290   6.482   6.613   2.561  0.3078 -0.2770  0.5216
 4600TIP3    H135291   6.398   6.621   2.516  0.6523  0.2420 -0.0410
 4600TIP3    H235292   6.475   6.532   2.610  0.0407 -1.0372 -0.7362
 4601TIP3   OH235293   1.859   2.509   5.326 -0.5073 -0.2582 -0.1430
 4601TIP3    H135294   1.905   2.446   5.382  0.5390 -0.8858 -1.6585
 4601TIP3    H235295   1.780   2.464   5.298 -1.4013  0.3232  1.3801
 4602TIP3   OH235296   2.438   1.404   1.936 -0.1202 -0.1639  0.0760
 4602TIP3    H135297   2.526   1.398   1.901 -0.7066  1.5350 -1.7756
 4602TIP3    H235298   2.450   1.399   2.031  2.2146  2.3224 -0.0295
 4603TIP3   OH235299   6.135   0.922  16.515  0.2912 -0.5693  0.4756
 4603TIP3    H135300   6.215   0.931  16.566  0.2523 -1.8554  0.7701
 4603TIP3    H235301   6.162   0.939  16.425  0.6941  0.0247  0.7070
 4604TIP3   OH235302   3.406   1.302  12.194 -0.2843 -0.4049  0.0478
 4604TIP3    H135303   3.315   1.307  12.222 -0.2082  1.7864 -0.0212
 4604TIP3    H235304   3.412   1.220  12.146 -2.3614 -0.2890 -0.4489
 4605TIP3   OH235305   0.917   5.359   2.035 -0.8706 -0.5915 -0.2915
 4605TIP3    H135306   0.862   5.282   2.053  0.0187 -0.9867  0.7809
 4605TIP3    H235307   0.887   5.424   2.098  1.6608 -1.6885  2.1485
 4606TIP3   OH235308   4.279   0.603   5.414 -0.1290  0.1359  0.3153
 4606TIP3    H135309   4.249   0.537   5.352 -1.5993 -0.6658  1.8355
 4606TIP3    H235310   4.283   0.684   5.363  0.5991 -0.8848 -1.2904
 4607TIP3   OH235311   1.837   0.233   4.590 -0.3526  0.6765 -0.3126
 4607TIP3    H135312   1.827   0.143   4.560 -0.6410  0.6794 -0.2242
 4607TIP3    H235313   1.896   0.273   4.525  0.0166  0.3452 -0.1828
 4608TIP3   OH235314   4.304   5.071  10.837  0.6106  0.0571 -0.0776
 4608TIP3    H135315   4.229   5.103  10.887  0.2034  1.4250 -1.5443
 4608TIP3    H235316   4.268   5.002  10.781  0.3812  0.8667 -0.9447
 4609TIP3   OH235317   1.521   2.349   2.200  0.5127 -0.5818  0.3541
 4609TIP3    H135318   1.521   2.253   2.197  0.4295 -0.6439  1.8721
 4609TIP3    H235319   1.613   2.373   2.194  0.6602 -0.8286  1.5272
 4610TIP3   OH235320   0.394   0.198  11.746 -0.1758  0.5023 -0.2773
 4610TIP3    H135321   0.369   0.288  11.723  0.7246  1.3592  1.9771
 4610TIP3    H235322   0.404   0.199  11.841  1.6680 -1.5392 -0.4146
 4611TIP3   OH235323   6.682   0.226  11.158 -0.1462 -0.3609  0.2785
 4611TIP3    H135324   6.696   0.142  11.201 -1.0151 -1.5543 -1.6827
 4611TIP3    H235325   6.758   0.236  11.101 -0.4225 -0.1983 -0.0643
 4612TIP3   OH235326   3.913   2.478   5.093 -0.1620  0.3609 -0.5787
 4612TIP3    H135327   3.944   2.530   5.019 -1.3214  1.5830 -0.2111
 4612TIP3    H235328   3.855   2.412   5.054  1.1894 -0.5816 -1.0243
 4613TIP3   OH235329   0.411   5.795  13.184  0.0427 -0.1764 -0.3431
 4613TIP3    H135330   0.320   5.822  13.174  0.1883  0.7150  0.5334
 4613TIP3    H235331   0.407   5.701  13.202 -0.9577  0.4117  2.9209
 4614TIP3   OH235332   0.000   6.067  15.957 -0.1672 -0.0469 -0.4475
 4614TIP3    H135333  -0.056   6.101  16.027  0.3947  0.6467 -0.3198
 4614TIP3    H235334   0.078   6.123  15.961  0.5756 -1.0623 -0.5517
 4615TIP3   OH235335   5.568   2.629  11.594 -0.5906 -0.4824  0.1638
 4615TIP3    H135336   5.490   2.597  11.548 -2.1781  1.5045  1.3913
 4615TIP3    H235337   5.634   2.638  11.525 -2.0069 -0.4715 -1.2163
 4616TIP3   OH235338   0.345   3.662   1.381 -0.0266 -0.1603  0.3152
 4616TIP3    H135339   0.286   3.736   1.391 -0.6688 -0.8534  1.7691
 4616TIP3    H235340   0.326   3.628   1.293 -0.4654  0.7546  0.0520
 4617TIP3   OH235341   2.674   4.484   4.726  0.4927 -0.3630  0.2769
 4617TIP3    H135342   2.620   4.483   4.804  0.3039 -0.2058  0.1503
 4617TIP3    H235343   2.617   4.522   4.658  1.2008  1.1374  0.4835
 4618TIP3   OH235344   0.167   2.255   5.077 -0.4410  1.0467 -0.3645
 4618TIP3    H135345   0.081   2.214   5.092 -0.2415 -0.0956 -2.0987
 4618TIP3    H235346   0.147   2.346   5.058 -1.1988  0.9925  0.1398
 4619TIP3   OH235347   5.601   3.641  15.518 -0.0860  0.4185 -0.0167
 4619TIP3    H135348   5.561   3.617  15.434  0.7342  0.0908 -0.3212
 4619TIP3    H235349   5.659   3.714  15.497  0.5573 -0.0390  0.1617
 4620TIP3   OH235350   3.004   5.876  10.941  0.3400 -0.2063 -0.0587
 4620TIP3    H135351   3.089   5.832  10.939  0.9772  0.8495  2.2264
 4620TIP3    H235352   3.009   5.943  10.874  1.5207  0.2294  0.4684
 4621TIP3   OH235353   6.333   0.889   6.650  0.5472  0.0451 -0.2654
 4621TIP3    H135354   6.275   0.934   6.711  1.8364  0.3315  0.7742
 4621TIP3    H235355   6.330   0.943   6.571  1.1180  1.2857  0.5432
 4622TIP3   OH235356   3.218   4.883  17.291 -0.1071 -0.0758 -0.4054
 4622TIP3    H135357   3.247   4.961  17.244 -1.4049  1.4032  1.1860
 4622TIP3    H235358   3.171   4.831  17.225  0.4951  0.6307 -1.4041
 4623TIP3   OH235359   3.610   1.764  13.163 -0.2825  0.1433  0.1771
 4623TIP3    H135360   3.619   1.806  13.248 -0.0810  0.8965 -0.2061
 4623TIP3    H235361   3.625   1.835  13.100 -0.9201 -0.3020 -0.4807
 4624TIP3   OH235362   5.885   3.859   1.841 -0.3186  0.3370 -0.1448
 4624TIP3    H135363   5.934   3.939   1.823  0.4328 -0.2509 -0.7551
 4624TIP3    H235364   5.858   3.827   1.755  0.0420 -0.4799  0.0427
 4625TIP3   OH235365   1.944   6.527   1.567  0.1423 -0.2133  0.4178
 4625TIP3    H135366   1.906   6.440   1.581  1.0724 -0.4011  1.9566
 4625TIP3    H235367   2.032   6.509   1.535  0.1486  0.1624  0.2320
 4626TIP3   OH235368   0.075   1.446   5.728 -0.4187 -0.6077  0.9122
 4626TIP3    H135369   0.029   1.530   5.732  3.9050  1.8747  2.3963
 4626TIP3    H235370   0.034   1.392   5.795 -2.8544  0.5159  0.3789
 4627TIP3   OH235371   1.540   5.030   3.145  0.1193  0.4409  0.6059
 4627TIP3    H135372   1.511   4.951   3.191 -0.1612 -0.6420 -1.3586
 4627TIP3    H235373   1.461   5.084   3.139 -0.0291  0.2386  0.7074
 4628TIP3   OH235374   4.288   2.093   0.286 -0.0974  0.4417 -0.2110
 4628TIP3    H135375   4.203   2.052   0.302 -0.4472  0.7285 -1.3342
 4628TIP3    H235376   4.268   2.168   0.231  1.0761 -0.3991 -1.8015
 4629TIP3   OH235377   1.473   5.980  12.728  0.3096 -0.0474 -0.1339
 4629TIP3    H135378   1.494   5.998  12.820 -0.6429  0.4978 -0.0230
 4629TIP3    H235379   1.440   5.890  12.729 -2.0093  0.7721  0.4446
 4630TIP3   OH235380   2.167   3.961  13.448 -0.0555  0.6637  0.3959
 4630TIP3    H135381   2.211   4.045  13.457  0.1710  0.8351 -2.0538
 4630TIP3    H235382   2.237   3.899  13.428 -0.4607  0.2408  0.2657
 4631TIP3   OH235383   3.046   0.368  15.269 -0.1483  0.1177 -0.0724
 4631TIP3    H135384   3.036   0.275  15.247 -0.4329  0.4534 -1.4126
 4631TIP3    H235385   3.113   0.370  15.337  2.0238 -0.8095 -2.1416
 4632TIP3   OH235386   0.917   5.456   3.731  0.0440  0.2701  0.5532
 4632TIP3    H135387   0.837   5.405   3.714  0.6659 -0.8978  1.0540
 4632TIP3    H235388   0.932   5.448   3.825  0.2137  1.3021  0.6200
 4633TIP3   OH235389   5.870   0.902  12.587  0.5399 -0.3564  0.4875
 4633TIP3    H135390   5.806   0.858  12.644  0.9025  0.6941  1.7439
 4633TIP3    H235391   5.925   0.952  12.647  0.6212  1.1857 -0.8234
 4634TIP3   OH235392   3.438   2.085   4.262 -0.2601  0.3488  0.2010
 4634TIP3    H135393   3.434   2.135   4.181  0.3513 -1.5313 -1.0440
 4634TIP3    H235394   3.347   2.070   4.287 -0.4543  0.3771 -0.5056
 4635TIP3   OH235395   0.252   2.374   2.703  0.6608  0.3113 -0.2988
 4635TIP3    H135396   0.303   2.440   2.751 -0.9050  0.5554  1.0701
 4635TIP3    H235397   0.199   2.331   2.770 -0.5531 -0.2823 -1.6187
 4636TIP3   OH235398   2.559   1.137   4.496 -0.5708  0.0685  0.5516
 4636TIP3    H135399   2.592   1.096   4.575  0.3077  0.3257  0.3202
 4636TIP3    H235400   2.602   1.223   4.493  0.0945 -0.2984 -0.6726
 4637TIP3   OH235401   1.566   2.739  12.033  0.3718 -0.0615  0.0096
 4637TIP3    H135402   1.503   2.703  12.096  0.1026 -1.1429 -0.8555
 4637TIP3    H235403   1.632   2.782  12.088  0.9683 -2.3248  1.1414
 4638TIP3   OH235404   5.289   2.971  13.287 -0.0250 -0.3518  0.2080
 4638TIP3    H135405   5.288   3.026  13.366 -0.4661 -0.7903  0.5063
 4638TIP3    H235406   5.331   3.026  13.221  1.0962 -0.2739  0.9601
 4639TIP3   OH235407   0.798   3.301  11.416 -0.1764 -0.8679 -0.5027
 4639TIP3    H135408   0.860   3.253  11.361 -0.6424 -1.1294 -0.8048
 4639TIP3    H235409   0.737   3.342  11.354  0.6709  0.7507 -0.2784
 4640TIP3   OH235410   5.995   5.309   5.302 -0.1975  0.1518  0.8807
 4640TIP3    H135411   5.967   5.309   5.210 -4.1935  1.9048  1.9649
 4640TIP3    H235412   6.086   5.339   5.300 -0.2839  0.3474 -2.4921
 4641TIP3   OH235413   5.244   3.105  17.238 -0.4029  0.1313 -0.2618
 4641TIP3    H135414   5.317   3.099  17.176  1.3288  3.3017  1.3852
 4641TIP3    H235415   5.170   3.133  17.184  0.4886  0.5236 -1.3099
 4642TIP3   OH235416   6.679   3.409  14.395  0.0422  0.3004 -0.1604
 4642TIP3    H135417   6.729   3.409  14.476 -0.1587  0.3292 -0.0357
 4642TIP3    H235418   6.653   3.501  14.382 -1.7798 -0.0364  0.8956
 4643TIP3   OH235419   3.774   1.870  12.083 -0.4727  0.0385 -0.1221
 4643TIP3    H135420   3.701   1.890  12.142 -0.8913 -0.3375 -0.5062
 4643TIP3    H235421   3.750   1.912  12.000 -1.0672 -1.5090 -0.7572
 4644TIP3   OH235422   6.817   6.518  11.083  0.0927  0.7892  0.4315
 4644TIP3    H135423   6.803   6.440  11.137 -2.1022  0.2831 -0.7973
 4644TIP3    H235424   6.852   6.485  11.001 -1.5689  0.9720 -0.3802
 4645TIP3   OH235425   6.048   3.080  14.826 -0.0913  0.3955 -0.2108
 4645TIP3    H135426   6.053   3.140  14.751 -0.8996 -0.3698 -0.8831
 4645TIP3    H235427   6.125   3.102  14.879  2.2490 -1.0872 -2.7997
 4646TIP3   OH235428   6.257   3.992   3.922 -0.3426  0.6900 -0.0650
 4646TIP3    H135429   6.289   4.077   3.953  1.1255  0.5629 -1.2050
 4646TIP3    H235430   6.212   3.954   3.998  0.4042  1.7739  0.9295
 4647TIP3   OH235431   0.880   5.787  16.393  0.1317 -0.1074  0.0582
 4647TIP3    H135432   0.975   5.786  16.385  0.1438  0.1206  0.1758
 4647TIP3    H235433   0.854   5.875  16.364 -0.1838 -0.7508 -1.6270
 4648TIP3   OH235434   6.136   6.255   6.706 -0.4090 -0.2448  0.7801
 4648TIP3    H135435   6.081   6.177   6.703 -0.4713 -0.1585 -0.4667
 4648TIP3    H235436   6.225   6.222   6.695 -0.5756  0.0000 -1.5693
 4649TIP3   OH235437   5.381   6.462  15.487  0.0312  0.1399 -0.0522
 4649TIP3    H135438   5.406   6.545  15.527 -1.1475  0.0216  0.9511
 4649TIP3    H235439   5.446   6.448  15.418 -1.0018  2.9448 -1.6721
 4650TIP3   OH235440   3.801   1.796   5.066 -0.2861 -0.1675  0.4185
 4650TIP3    H135441   3.871   1.784   5.131  0.0115  0.0655  0.1420
 4650TIP3    H235442   3.764   1.882   5.087 -0.5515 -0.3322  0.6234
 4651TIP3   OH235443   2.813   4.220   2.209  0.1291  0.1822  0.1883
 4651TIP3    H135444   2.852   4.306   2.225  1.2219 -0.3323  0.4043
 4651TIP3    H235445   2.885   4.168   2.171 -1.5225  0.4282 -3.4466
 4652TIP3   OH235446   2.978   1.859   0.911 -0.2416  0.2369 -0.1288
 4652TIP3    H135447   3.066   1.842   0.943  0.2659  1.1209 -1.0263
 4652TIP3    H235448   2.926   1.787   0.946  0.9660 -0.6704 -0.1556
 4653TIP3   OH235449   5.379   6.316   4.664  0.3534  0.3760  0.1628
 4653TIP3    H135450   5.403   6.398   4.708  2.4050 -0.7253  1.1733
 4653TIP3    H235451   5.361   6.255   4.736 -1.4177 -0.0103 -0.5829
 4654TIP3   OH235452   0.363   2.770   1.225  0.8402  0.5688  0.2508
 4654TIP3    H135453   0.302   2.832   1.185  0.4701 -0.3954 -0.7008
 4654TIP3    H235454   0.443   2.778   1.173  0.4583 -0.4700 -0.5171
 4655TIP3   OH235455   2.815   1.180  12.822  0.3418  0.2013  0.2865
 4655TIP3    H135456   2.785   1.165  12.912  1.6935  0.0608  0.7338
 4655TIP3    H235457   2.738   1.210  12.775 -1.2660 -3.1229  0.6312
 4656TIP3   OH235458   4.770   3.031  16.600 -0.1768 -0.0667 -0.3170
 4656TIP3    H135459   4.762   3.002  16.509 -0.6080 -2.1911  0.3689
 4656TIP3    H235460   4.843   3.093  16.600  0.0247 -0.2958 -2.0544
 4657TIP3   OH235461   6.215   6.602   0.197  0.0960  0.3516  0.6852
 4657TIP3    H135462   6.257   6.686   0.215  1.2559  0.3557 -1.8019
 4657TIP3    H235463   6.222   6.592   0.102 -0.5010 -2.3090  0.8881
 4658TIP3   OH235464   1.189   6.676   0.992  0.3629 -0.4453 -0.0124
 4658TIP3    H135465   1.239   6.649   1.069 -0.1574  0.1140  0.5333
 4658TIP3    H235466   1.100   6.689   1.025  0.2577  0.3504 -0.5852
 4659TIP3   OH235467   2.056   1.905   1.046  0.0925  0.6761  0.2526
 4659TIP3    H135468   2.063   1.871   1.135 -0.0990 -0.2669 -0.0807
 4659TIP3    H235469   2.076   1.998   1.053  1.3925  0.3467  1.0824
 4660TIP3   OH235470   4.732   5.577   0.771  0.3028 -0.1289 -0.2227
 4660TIP3    H135471   4.669   5.515   0.806 -0.9536  2.0557  1.5883
 4660TIP3    H235472   4.796   5.524   0.724 -1.5638 -2.5983 -0.0422
 4661TIP3   OH235473   0.897   4.550   2.307 -0.1261  0.0497  0.7179
 4661TIP3    H135474   0.933   4.587   2.387 -0.0422 -0.9821  1.1705
 4661TIP3    H235475   0.857   4.624   2.262  1.7288  1.0349  0.6615
 4662TIP3   OH235476   2.471   1.741  15.023 -0.1517  0.0165  0.2960
 4662TIP3    H135477   2.531   1.694  14.965  1.0120  2.7463 -0.8058
 4662TIP3    H235478   2.520   1.751  15.104  0.3085  0.9239 -0.0913
 4663TIP3   OH235479   2.177   6.461  14.296 -0.1376 -0.0408  0.2594
 4663TIP3    H135480   2.144   6.375  14.322 -1.0881 -0.1289 -1.2331
 4663TIP3    H235481   2.198   6.452  14.203  0.6608  1.0750  0.3215
 4664TIP3   OH235482   4.919   4.629  16.483 -0.4962 -0.3532 -0.3014
 4664TIP3    H135483   4.849   4.567  16.463  0.7285 -1.4474 -1.3011
 4664TIP3    H235484   4.882   4.687  16.550 -2.0501 -1.4458 -0.1996
 4665TIP3   OH235485   2.292   4.925  13.767 -0.9122  0.4800  0.4001
 4665TIP3    H135486   2.298   5.020  13.781 -0.1370  0.6355 -0.8935
 4665TIP3    H235487   2.329   4.911  13.680 -1.6287 -0.9437  0.3061
 4666TIP3   OH235488   3.043   0.109  12.151 -0.1501 -0.0230  0.3655
 4666TIP3    H135489   3.072   0.021  12.132 -0.5517  0.1620 -1.1660
 4666TIP3    H235490   2.947   0.104  12.150 -0.1991  0.7850 -1.5759
 4667TIP3   OH235491   1.447   0.960   2.489 -0.3028  0.1325 -0.2716
 4667TIP3    H135492   1.377   0.902   2.458  0.4308 -1.4710  0.9897
 4667TIP3    H235493   1.522   0.902   2.499  0.5728  1.4166  0.6031
 4668TIP3   OH235494   6.506   3.094   2.282 -0.5701  0.5295 -0.0013
 4668TIP3    H135495   6.594   3.128   2.297  0.7015 -2.7870  0.3091
 4668TIP3    H235496   6.490   3.111   2.189  0.5734  0.7290 -0.1696
 4669TIP3   OH235497   0.905   4.790   5.692  0.3455 -0.1374 -0.3409
 4669TIP3    H135498   0.894   4.866   5.751  0.6040 -1.1934  1.0999
 4669TIP3    H235499   0.998   4.770   5.697  0.3649 -0.2343 -1.1275
 4670TIP3   OH235500   3.075   0.046  16.133 -0.0873 -0.9078 -0.5192
 4670TIP3    H135501   3.070  -0.043  16.166  1.8216 -0.2131  1.8551
 4670TIP3    H235502   3.020   0.097  16.193 -2.7111 -0.7332 -2.9900
 4671TIP3   OH235503   2.706   6.296  13.836  0.1975 -0.0761  0.0760
 4671TIP3    H135504   2.798   6.324  13.837 -0.2762  1.4967  0.6806
 4671TIP3    H235505   2.702   6.233  13.764  1.4925  0.7698 -0.7817
 4672TIP3   OH235506   4.746   5.165  11.017 -0.1889 -0.2940  0.2830
 4672TIP3    H135507   4.662   5.121  11.030 -0.6128  0.3638 -0.1938
 4672TIP3    H235508   4.764   5.155  10.924 -0.6343  1.1247  0.0269
 4673TIP3   OH235509   2.718   5.276   5.704  0.7288 -0.5864 -0.0539
 4673TIP3    H135510   2.742   5.333   5.631 -1.0666 -0.5713 -0.6492
 4673TIP3    H235511   2.626   5.256   5.690  0.6685 -1.5487  1.5727
 4674TIP3   OH235512   3.743   4.623   2.470  0.4517 -0.4219 -0.4435
 4674TIP3    H135513   3.781   4.665   2.393  0.1868  1.6006  0.5007
 4674TIP3    H235514   3.688   4.690   2.509  1.2902 -1.1490  2.0339
 4675TIP3   OH235515   5.900   1.364  11.539 -0.0630  0.6669  0.4646
 4675TIP3    H135516   5.902   1.390  11.632 -1.4812  1.6186  0.2443
 4675TIP3    H235517   5.824   1.307  11.532  1.7924 -1.8884  0.4821
 4676TIP3   OH235518   5.604   3.209   5.546  0.3278 -0.3178 -0.5334
 4676TIP3    H135519   5.666   3.220   5.618 -1.1529  2.4036  0.3523
 4676TIP3    H235520   5.571   3.120   5.557  0.1845  0.0166  2.1053
 4677TIP3   OH235521   3.916   4.196   0.556 -0.1980 -0.3379  0.4307
 4677TIP3    H135522   3.922   4.268   0.493 -0.7614 -2.1299 -1.7562
 4677TIP3    H235523   3.991   4.140   0.536 -1.5802 -2.0461 -0.1388
 4678TIP3   OH235524   6.259   0.844   4.089  0.6860 -0.0638  0.5451
 4678TIP3    H135525   6.193   0.907   4.062  1.2277  0.2085 -0.1658
 4678TIP3    H235526   6.241   0.827   4.181  1.1125  1.8319  0.9810
 4679TIP3   OH235527   0.720   6.720   2.115  0.3618 -0.0248  0.1724
 4679TIP3    H135528   0.729   6.661   2.040  0.9834 -2.8412  2.3730
 4679TIP3    H235529   0.802   6.770   2.116  0.6032 -0.3891 -0.6990
 4680TIP3   OH235530   0.699   6.206  16.675  0.3008  0.2474 -0.3615
 4680TIP3    H135531   0.612   6.198  16.712  0.5131 -1.1680 -0.1416
 4680TIP3    H235532   0.687   6.195  16.581  0.1064  1.1639 -0.4495
 4681TIP3   OH235533   5.746   5.622   3.776  0.6206  0.5618 -0.1059
 4681TIP3    H135534   5.654   5.613   3.752  0.5785 -0.3351  0.3513
 4681TIP3    H235535   5.784   5.679   3.709 -0.4027  1.4384  0.0569
 4682TIP3   OH235536   5.073   2.526   0.532 -0.0782  0.2427 -0.5889
 4682TIP3    H135537   5.064   2.601   0.473 -1.6314  1.8293  1.5697
 4682TIP3    H235538   5.166   2.522   0.553  0.1003  1.2047 -1.1827
 4683TIP3   OH235539   5.916   3.986   3.401  0.3485 -0.3443  0.1120
 4683TIP3    H135540   5.869   3.918   3.353  0.7052  1.3627 -2.7520
 4683TIP3    H235541   5.848   4.043   3.436  0.1544 -0.4826 -0.0448
 4684TIP3   OH235542   1.705   2.207  13.953 -0.5478  0.0021  0.3979
 4684TIP3    H135543   1.717   2.121  13.994 -1.1921 -1.0382 -1.5373
 4684TIP3    H235544   1.758   2.203  13.873 -0.2107  1.5878  0.5231
 4685TIP3   OH235545   4.612   4.614   2.229 -0.1168 -0.1559 -0.5879
 4685TIP3    H135546   4.683   4.609   2.293  0.8358 -1.8160 -1.7295
 4685TIP3    H235547   4.558   4.538   2.248  0.6186 -1.1172 -2.2481
 4686TIP3   OH235548   3.073   1.142  16.761 -0.0907  0.5452 -0.0046
 4686TIP3    H135549   3.134   1.187  16.703  0.3666 -0.2019 -0.1151
 4686TIP3    H235550   3.117   1.143  16.846 -0.5379  1.2021  0.2240
 4687TIP3   OH235551   5.206   2.053   6.238 -0.0897  0.5666 -0.0950
 4687TIP3    H135552   5.256   2.114   6.292  0.0094  2.2065 -1.9358
 4687TIP3    H235553   5.142   2.109   6.194 -1.9597 -1.1477  0.4167
 4688TIP3   OH235554   2.582   0.396   4.560  0.0239  0.5400 -0.1656
 4688TIP3    H135555   2.579   0.420   4.652  0.5132 -0.9676  0.2484
 4688TIP3    H235556   2.673   0.371   4.544 -0.3850 -0.6943 -0.6550
 4689TIP3   OH235557   2.021   2.099   3.183  0.0449  0.6280  0.5843
 4689TIP3    H135558   2.101   2.047   3.175 -0.1175 -0.0635  3.1037
 4689TIP3    H235559   1.970   2.076   3.105  2.1680  0.8949 -0.9278
 4690TIP3   OH235560   1.327   2.123  13.537 -0.8530  0.5267 -0.4906
 4690TIP3    H135561   1.345   2.168  13.455  0.3950 -1.3063 -1.2552
 4690TIP3    H235562   1.303   2.034  13.511 -0.7537  0.0138  1.1027
 4691TIP3   OH235563   6.535   5.695   4.169 -0.2397 -0.0560 -0.0624
 4691TIP3    H135564   6.628   5.687   4.191 -0.1554  0.8017 -0.0783
 4691TIP3    H235565   6.533   5.757   4.096 -1.0765  2.5708  2.1082
 4692TIP3   OH235566   0.426   0.863   6.126  0.4145  0.1747  0.0006
 4692TIP3    H135567   0.448   0.770   6.131 -1.7100 -0.3709 -0.1578
 4692TIP3    H235568   0.494   0.906   6.177  0.2383 -1.6915  1.9247
 4693TIP3   OH235569   0.797   4.453   5.074  0.1282 -0.1145 -0.3395
 4693TIP3    H135570   0.799   4.487   4.984  0.1212  1.4562  0.2393
 4693TIP3    H235571   0.780   4.530   5.128 -0.0737 -1.0880  0.9999
 4694TIP3   OH235572   6.484   4.296  15.725  0.2832 -0.4621 -0.0570
 4694TIP3    H135573   6.414   4.359  15.745 -0.8442 -1.5919 -0.3995
 4694TIP3    H235574   6.534   4.291  15.806  0.1202  0.5402  0.1174
 4695TIP3   OH235575   0.989   5.903  13.148 -0.2410 -0.1247 -0.6477
 4695TIP3    H135576   0.958   5.978  13.098  0.4817  0.6158  0.0098
 4695TIP3    H235577   1.080   5.923  13.168  0.3215 -1.7139 -1.4949
 4696TIP3   OH235578   1.550   6.819  16.436  0.2762  0.0206  0.3173
 4696TIP3    H135579   1.482   6.872  16.477  0.0678 -0.7505  0.9665
 4696TIP3    H235580   1.619   6.882  16.414 -0.4824  0.7481 -0.0284
 4697TIP3   OH235581   1.638   0.551  12.084 -0.1988 -0.2292 -0.2494
 4697TIP3    H135582   1.713   0.556  12.144 -0.0924  0.8342 -0.4672
 4697TIP3    H235583   1.571   0.505  12.134 -0.1076  0.6336  0.6873
 4698TIP3   OH235584   2.975   6.157   2.998 -0.1395 -0.1108 -0.5071
 4698TIP3    H135585   3.035   6.088   3.026 -1.4455  0.0949  2.9420
 4698TIP3    H235586   2.894   6.111   2.976 -0.5806  0.1783  0.5027
 4699TIP3   OH235587   0.599   1.509   4.468 -0.6020 -0.2175  0.3750
 4699TIP3    H135588   0.626   1.601   4.466  3.6046 -1.3394 -0.5500
 4699TIP3    H235589   0.616   1.481   4.558 -0.4636 -0.4316  0.2834
 4700TIP3   OH235590   4.358   4.266   3.951 -0.1658 -0.0665  0.3786
 4700TIP3    H135591   4.263   4.258   3.953 -0.2395  0.8340  2.6422
 4700TIP3    H235592   4.389   4.196   4.010  0.7506 -2.0295 -2.3268
 4701TIP3   OH235593   1.138   2.375   2.391 -0.0959 -0.0770 -0.0517
 4701TIP3    H135594   1.139   2.463   2.352 -0.2522  0.0570  0.2444
 4701TIP3    H235595   1.097   2.320   2.324  2.5072 -0.4590 -1.3646
 4702TIP3   OH235596   5.948   2.494   0.616  0.4681 -0.4959  0.4688
 4702TIP3    H135597   5.910   2.513   0.702  1.2496  0.8570  0.5258
 4702TIP3    H235598   5.950   2.398   0.611 -0.0707 -0.5795  1.7333
 4703TIP3   OH235599   0.450   5.125   5.372  0.3694 -0.1521  0.0018
 4703TIP3    H135600   0.482   5.101   5.285 -0.0181  3.6319 -1.2745
 4703TIP3    H235601   0.479   5.215   5.385 -0.7938 -0.1488  3.2433
 4704TIP3   OH235602   4.446   4.686  13.887 -0.7604  0.2217  0.1723
 4704TIP3    H135603   4.456   4.644  13.802 -0.1099  0.8135 -0.0480
 4704TIP3    H235604   4.535   4.705  13.915 -0.8112 -2.2570  2.1409
 4705TIP3   OH235605   0.716   5.869   1.820 -0.5946 -0.4699  0.2857
 4705TIP3    H135606   0.659   5.946   1.814 -1.7101 -1.0032  3.1024
 4705TIP3    H235607   0.747   5.855   1.730  0.0653  3.5468 -0.2172
 4706TIP3   OH235608   0.028   6.548  17.087  0.2862 -0.0305  0.2519
 4706TIP3    H135609  -0.047   6.521  17.140 -0.8407 -0.7013 -1.6232
 4706TIP3    H235610   0.102   6.497  17.122 -0.2989  0.0411  1.5970
 4707TIP3   OH235611   5.490   5.102   3.741 -0.4487  0.5383 -0.3144
 4707TIP3    H135612   5.395   5.112   3.746 -0.3714  1.7422 -1.1093
 4707TIP3    H235613   5.522   5.131   3.826 -0.7716  0.2669 -0.0964
 4708TIP3   OH235614   6.083   0.438  17.077 -0.5914 -0.6175  0.1175
 4708TIP3    H135615   6.073   0.508  17.142 -0.1627  0.2891 -0.7745
 4708TIP3    H235616   6.011   0.452  17.016  0.1441 -0.2891 -0.6720
 4709TIP3   OH235617   0.320   3.154   0.243 -0.3243 -0.0423 -0.2035
 4709TIP3    H135618   0.413   3.144   0.224 -0.0650  0.3861  0.7631
 4709TIP3    H235619   0.283   3.067   0.230  0.4594 -0.5208  0.6397
 4710TIP3   OH235620   0.426   3.681  15.515  0.4884 -0.2047  0.5788
 4710TIP3    H135621   0.431   3.773  15.540  1.6125 -0.3910  1.0751
 4710TIP3    H235622   0.505   3.642  15.552  1.1301 -0.9155 -1.4839
 4711TIP3   OH235623   6.023   4.304   0.988  0.2799  0.0807  0.2972
 4711TIP3    H135624   6.099   4.253   0.959  0.1848  0.0432  0.1136
 4711TIP3    H235625   6.022   4.379   0.929  2.0134  1.7079  2.2524
 4712TIP3   OH235626   5.179   5.886   0.982 -0.4278  0.7024  0.3004
 4712TIP3    H135627   5.149   5.829   1.052  0.4556  0.7750  0.7440
 4712TIP3    H235628   5.103   5.942   0.962 -0.5505  0.9755  1.4930
 4713TIP3   OH235629   6.015   6.073  11.795 -0.1244  0.0330 -0.2000
 4713TIP3    H135630   6.102   6.037  11.806 -0.9149 -1.1857  2.3386
 4713TIP3    H235631   5.972   6.015  11.732 -0.5829 -2.1375  2.0251
 4714TIP3   OH235632   5.673   1.828  14.161 -0.3539 -0.5991 -0.6948
 4714TIP3    H135633   5.609   1.898  14.173 -1.2243 -1.8852  2.9851
 4714TIP3    H235634   5.756   1.874  14.145 -1.5150  1.1623 -1.8004
 4715TIP3   OH235635   2.117   2.355  16.125 -0.0298 -0.3611 -0.0263
 4715TIP3    H135636   2.036   2.401  16.106 -0.1859 -1.0206 -0.9513
 4715TIP3    H235637   2.116   2.344  16.220 -0.8447 -0.0566  0.0059
 4716TIP3   OH235638   0.940   0.014   2.040 -0.0816 -0.4013  0.2380
 4716TIP3    H135639   0.914  -0.012   1.952 -0.4199 -2.3173  0.8920
 4716TIP3    H235640   1.026  -0.028   2.054  0.3215  0.5060  0.5457
 4717TIP3   OH235641   2.396   0.796   0.009  0.6385  0.6653 -0.2284
 4717TIP3    H135642   2.364   0.886  -0.002 -0.6749  0.4281  1.3672
 4717TIP3    H235643   2.318   0.741  -0.007  0.7447 -0.0385  1.5772
 4718TIP3   OH235644   6.557   3.392   2.080 -0.0620 -0.0509  0.2161
 4718TIP3    H135645   6.523   3.303   2.067 -1.6773  0.5965 -0.1748
 4718TIP3    H235646   6.592   3.417   1.995 -0.9794  0.2309 -0.0895
 4719TIP3   OH235647   3.384   0.966  16.836 -0.6439 -0.5419  0.3129
 4719TIP3    H135648   3.457   0.977  16.897  0.1897 -0.0839 -0.7489
 4719TIP3    H235649   3.315   1.023  16.870 -0.0664 -0.0308  0.6447
 4720TIP3   OH235650   0.919   5.752   4.627  0.6613 -0.2746 -0.3045
 4720TIP3    H135651   1.003   5.719   4.593  0.7113 -0.4779  0.0133
 4720TIP3    H235652   0.915   5.719   4.717  0.0852 -0.5460 -0.4289
 4721TIP3   OH235653   5.654   2.635   5.122  0.2507  0.1162  0.3369
 4721TIP3    H135654   5.743   2.624   5.155  0.6959 -1.5037 -1.3208
 4721TIP3    H235655   5.605   2.562   5.157  0.4449 -0.9559 -1.5523
 4722TIP3   OH235656   4.634   0.224  14.388  0.5827  0.1517  0.8553
 4722TIP3    H135657   4.668   0.236  14.299  0.1048  2.7080  1.0038
 4722TIP3    H235658   4.631   0.129  14.399 -0.3566 -0.2291 -2.2303
 4723TIP3   OH235659   6.714   6.754  12.479  0.0474 -0.0963 -0.0611
 4723TIP3    H135660   6.664   6.717  12.551  1.1018  0.9768  1.2342
 4723TIP3    H235661   6.798   6.709  12.482 -0.4664 -1.2267 -1.6570
 4724TIP3   OH235662   3.733   2.585  10.698  0.2276  0.0294 -0.2000
 4724TIP3    H135663   3.828   2.595  10.695  0.0308  2.6967  1.0813
 4724TIP3    H235664   3.710   2.545  10.614  2.4041 -0.0676 -0.7719
 4725TIP3   OH235665   4.663   0.034   0.424  0.3086 -0.2811 -0.2174
 4725TIP3    H135666   4.684   0.103   0.361 -0.8125 -0.0241 -0.3198
 4725TIP3    H235667   4.736   0.034   0.485 -0.0896  1.5752  0.2822
 4726TIP3   OH235668   0.832   2.742   0.689 -0.2434  0.1132 -0.0442
 4726TIP3    H135669   0.817   2.652   0.660 -0.3527  0.0629  0.1691
 4726TIP3    H235670   0.783   2.795   0.627 -2.2516 -0.1044  1.3089
 4727TIP3   OH235671   0.039   0.824  11.645  0.2331  0.0673  0.1650
 4727TIP3    H135672   0.079   0.842  11.729 -0.6652 -0.6481  0.7653
 4727TIP3    H235673   0.112   0.823  11.583  0.8193  1.2230  0.8207
 4728TIP3   OH235674   3.796   4.493   5.064  0.0767 -0.3803  0.0331
 4728TIP3    H135675   3.862   4.560   5.079 -0.3396 -0.0264  0.2809
 4728TIP3    H235676   3.735   4.533   5.001 -0.6278 -0.2189  0.8174
 4729TIP3   OH235677   4.744   0.343   4.435  0.2161 -0.0774  0.3436
 4729TIP3    H135678   4.670   0.322   4.378  1.2974  0.3613 -1.2653
 4729TIP3    H235679   4.706   0.346   4.523 -1.2945 -1.7482 -0.2200
 4730TIP3   OH235680   0.962   2.893  10.803 -0.5469 -1.6017 -0.2707
 4730TIP3    H135681   0.999   2.928  10.884 -0.5303 -2.3499  0.0457
 4730TIP3    H235682   0.873   2.929  10.799 -0.8214 -2.1887  0.4744
 4731TIP3   OH235683   5.521   4.430   2.091 -0.8748 -0.2638  0.2776
 4731TIP3    H135684   5.509   4.524   2.074  0.9616  0.3982  2.3892
 4731TIP3    H235685   5.575   4.427   2.170 -0.0098 -3.1041 -0.3701
 4732TIP3   OH235686   6.648   0.538   2.770 -0.0431 -0.7018  0.0494
 4732TIP3    H135687   6.581   0.470   2.775 -2.7005  1.5103 -3.3202
 4732TIP3    H235688   6.716   0.500   2.714 -1.6728 -0.5534 -2.1020
 4733TIP3   OH235689   0.554   3.291   4.186  0.5114 -0.8943  0.1511
 4733TIP3    H135690   0.633   3.325   4.227 -0.0910  0.2886  0.3474
 4733TIP3    H235691   0.541   3.347   4.109 -0.7794 -0.3116  0.7671
 4734TIP3   OH235692   4.300   0.166  13.105 -0.3873 -0.0249  0.3456
 4734TIP3    H135693   4.278   0.199  13.018 -0.3264 -1.6217 -0.2909
 4734TIP3    H235694   4.215   0.146  13.145 -0.3929  0.2359  0.4650
 4735TIP3   OH235695   4.251   1.732   0.423 -0.0145 -0.4770  0.1312
 4735TIP3    H135696   4.274   1.753   0.514 -1.0216  0.9927  0.0554
 4735TIP3    H235697   4.159   1.757   0.415  0.0943 -0.5314 -1.3203
 4736TIP3   OH235698   6.625   6.571   4.263  0.0713 -0.5784 -0.3186
 4736TIP3    H135699   6.549   6.597   4.315  0.3492  0.6445 -0.5047
 4736TIP3    H235700   6.589   6.515   4.194 -0.2150 -2.7295  1.5283
 4737TIP3   OH235701   5.501   2.382  16.754  0.0925 -0.9806 -0.2915
 4737TIP3    H135702   5.585   2.414  16.723  0.0413 -0.9013 -0.3503
 4737TIP3    H235703   5.452   2.461  16.777 -0.1913 -0.9901 -0.8429
 4738TIP3   OH235704   6.143   4.478  15.062  0.1333 -0.3555  0.3935
 4738TIP3    H135705   6.176   4.567  15.050 -1.9071  0.4159  0.2715
 4738TIP3    H235706   6.129   4.446  14.973 -1.7690  0.2528  0.4422
 4739TIP3   OH235707   1.682   4.409  14.178  0.2460 -0.1734  0.4067
 4739TIP3    H135708   1.609   4.463  14.208 -0.1467 -0.2338 -0.4174
 4739TIP3    H235709   1.760   4.454  14.211 -0.1613 -0.1636  1.3735
 4740TIP3   OH235710   1.290   5.373   3.938  0.0656  0.2492 -0.0576
 4740TIP3    H135711   1.252   5.455   3.905  0.8256  0.1642 -1.1830
 4740TIP3    H235712   1.260   5.368   4.029 -0.5650  1.4243 -0.1807
 4741TIP3   OH235713   3.633   1.229   2.408  0.2943  0.5545  0.3613
 4741TIP3    H135714   3.652   1.177   2.487 -0.6246 -0.7957 -0.2776
 4741TIP3    H235715   3.682   1.185   2.339  1.2651  1.8598  0.2056
 4742TIP3   OH235716   0.620   5.527  11.992  0.0673  0.1694 -0.4051
 4742TIP3    H135717   0.556   5.501  12.058 -0.5650  0.9483 -0.7118
 4742TIP3    H235718   0.607   5.465  11.921  0.8757 -0.7911  0.2566
 4743TIP3   OH235719   6.139   3.455   5.652 -0.5649  0.0009 -0.4529
 4743TIP3    H135720   6.116   3.526   5.711 -0.5131 -1.4633  1.3999
 4743TIP3    H235721   6.231   3.438   5.671 -0.3143  0.0736 -1.5792
 4744TIP3   OH235722   3.367   0.024  16.530  0.2592 -0.1732  0.5622
 4744TIP3    H135723   3.306   0.073  16.586 -1.4049 -1.3794 -0.1383
 4744TIP3    H235724   3.357   0.064  16.444  1.1842  0.2415  0.6414
 4745TIP3   OH235725   6.723   3.726  13.408  0.5240  0.0485  0.2274
 4745TIP3    H135726   6.636   3.689  13.424  0.1641  0.0934 -1.5090
 4745TIP3    H235727   6.782   3.672  13.460 -0.5731  0.3333  1.8510
 4746TIP3   OH235728   6.242   6.714   5.218  0.4242  0.9363  0.5843
 4746TIP3    H135729   6.302   6.661   5.166 -0.3081  1.2581 -0.6108
 4746TIP3    H235730   6.190   6.649   5.266 -0.6055  0.5328 -1.0235
 4747TIP3   OH235731   6.227   3.465   2.077 -0.1847  0.3947  0.1475
 4747TIP3    H135732   6.188   3.527   2.015  0.2494  0.6999  0.1756
 4747TIP3    H235733   6.290   3.416   2.024 -0.5264 -0.0175  0.1270
 4748TIP3   OH235734   5.744   5.051   0.517  0.3212  0.0930 -0.9258
 4748TIP3    H135735   5.698   5.047   0.601  1.6159  1.0511 -0.1489
 4748TIP3    H235736   5.794   5.133   0.522  2.0049 -0.8715 -1.7948
 4749TIP3   OH235737   5.016   2.278  14.610 -0.4168  0.0422  0.1957
 4749TIP3    H135738   4.928   2.257  14.642 -0.4800 -0.1006 -0.0633
 4749TIP3    H235739   5.002   2.349  14.548 -0.4017 -0.2564 -0.1549
 4750TIP3   OH235740   1.439   4.091   4.243 -0.7132 -0.1944  0.4493
 4750TIP3    H135741   1.343   4.087   4.248 -0.9350  1.3148 -1.8254
 4750TIP3    H235742   1.463   4.166   4.298 -1.0598  0.9927 -1.0007
 4751TIP3   OH235743   6.216   0.591  12.505  0.2304 -0.4226  0.0108
 4751TIP3    H135744   6.196   0.676  12.545 -2.6628 -0.8196 -0.4455
 4751TIP3    H235745   6.145   0.534  12.534  0.5878 -1.9340 -1.9968
 4752TIP3   OH235746   1.960   0.145  15.730 -0.5223  0.2573 -0.3755
 4752TIP3    H135747   2.030   0.176  15.787  0.5962 -0.2139 -1.4747
 4752TIP3    H235748   1.879   0.168  15.776  0.3470  1.3131  0.6317
 4753TIP3   OH235749   6.638   1.508   6.369  0.0203  0.1646  0.0457
 4753TIP3    H135750   6.687   1.429   6.390  0.7411  0.8443  0.9966
 4753TIP3    H235751   6.697   1.580   6.395 -1.2950  0.9905  0.7840
 4754TIP3   OH235752   4.571   2.365   3.252  0.7299  0.0230 -0.1265
 4754TIP3    H135753   4.557   2.334   3.341  2.1882  1.7991  0.7583
 4754TIP3    H235754   4.663   2.348   3.234  0.6933  0.6191 -0.9232
 4755TIP3   OH235755   1.597   4.292  17.131  0.1740  0.4429  0.0750
 4755TIP3    H135756   1.687   4.285  17.163  0.1965 -0.5399 -0.1707
 4755TIP3    H235757   1.573   4.202  17.108 -1.2537  0.5233  1.1616
 4756TIP3   OH235758   3.068   0.508  13.061  0.0971 -0.1285  0.6541
 4756TIP3    H135759   3.102   0.575  13.001  1.1720  0.0314  1.4356
 4756TIP3    H235760   2.986   0.479  13.020  0.8276 -0.0367 -0.9061
 4757TIP3   OH235761   4.531   4.356   4.399 -0.7606 -0.0514  0.5906
 4757TIP3    H135762   4.517   4.405   4.480  0.0782  1.6194 -0.2664
 4757TIP3    H235763   4.502   4.414   4.330  0.6533 -0.5770 -0.4724
 4758TIP3   OH235764   6.188   2.159  16.357 -0.0937  0.0768  0.0381
 4758TIP3    H135765   6.216   2.251  16.361 -0.5129  0.6103 -5.2176
 4758TIP3    H235766   6.268   2.110  16.342 -0.3105  0.1465 -1.5145
 4759TIP3   OH235767   3.324   1.461  13.850 -0.3746 -0.3511  0.1307
 4759TIP3    H135768   3.390   1.515  13.894  0.7485  1.1795 -3.2644
 4759TIP3    H235769   3.240   1.496  13.880  0.3576  1.8655 -0.3119
 4760TIP3   OH235770   3.059   1.078  11.730  0.0318 -0.6549  0.0112
 4760TIP3    H135771   3.003   1.051  11.802  0.6468 -0.6479  0.4989
 4760TIP3    H235772   3.062   1.174  11.738 -0.9234 -0.5495 -0.7955
 4761TIP3   OH235773   6.614   4.018   0.797 -0.0540 -0.2343  0.4060
 4761TIP3    H135774   6.702   4.033   0.831  0.1385 -0.9750  0.2679
 4761TIP3    H235775   6.628   3.955   0.725 -0.9041 -1.8832  1.6412
 4762TIP3   OH235776   3.851   0.246  16.353 -0.1083  0.3084 -0.2537
 4762TIP3    H135777   3.790   0.175  16.373 -0.4476  1.2263  2.1057
 4762TIP3    H235778   3.823   0.318  16.409  2.5020  1.1090  0.0822
 4763TIP3   OH235779   4.417   6.153  16.449  0.0814 -0.2323  0.3930
 4763TIP3    H135780   4.382   6.231  16.407 -1.0150 -1.6440 -1.4177
 4763TIP3    H235781   4.501   6.137  16.407  0.3587  0.0297  0.8426
 4764TIP3   OH235782   0.367   6.018  12.995 -0.3027 -0.7763  0.0178
 4764TIP3    H135783   0.451   5.998  12.955 -0.9185  0.6990 -2.0977
 4764TIP3    H235784   0.315   5.939  12.982 -0.0868 -0.7559 -1.0363
 4765TIP3   OH235785   2.394   3.743   0.311  0.0309 -0.2785  0.5186
 4765TIP3    H135786   2.379   3.783   0.396  0.9984 -1.0196  1.0473
 4765TIP3    H235787   2.461   3.677   0.327 -0.5458 -1.1560 -0.6088
 4766TIP3   OH235788   2.964   0.321   2.544  0.0523  0.1236  0.1892
 4766TIP3    H135789   2.899   0.276   2.489  0.7450 -0.6758  0.0036
 4766TIP3    H235790   3.040   0.262   2.544  1.5452  1.9509 -1.2693
 4767TIP3   OH235791   5.951   0.172   5.458 -0.2381  0.2946  0.0346
 4767TIP3    H135792   6.033   0.156   5.504 -0.6559 -0.0179  0.6795
 4767TIP3    H235793   5.894   0.100   5.485  0.5597 -1.7760 -3.5387
 4768TIP3   OH235794   3.665   1.590   3.821 -0.1229 -0.5122 -0.4069
 4768TIP3    H135795   3.590   1.554   3.775  0.0423 -2.6618  0.9356
 4768TIP3    H235796   3.644   1.578   3.914  1.7772 -0.9729 -0.0118
 4769TIP3   OH235797   2.800   6.378   2.382 -0.3436 -0.2988  0.1258
 4769TIP3    H135798   2.741   6.409   2.313 -0.1112  0.8751  0.4357
 4769TIP3    H235799   2.786   6.440   2.454 -0.3616 -1.3345  1.0262
 4770TIP3   OH235800   1.239   3.576  11.616  0.1633 -0.1891 -0.2803
 4770TIP3    H135801   1.293   3.597  11.692 -1.0795 -0.3764  0.6723
 4770TIP3    H235802   1.290   3.512  11.567  1.6618  1.0888 -0.4328
 4771TIP3   OH235803   4.174   4.822  15.688  0.4941  0.2664 -0.0760
 4771TIP3    H135804   4.196   4.830  15.595 -2.3828  1.8384 -0.6653
 4771TIP3    H235805   4.143   4.732  15.698  1.1054 -0.0022 -0.5740
 4772TIP3   OH235806   2.958   3.534   3.636  0.4982 -0.4150  0.0654
 4772TIP3    H135807   3.041   3.524   3.682  0.8569 -1.3779 -0.7682
 4772TIP3    H235808   2.981   3.576   3.554  0.0187  0.2424  0.2650
 4773TIP3   OH235809   0.843   0.524   0.924 -0.5973 -0.2375 -0.5726
 4773TIP3    H135810   0.805   0.558   1.005  1.5725 -1.8914  1.2184
 4773TIP3    H235811   0.799   0.572   0.854 -2.8800  0.8722  1.5667
 4774TIP3   OH235812   4.991   6.474   2.963 -0.2351  0.3341  0.0467
 4774TIP3    H135813   4.981   6.378   2.968  0.3026  0.3362  1.6072
 4774TIP3    H235814   4.908   6.504   2.926 -1.6062 -0.5471  2.2610
 4775TIP3   OH235815   1.663   5.809   0.826 -0.4233  1.0339  0.0866
 4775TIP3    H135816   1.753   5.804   0.858 -0.3760  0.3535 -0.1583
 4775TIP3    H235817   1.665   5.878   0.759 -0.2906  1.6870  0.7460
 4776TIP3   OH235818   1.744   1.332   2.472  0.0768  0.3101 -0.0013
 4776TIP3    H135819   1.820   1.380   2.439  0.7524 -2.0839 -2.1029
 4776TIP3    H235820   1.781   1.258   2.520 -0.9361  0.4635  1.0278
 4777TIP3   OH235821   2.744   0.245   0.285 -0.0197 -0.1749 -0.5363
 4777TIP3    H135822   2.661   0.202   0.303 -0.9191  0.8503 -2.0754
 4777TIP3    H235823   2.811   0.183   0.316 -1.3625 -0.1438  2.5082
 4778TIP3   OH235824   0.519   6.802   5.926 -0.4058 -0.2559 -0.7670
 4778TIP3    H135825   0.607   6.822   5.958 -1.0117  0.8714  0.2184
 4778TIP3    H235826   0.527   6.808   5.831  0.4551  0.4407 -0.6634
 4779TIP3   OH235827   5.788   6.021  10.800  0.3278  0.3922 -0.4692
 4779TIP3    H135828   5.741   6.000  10.881  0.2928  0.7024 -0.4074
 4779TIP3    H235829   5.852   5.950  10.790 -0.3646 -0.2101 -0.7187
 4780TIP3   OH235830   2.713   1.502  13.402  0.1728  0.2995  0.3130
 4780TIP3    H135831   2.721   1.474  13.493 -1.6664 -0.0918  0.3704
 4780TIP3    H235832   2.783   1.455  13.357  0.7413  0.0590  1.4181
 4781TIP3   OH235833   1.255   6.358  11.241 -0.0911  0.7507 -0.1620
 4781TIP3    H135834   1.340   6.319  11.219  0.1803  0.5855  1.1313
 4781TIP3    H235835   1.238   6.420  11.170  2.2514  2.5594  0.8043
 4782TIP3   OH235836   6.332   3.110  14.310  0.2101 -0.1489  0.2021
 4782TIP3    H135837   6.424   3.085  14.298  0.4150  0.3570  0.6500
 4782TIP3    H235838   6.337   3.199  14.345 -0.4714  0.1311 -0.4172
 4783TIP3   OH235839   3.082   2.170   3.409  0.1651 -0.1970 -0.1011
 4783TIP3    H135840   3.078   2.083   3.369 -0.7010 -0.9396  1.5174
 4783TIP3    H235841   3.062   2.230   3.338 -0.6557 -1.4255 -0.9385
 4784TIP3   OH235842   3.874   3.876  13.176  0.0901  0.1200 -0.8126
 4784TIP3    H135843   3.896   3.967  13.156  1.0799  0.4791  1.7037
 4784TIP3    H235844   3.932   3.825  13.119  2.0430  1.0811  0.2492
 4785TIP3   OH235845   4.642   1.470  11.648  0.0828  0.0782  0.1687
 4785TIP3    H135846   4.687   1.448  11.730  0.3284  1.0178  0.2931
 4785TIP3    H235847   4.579   1.537  11.673  1.0752  1.3462 -0.6373
 4786TIP3   OH235848   1.658   3.262   2.529  0.1782  0.2167  0.1201
 4786TIP3    H135849   1.660   3.260   2.625  0.4858 -1.2840  0.0997
 4786TIP3    H235850   1.748   3.284   2.503 -0.3283  2.5321  0.1757
 4787TIP3   OH235851   1.227   4.449   6.219 -0.8400 -0.5632  0.2027
 4787TIP3    H135852   1.156   4.385   6.217 -1.8385  0.5451 -0.1583
 4787TIP3    H235853   1.305   4.398   6.197 -1.7742 -1.4398 -1.1932
 4788TIP3   OH235854   1.831   1.664  15.352  0.2782  0.4669 -0.3872
 4788TIP3    H135855   1.810   1.753  15.380  1.3639  0.0386  1.9870
 4788TIP3    H235856   1.832   1.613  15.434  1.0476 -1.4296 -1.5307
 4789TIP3   OH235857   4.565   6.197   4.497  0.1311  0.2202  0.1507
 4789TIP3    H135858   4.493   6.171   4.440 -1.1334  2.1294  0.8171
 4789TIP3    H235859   4.529   6.189   4.586  0.9345  0.5783  0.5108
 4790TIP3   OH235860   1.707   5.305   0.458 -0.3581  0.1981  0.3156
 4790TIP3    H135861   1.618   5.321   0.489 -0.2369 -0.2741  0.9148
 4790TIP3    H235862   1.719   5.368   0.387 -0.1894  2.1744  2.0579
 4791TIP3   OH235863   4.394   3.472  11.974  0.3611  0.2798 -0.0776
 4791TIP3    H135864   4.478   3.426  11.972 -0.2707 -0.8662 -1.0563
 4791TIP3    H235865   4.415   3.561  12.002  1.9268  0.0592 -0.5406
 4792TIP3   OH235866   1.702   6.067  11.482 -0.8137  0.5723  0.2580
 4792TIP3    H135867   1.757   6.003  11.437 -0.9318 -0.0964  1.0592
 4792TIP3    H235868   1.703   6.143  11.425 -0.5111 -0.0737 -0.6118
 4793TIP3   OH235869   0.067   6.403   3.691  0.4277 -0.0898  0.4754
 4793TIP3    H135870   0.106   6.468   3.633 -0.4658 -0.4133 -0.5046
 4793TIP3    H235871   0.137   6.340   3.707  0.6106 -0.1285 -0.4577
 4794TIP3   OH235872   3.855   1.006  13.500 -0.0790 -0.6773  0.2923
 4794TIP3    H135873   3.936   1.058  13.495 -0.4319 -0.1907 -0.4350
 4794TIP3    H235874   3.820   1.009  13.411 -1.0406 -0.6684  0.6736
 4795TIP3   OH235875   1.420   0.703  13.609  0.1015 -0.1146  0.3223
 4795TIP3    H135876   1.377   0.666  13.533  2.2042 -2.4790  0.2149
 4795TIP3    H235877   1.413   0.635  13.677 -0.3949  1.3314  1.7580
 4796TIP3   OH235878   1.407   3.211   2.129  0.2227 -0.4017  0.8957
 4796TIP3    H135879   1.318   3.245   2.115 -0.5182 -2.0688  1.3894
 4796TIP3    H235880   1.423   3.225   2.222  0.7392  0.4918  0.6745
 4797TIP3   OH235881   5.899   2.816  16.566 -0.1283  0.7117  0.4495
 4797TIP3    H135882   5.819   2.858  16.535  0.0066  2.1729  1.9964
 4797TIP3    H235883   5.970   2.864  16.522 -0.1013 -1.7956 -2.3795
 4798TIP3   OH235884   1.862   3.845   1.391  0.4691 -0.5079 -0.3127
 4798TIP3    H135885   1.815   3.853   1.308 -0.3225  1.4543  0.3121
 4798TIP3    H235886   1.799   3.807   1.451  0.3357  0.2030 -0.0077
 4799TIP3   OH235887   2.148   2.428   1.519 -0.6744 -0.1833 -0.1765
 4799TIP3    H135888   2.233   2.409   1.559 -0.6937  1.1940  0.5804
 4799TIP3    H235889   2.086   2.373   1.566 -0.2546 -0.8912 -0.4529
 4800TIP3   OH235890   3.340   5.577   0.496  0.5017  0.2944 -0.2532
 4800TIP3    H135891   3.372   5.665   0.476 -0.3211  0.2290 -1.9258
 4800TIP3    H235892   3.309   5.543   0.412  1.1882 -1.7577  0.2891
 4801TIP3   OH235893   6.667   2.333  15.899 -0.5335  0.1273 -0.2988
 4801TIP3    H135894   6.620   2.407  15.859  1.3996  0.2564 -2.4452
 4801TIP3    H235895   6.701   2.284  15.824  2.5618 -0.0773  1.1708
 4802TIP3   OH235896   1.226   2.021   5.222 -0.8873 -0.7147  0.1031
 4802TIP3    H135897   1.182   2.083   5.280 -0.1334  0.6249 -0.7394
 4802TIP3    H235898   1.224   1.938   5.270 -0.4219  0.3330  1.9760
 4803TIP3   OH235899   4.566   5.736  15.780  0.2251  0.8117  0.0444
 4803TIP3    H135900   4.605   5.649  15.790  0.4574  0.7466 -1.2345
 4803TIP3    H235901   4.527   5.755  15.865 -0.1833 -0.7183  0.2308
 4804TIP3   OH235902   4.841   2.321   3.430 -0.2509  0.2315 -0.2303
 4804TIP3    H135903   4.893   2.319   3.350 -1.7973 -0.1487 -1.2476
 4804TIP3    H235904   4.905   2.318   3.501  1.0663 -1.4190 -1.4667
 4805TIP3   OH235905   1.487   1.510  15.690  0.4675  0.1321 -0.4944
 4805TIP3    H135906   1.523   1.522  15.778 -1.4699  1.8098  0.1026
 4805TIP3    H235907   1.445   1.424  15.693  2.6827 -0.9897 -0.6184
 4806TIP3   OH235908   3.942   2.619  14.322  0.1891 -0.7623  0.0307
 4806TIP3    H135909   4.021   2.638  14.273 -1.3003 -1.4101 -2.7118
 4806TIP3    H235910   3.918   2.702  14.363  1.4501 -0.2167 -0.3225
 4807TIP3   OH235911   4.324   6.323   1.962 -0.5136 -0.1757 -0.3545
 4807TIP3    H135912   4.272   6.384   1.911 -1.0589 -0.3346  0.0147
 4807TIP3    H235913   4.347   6.371   2.041  2.5649  1.0135 -1.8855
 4808TIP3   OH235914   1.995   3.583  11.226 -0.5284 -0.2464 -0.6077
 4808TIP3    H135915   1.996   3.608  11.319  1.2662  0.3794 -0.7812
 4808TIP3    H235916   1.905   3.599  11.198 -0.1503  3.2981  0.0195
 4809TIP3   OH235917   1.263   0.148  15.590  0.4060  0.0545 -0.1208
 4809TIP3    H135918   1.280   0.131  15.683  0.8481 -1.1131 -0.4020
 4809TIP3    H235919   1.213   0.072  15.561  0.0598  0.5338 -0.7864
 4810TIP3   OH235920   3.153   0.410  12.507 -0.6395  0.0278  0.0354
 4810TIP3    H135921   3.151   0.437  12.599  1.2320 -0.0249  0.1066
 4810TIP3    H235922   3.229   0.353  12.500 -2.3743 -2.2679 -0.9528
 4811TIP3   OH235923   2.896   3.927   3.142 -0.1473 -0.0591 -0.2852
 4811TIP3    H135924   2.803   3.908   3.159  0.1837 -1.6589 -0.1712
 4811TIP3    H235925   2.929   3.846   3.103  1.0358  0.7621 -1.0089
 4812TIP3   OH235926   2.870   4.883   5.003  0.2306 -0.9070 -0.2170
 4812TIP3    H135927   2.895   4.861   5.093  0.4718 -0.4553 -0.1712
 4812TIP3    H235928   2.887   4.977   4.995 -0.2221 -0.8527 -0.5961
 4813TIP3   OH235929   3.231   5.596   4.416 -0.0909  0.7906  0.4085
 4813TIP3    H135930   3.269   5.643   4.490  1.3485  0.6425 -0.2314
 4813TIP3    H235931   3.214   5.664   4.351  1.7935  0.4715 -0.4340
 4814TIP3   OH235932   5.562   5.919   3.444 -0.3777 -0.2292  0.3812
 4814TIP3    H135933   5.542   5.832   3.408 -2.0296  0.3610 -0.1858
 4814TIP3    H235934   5.543   5.910   3.538 -0.4462 -0.5258  0.3407
 4815TIP3   OH235935   2.229   3.940  12.361 -0.1640 -0.1856  0.1640
 4815TIP3    H135936   2.220   3.925  12.267  0.8371 -1.2677  0.2386
 4815TIP3    H235937   2.323   3.947  12.376 -0.3709  1.2707  0.9031
 4816TIP3   OH235938   4.262   6.614  13.159 -0.1278 -0.1290 -0.2903
 4816TIP3    H135939   4.188   6.623  13.099 -0.6816  0.1222  0.4307
 4816TIP3    H235940   4.257   6.523  13.190  0.9658 -0.6857 -1.6614
 4817TIP3   OH235941   1.558   3.140  16.719  0.1500 -0.3406  0.1238
 4817TIP3    H135942   1.516   3.219  16.685 -0.5630 -1.1298 -0.8729
 4817TIP3    H235943   1.485   3.082  16.742  0.6770 -1.5905 -1.3045
 4818TIP3   OH235944   3.841   3.273   0.862 -0.5064  0.0174 -0.3087
 4818TIP3    H135945   3.880   3.227   0.787 -0.7216  0.0057 -0.4129
 4818TIP3    H235946   3.846   3.365   0.837 -2.4302 -0.1100 -1.2215
 4819TIP3   OH235947   2.004   2.860  12.139  0.0672  0.2406  0.2892
 4819TIP3    H135948   1.982   2.767  12.143  0.3109  0.1696  0.0186
 4819TIP3    H235949   1.919   2.905  12.138 -0.0477  0.0315  0.5996
 4820TIP3   OH235950   0.131   3.638   2.147 -0.5704 -0.2800  0.1119
 4820TIP3    H135951   0.176   3.653   2.064 -3.1219 -0.0537 -1.2722
 4820TIP3    H235952   0.141   3.544   2.163 -4.8724 -1.4709 -3.4153
 4821TIP3   OH235953   2.445   3.823   3.400  0.2042 -0.1476 -0.0440
 4821TIP3    H135954   2.505   3.840   3.326  1.1110 -0.6011  0.5801
 4821TIP3    H235955   2.419   3.731   3.389  0.0435 -0.1061 -0.0107
 4822TIP3   OH235956   6.065   3.020  16.454 -0.6506 -0.2918  0.2296
 4822TIP3    H135957   6.138   3.059  16.502 -0.7853 -0.4401  0.5575
 4822TIP3    H235958   6.101   3.000  16.368  0.5083 -2.9038  1.2518
 4823TIP3   OH235959   1.178   4.237  15.341 -0.0196  0.4027 -0.2214
 4823TIP3    H135960   1.110   4.185  15.384 -1.4488  2.1951 -0.2476
 4823TIP3    H235961   1.259   4.190  15.360 -1.2486 -1.8380 -0.2582
 4824TIP3   OH235962   3.405   2.021   6.452 -0.5507 -0.2651 -0.1547
 4824TIP3    H135963   3.363   1.939   6.482 -1.8118 -0.0667 -1.3397
 4824TIP3    H235964   3.412   2.074   6.532  1.2670 -1.9394  0.8298
 4825TIP3   OH235965   2.871   0.342  14.563  0.1417 -0.0464 -0.2074
 4825TIP3    H135966   2.960   0.335  14.529 -0.4538  2.4230 -2.4815
 4825TIP3    H235967   2.815   0.347  14.485 -1.6125  2.0527  1.1068
 4826TIP3   OH235968   4.102   2.532  12.601  0.1319  0.4191  0.1362
 4826TIP3    H135969   4.100   2.558  12.693 -0.2686  0.7477  0.0392
 4826TIP3    H235970   4.152   2.451  12.600  1.3972  1.1673  0.4546
 4827TIP3   OH235971   4.039   2.318   6.590  0.2926  0.6530  0.3944
 4827TIP3    H135972   4.114   2.291   6.644  1.5431  0.1073 -1.5803
 4827TIP3    H235973   4.076   2.375   6.523 -0.8740 -0.4279 -1.2147
 4828TIP3   OH235974   6.652   1.989  15.036  0.6981  0.3904 -0.4655
 4828TIP3    H135975   6.564   1.964  15.063  0.8623 -0.8721 -1.0578
 4828TIP3    H235976   6.654   1.975  14.942  1.8834 -0.6927 -0.2949
 4829TIP3   OH235977   4.565   3.020  13.891 -0.0487 -0.1382 -0.4610
 4829TIP3    H135978   4.477   3.038  13.856  0.8365  1.2473 -2.0681
 4829TIP3    H235979   4.624   3.057  13.825  1.7328 -0.4707  0.9326
 4830TIP3   OH235980   6.649   0.348   5.637  0.9848 -0.1421 -0.0556
 4830TIP3    H135981   6.591   0.325   5.565 -0.3601 -0.2644  1.0666
 4830TIP3    H235982   6.705   0.417   5.601 -0.0652  0.2060 -1.0269
 4831TIP3   OH235983   1.004   0.848  13.581 -0.7584  0.1520  0.1339
 4831TIP3    H135984   1.066   0.898  13.528 -1.0484 -1.1464 -1.4877
 4831TIP3    H235985   0.952   0.914  13.626  0.9708  1.2630  0.5445
 4832TIP3   OH235986   0.465   4.914  12.651 -0.6144 -0.0948 -0.2153
 4832TIP3    H135987   0.520   4.877  12.582 -0.3319 -1.4505  0.7052
 4832TIP3    H235988   0.510   4.994  12.677  0.5496 -0.8007 -0.0018
 4833TIP3   OH235989   3.847   5.974   6.019  0.2178  0.4753 -0.5075
 4833TIP3    H135990   3.779   5.946   6.080  2.1340 -0.1370  1.4008
 4833TIP3    H235991   3.889   5.893   5.990  0.6555  0.8855 -1.0436
 4834TIP3   OH235992   3.308   2.421   4.204  0.0440  0.6426 -0.0713
 4834TIP3    H135993   3.399   2.426   4.175 -0.3361  1.3136 -1.1884
 4834TIP3    H235994   3.263   2.376   4.132 -0.1843 -1.2975  1.2608
 4835TIP3   OH235995   1.758   0.001   2.391  0.0208  0.1987 -0.6149
 4835TIP3    H135996   1.751   0.062   2.464  1.1672 -0.2537 -0.1140
 4835TIP3    H235997   1.826  -0.061   2.417 -0.4577 -0.7328 -1.5199
 4836TIP3   OH235998   1.603   2.702  11.675 -0.1584 -0.0896 -0.3841
 4836TIP3    H135999   1.586   2.769  11.609 -0.6824 -1.4686 -1.6750
 4836TIP3    H236000   1.519   2.690  11.720  0.4478  1.5606  1.2256
 4837TIP3   OH236001   1.833   2.609  11.174 -0.0929 -0.1173 -0.1068
 4837TIP3    H136002   1.806   2.607  11.082  0.3946 -1.0498 -0.2410
 4837TIP3    H236003   1.797   2.528  11.211 -0.7312  0.5127  0.6550
 4838TIP3   OH236004   1.695   5.472   1.726  0.1529  0.3180 -0.3083
 4838TIP3    H136005   1.701   5.456   1.820 -0.9468  2.9092  0.2578
 4838TIP3    H236006   1.741   5.398   1.686  0.3900 -0.9753  2.2363
 4839TIP3   OH236007   2.824   4.862   2.047 -0.3535 -0.5322  0.3914
 4839TIP3    H136008   2.879   4.815   2.110  0.7252  1.6329  1.1201
 4839TIP3    H236009   2.864   4.842   1.962  1.0278  0.2496  0.8287
 4840TIP3   OH236010   3.307   5.173   1.945  0.5843  0.1221  0.0967
 4840TIP3    H136011   3.221   5.181   1.988 -0.8259  1.8471 -2.9353
 4840TIP3    H236012   3.362   5.237   1.990 -0.8190  1.7730 -0.5001
 4841TIP3   OH236013   3.102   5.056   5.231 -0.3155 -0.1448 -0.2009
 4841TIP3    H136014   3.175   4.994   5.226  2.2639  2.7618 -0.2067
 4841TIP3    H236015   3.110   5.095   5.318 -1.4196  0.7882 -0.5151
 4842TIP3   OH236016   6.531   6.019  11.823 -0.3349 -0.0704  0.0676
 4842TIP3    H136017   6.470   6.034  11.895 -0.3474 -2.9131  0.7004
 4842TIP3    H236018   6.610   5.986  11.865  0.5659  0.6752 -1.0198
 4843TIP3   OH236019   2.249   3.679   4.947  0.1594 -0.2539  0.4994
 4843TIP3    H136020   2.191   3.752   4.970  1.7375  0.8767  1.0401
 4843TIP3    H236021   2.238   3.668   4.853  1.1708  1.8557  0.1005
 4844TIP3   OH236022   3.748   2.341   2.997 -0.0017 -0.4567  0.2618
 4844TIP3    H136023   3.667   2.291   2.999 -0.3893  0.1637  0.0809
 4844TIP3    H236024   3.814   2.281   3.034 -0.0883 -1.7667 -1.6030
 4845TIP3   OH236025   2.608   0.626   2.291  0.0474  0.7801  0.5776
 4845TIP3    H136026   2.551   0.586   2.356 -0.9052  1.2921  0.0749
 4845TIP3    H236027   2.580   0.718   2.287 -0.0555  0.7149 -0.6807
 4846TIP3   OH236028   1.016   6.046  16.134 -0.1590 -0.9741 -0.1479
 4846TIP3    H136029   1.024   6.103  16.058 -1.9410  0.8419  0.9807
 4846TIP3    H236030   0.922   6.030  16.143  0.0480 -1.3773  1.5179
 4847TIP3   OH236031   2.455   1.218   2.504 -0.2796  0.0539 -0.6337
 4847TIP3    H136032   2.511   1.276   2.555 -0.3783 -0.1729 -0.2609
 4847TIP3    H236033   2.367   1.253   2.517 -0.5490 -1.0875  0.8929
 4848TIP3   OH236034   3.307   4.448   0.895 -0.0646  0.4649 -0.2898
 4848TIP3    H136035   3.384   4.414   0.849 -0.4037 -1.0997  0.2866
 4848TIP3    H236036   3.234   4.395   0.864 -0.8519  1.6446 -0.4846
 4849TIP3   OH236037   4.320   3.531   4.598  0.0663 -0.4461 -0.6356
 4849TIP3    H136038   4.278   3.572   4.673  0.7674  0.1461 -0.5659
 4849TIP3    H236039   4.375   3.462   4.635  0.3078 -0.2420 -0.6100
 4850TIP3   OH236040   5.666   3.550  11.075 -0.2359 -0.3919 -0.1497
 4850TIP3    H136041   5.673   3.603  11.154 -1.1959 -0.9103  0.2923
 4850TIP3    H236042   5.741   3.490  11.079  0.4769  0.4791 -0.3232
 4851TIP3   OH236043   0.875   4.777   3.689  0.0104  0.0915  0.0243
 4851TIP3    H136044   0.822   4.826   3.752 -0.6709 -0.2319 -0.2876
 4851TIP3    H236045   0.813   4.753   3.620  0.5795 -0.2512 -0.3666
 4852TIP3   OH236046   4.815   2.480   2.873  0.0032  0.1965  0.4258
 4852TIP3    H136047   4.801   2.386   2.863 -0.2735  0.2515  0.2997
 4852TIP3    H236048   4.763   2.520   2.804  0.8229  0.4051 -0.0862
 4853TIP3   OH236049   0.663   0.736   5.630 -1.3697  0.4135  0.2016
 4853TIP3    H136050   0.736   0.691   5.674 -0.5021  1.9035  0.3271
 4853TIP3    H236051   0.605   0.763   5.701  0.0641  2.8773  0.5121
 4854TIP3   OH236052   4.046   2.004   0.336 -0.1612  0.0451 -0.0686
 4854TIP3    H136053   3.991   1.953   0.396 -0.7601  1.1604  0.3363
 4854TIP3    H236054   4.007   1.989   0.250 -1.0352  0.7367  0.2017
 4855TIP3   OH236055   1.490   6.799   1.548  0.1364  0.0513 -0.5141
 4855TIP3    H136056   1.472   6.768   1.637  0.3288 -0.2517 -0.5793
 4855TIP3    H236057   1.403   6.808   1.508  0.0869 -0.6205 -0.5640
 4856TIP3   OH236058   6.373   3.419  14.646 -0.7114 -0.3165  0.0082
 4856TIP3    H136059   6.357   3.512  14.656 -1.0628 -0.6337  2.8519
 4856TIP3    H236060   6.460   3.405  14.682  0.4594 -0.7099 -2.8636
 4857TIP3   OH236061   2.102   4.000   1.429  0.4537  0.5252  0.1853
 4857TIP3    H136062   2.165   3.934   1.456 -0.3087  0.2890  1.4306
 4857TIP3    H236063   2.028   3.951   1.395 -0.5289  0.6945  2.0386
 4858TIP3   OH236064   1.983   3.757  13.476  0.0728  0.0663  0.1984
 4858TIP3    H136065   1.895   3.796  13.473  0.9574  2.1528  0.5356
 4858TIP3    H236066   2.042   3.832  13.471  1.8766 -1.4486 -2.4286
 4859TIP3   OH236067   3.120   0.398  12.126 -0.3844  0.0866 -0.5923
 4859TIP3    H136068   3.176   0.418  12.051 -2.1428  0.4820 -1.8258
 4859TIP3    H236069   3.100   0.305  12.117  1.2190 -0.4128  0.6672
 4860TIP3   OH236070   4.849   3.254   2.621 -0.3167 -0.1651  0.1779
 4860TIP3    H136071   4.800   3.293   2.693  0.7312  1.4902  0.0267
 4860TIP3    H236072   4.941   3.275   2.641  0.2113 -2.0041 -0.2472
 4861TIP3   OH236073   1.744   0.198   5.776  0.1083 -0.1232 -0.1372
 4861TIP3    H136074   1.822   0.147   5.799 -0.7994 -1.5059 -0.0441
 4861TIP3    H236075   1.748   0.275   5.832  0.6104 -0.9387  0.9696
 4862TIP3   OH236076   2.110   6.387   4.195 -0.8125 -0.0332  0.3996
 4862TIP3    H136077   2.090   6.414   4.285  2.7398 -1.2223  1.6255
 4862TIP3    H236078   2.163   6.458   4.160 -0.4178 -0.5353 -0.0302
 4863TIP3   OH236079   5.996   1.379  14.510  0.6930 -0.4521 -0.1380
 4863TIP3    H136080   5.949   1.409  14.432  0.1280 -1.5547 -0.2203
 4863TIP3    H236081   6.087   1.408  14.496  0.7560 -1.2729 -1.5409
 4864TIP3   OH236082   0.959   2.019  14.073 -0.0682  0.2102  0.5592
 4864TIP3    H136083   0.874   1.989  14.108 -1.5577  3.3788 -0.1996
 4864TIP3    H236084   0.971   1.967  13.994 -1.0126 -0.6897  0.9844
 4865TIP3   OH236085   6.640   5.158   2.058  0.4404  0.0531 -0.2801
 4865TIP3    H136086   6.705   5.185   1.994 -1.2888 -2.1027 -3.0925
 4865TIP3    H236087   6.565   5.131   2.005 -0.4164 -3.5111  2.5704
 4866TIP3   OH236088   5.694   4.136   3.182 -0.2035 -0.0542 -0.1301
 4866TIP3    H136089   5.706   4.225   3.149  1.4348  0.3892  1.6055
 4866TIP3    H236090   5.737   4.136   3.267 -2.4626 -1.7813  1.0581
 4867TIP3   OH236091   5.244   6.059   5.685 -0.1885 -0.3594 -0.3425
 4867TIP3    H136092   5.324   6.017   5.655 -0.0601  0.2554 -0.8666
 4867TIP3    H236093   5.205   6.096   5.606 -0.0179  1.0008  0.1900
 4868TIP3   OH236094   6.068   0.437  14.560 -0.2118 -0.4224  0.0873
 4868TIP3    H136095   6.108   0.368  14.507 -0.9326 -1.9259  1.4636
 4868TIP3    H236096   6.042   0.504  14.497  0.8180 -1.2399 -1.2268
 4869TIP3   OH236097   5.557   6.230   3.724  0.0781 -0.4242 -0.0059
 4869TIP3    H136098   5.473   6.194   3.695  0.6725 -0.4634 -1.7196
 4869TIP3    H236099   5.533   6.304   3.781 -1.1228 -0.2896 -0.6681
 4870TIP3   OH236100   5.390   2.924  11.759 -0.3963 -0.1301 -0.2039
 4870TIP3    H136101   5.402   2.888  11.847 -0.9885  0.5689  0.1659
 4870TIP3    H236102   5.463   2.888  11.708 -0.7367 -1.4997  0.2634
 4871TIP3   OH236103   2.713   6.757  13.342  0.4403 -0.0005  0.3901
 4871TIP3    H136104   2.656   6.712  13.404 -1.4802  0.9241 -0.6611
 4871TIP3    H236105   2.673   6.742  13.257  1.7187  0.7663 -0.3690
 4872TIP3   OH236106   3.812   1.922  10.491 -0.1040 -0.5242  0.2276
 4872TIP3    H136107   3.897   1.965  10.482 -0.9589  1.0335 -0.6918
 4872TIP3    H236108   3.749   1.990  10.468 -1.5082 -2.2295 -1.0911
 4873TIP3   OH236109   4.393   2.805  13.049 -0.3716  0.2045  1.0740
 4873TIP3    H136110   4.315   2.861  13.046  0.5104  1.4432  0.7021
 4873TIP3    H236111   4.392   2.758  12.965 -0.0307  1.1900  0.5093
 4874TIP3   OH236112   5.630   6.602  15.213  0.1649 -0.3033 -0.0227
 4874TIP3    H136113   5.695   6.665  15.246 -0.1626 -0.7590  1.5490
 4874TIP3    H236114   5.670   6.516  15.227 -0.6373 -0.5719  0.6962
 4875TIP3   OH236115   2.558   2.776  16.360  0.5498  1.0446 -0.2792
 4875TIP3    H136116   2.631   2.740  16.411  0.5892  1.3094 -0.1497
 4875TIP3    H236117   2.535   2.857  16.404 -1.1519 -0.0288  0.8642
 4876TIP3   OH236118   0.561   3.910   2.823  0.3638 -0.0839  0.2228
 4876TIP3    H136119   0.617   3.832   2.832 -1.6651 -1.3305  2.9209
 4876TIP3    H236120   0.478   3.883   2.861 -0.6876  3.1330  0.3098
 4877TIP3   OH236121   6.508   5.172   1.229 -0.0565 -0.6228 -0.1208
 4877TIP3    H136122   6.517   5.264   1.251  0.8349 -0.2761 -1.8155
 4877TIP3    H236123   6.568   5.159   1.155  0.5569 -2.7713  0.6977
 4878TIP3   OH236124   2.103   4.363   2.422 -0.0763  0.6542 -0.3010
 4878TIP3    H136125   2.144   4.432   2.370  1.9824 -0.2209  0.0781
 4878TIP3    H236126   2.074   4.407   2.502 -0.3363  1.3902 -0.7975
 4879TIP3   OH236127   2.469   0.750  11.637 -0.1086 -0.5139 -0.3002
 4879TIP3    H136128   2.382   0.790  11.635 -0.2579 -0.7629  0.6797
 4879TIP3    H236129   2.498   0.762  11.728  0.9292 -0.3182 -0.6553
 4880TIP3   OH236130   3.663   0.930   4.900  0.1462 -0.0956  0.4646
 4880TIP3    H136131   3.586   0.875   4.914 -0.9065  1.4619  0.8866
 4880TIP3    H236132   3.628   1.012   4.864  1.4761  1.1162  1.8768
 4881TIP3   OH236133   3.165   1.888   2.350 -0.1505  0.2293  0.3598
 4881TIP3    H136134   3.244   1.936   2.326 -0.3778 -0.0507 -0.9974
 4881TIP3    H236135   3.105   1.901   2.276 -0.5463 -1.3932  0.3628
 4882TIP3   OH236136   2.297   5.707   3.092 -0.1833  0.3410 -0.5733
 4882TIP3    H136137   2.347   5.634   3.127  0.7591 -0.0627 -2.7177
 4882TIP3    H236138   2.320   5.781   3.149  1.1255 -0.3491 -0.1889
 4883TIP3   OH236139   3.653   0.802   1.019  0.4808  0.1471  0.4364
 4883TIP3    H136140   3.579   0.815   1.078  0.3933  0.2453  0.3025
 4883TIP3    H236141   3.645   0.711   0.991  0.1141  0.3086  0.0111
 4884TIP3   OH236142   5.960   5.069   2.321  0.4101 -0.2451  0.5829
 4884TIP3    H136143   5.975   5.127   2.396  1.4587  0.7453 -0.3810
 4884TIP3    H236144   6.044   5.028   2.305  0.2167 -0.3655 -0.1264
 4885TIP3   OH236145   6.707   1.454   2.647  0.0501 -0.3069  0.4252
 4885TIP3    H136146   6.615   1.441   2.624  0.3207 -0.8318 -0.3905
 4885TIP3    H236147   6.734   1.532   2.600  0.9048 -1.9942 -2.0069
 4886TIP3   OH236148   1.089   1.105  11.359  0.0691 -0.3456 -0.2282
 4886TIP3    H136149   1.101   1.152  11.277 -0.5428  1.5226  0.7420
 4886TIP3    H236150   1.163   1.131  11.413 -1.9050  1.9797  1.4428
 4887TIP3   OH236151   3.527   2.901  16.105  0.3683 -0.6688  0.3356
 4887TIP3    H136152   3.479   2.947  16.174 -0.4701 -0.8678 -0.1078
 4887TIP3    H236153   3.593   2.849  16.151 -2.1296 -3.1730  1.2147
 4888TIP3   OH236154   3.896   2.033  17.117  0.0143 -0.3471  0.2831
 4888TIP3    H136155   3.907   2.089  17.040  1.2446 -1.5849 -0.4523
 4888TIP3    H236156   3.966   2.060  17.176  0.6377 -1.1326 -0.0938
 4889TIP3   OH236157   4.703   6.723  14.726 -0.2138  0.0419 -0.5512
 4889TIP3    H136158   4.622   6.697  14.769  0.6955 -0.8994  0.6310
 4889TIP3    H236159   4.727   6.806  14.766  0.7362 -0.9268  0.9585
 4890TIP3   OH236160   3.656   4.284  15.863 -0.2458  0.1681 -0.2109
 4890TIP3    H136161   3.693   4.276  15.775 -0.4008  0.6756 -0.3213
 4890TIP3    H236162   3.704   4.220  15.915 -0.0608 -0.0378 -0.6359
 4891TIP3   OH236163   2.315   0.589   5.502 -0.7399  0.3313  0.3022
 4891TIP3    H136164   2.361   0.625   5.578  1.2733 -1.3849 -0.0454
 4891TIP3    H236165   2.326   0.494   5.510 -3.7182 -0.1199 -0.1501
 4892TIP3   OH236166   5.942   2.464  15.761 -0.1166  0.6113 -0.3402
 4892TIP3    H136167   5.990   2.395  15.714 -1.4982 -0.7162  0.1444
 4892TIP3    H236168   5.998   2.487  15.834 -0.4371 -1.3681  0.5779
 4893TIP3   OH236169   2.746   4.081  17.050  0.0734  0.5601 -0.1248
 4893TIP3    H136170   2.778   3.993  17.032 -0.0607  0.5192 -0.1648
 4893TIP3    H236171   2.791   4.137  16.987  0.0984  0.5089 -0.1514
 4894TIP3   OH236172   5.503   2.576  15.175  0.2841  0.0108  0.0118
 4894TIP3    H136173   5.471   2.621  15.098 -1.9386 -2.2247 -0.4376
 4894TIP3    H236174   5.480   2.633  15.248  0.1298  0.9542 -0.7659
 4895TIP3   OH236175   6.456   1.816   2.223  1.0307  0.3769  0.8788
 4895TIP3    H136176   6.424   1.830   2.312 -2.9700 -0.2726 -0.3877
 4895TIP3    H236177   6.450   1.902   2.182  2.1240  0.5025  0.9510
 4896TIP3   OH236178   1.756   4.715   1.624 -0.6176 -0.0521  0.4400
 4896TIP3    H136179   1.795   4.755   1.701 -0.2140  1.9822 -0.7996
 4896TIP3    H236180   1.821   4.727   1.554 -1.8770  0.0590 -0.7380
 4897TIP3   OH236181   0.385   5.381   4.764  0.1495  0.1051 -0.6233
 4897TIP3    H136182   0.339   5.371   4.680 -0.3463  0.5768 -0.4081
 4897TIP3    H236183   0.335   5.329   4.826 -0.0062  0.4975 -0.4196
 4898TIP3   OH236184   6.213   1.229   1.908  0.0142  0.6878  0.9136
 4898TIP3    H136185   6.195   1.153   1.963  0.1492  1.0619  1.4836
 4898TIP3    H236186   6.183   1.304   1.960 -1.0255  0.9522 -0.0418
 4899TIP3   OH236187   1.236   6.689   4.525  0.0716  0.3674  0.5599
 4899TIP3    H136188   1.142   6.707   4.523 -0.1307 -0.7395  0.0280
 4899TIP3    H236189   1.254   6.647   4.441  0.7890 -0.7456  1.2665
 4900TIP3   OH236190   6.524   1.792  17.128  0.0015 -0.0876  0.1582
 4900TIP3    H136191   6.508   1.844  17.049 -2.0394 -0.1205  0.5186
 4900TIP3    H236192   6.590   1.727  17.101 -0.5745 -0.0200 -1.4908
 4901TIP3   OH236193   1.193   4.799  11.825  0.0538  0.2470 -0.1410
 4901TIP3    H136194   1.268   4.821  11.880 -0.2199 -0.2035  0.4175
 4901TIP3    H236195   1.123   4.777  11.887 -0.6686  1.0625 -0.6496
 4902TIP3   OH236196   6.645   5.361  13.681  0.4423  0.3408  0.1809
 4902TIP3    H136197   6.641   5.441  13.628  0.3268  1.1844  1.4583
 4902TIP3    H236198   6.641   5.290  13.616 -2.0179  1.3316 -0.8327
 4903TIP3   OH236199   5.266   0.176  12.151  0.3064 -0.4222  0.4726
 4903TIP3    H136200   5.302   0.244  12.207  0.3037  0.0797 -0.1267
 4903TIP3    H236201   5.185   0.148  12.195 -0.0799  0.4810  0.3468
 4904TIP3   OH236202   2.762   6.028  16.884  0.3371  0.3874 -0.0703
 4904TIP3    H136203   2.683   6.059  16.840 -0.5384 -0.1759  1.0708
 4904TIP3    H236204   2.826   6.097  16.869 -0.5490  1.1357 -0.4972
 4905TIP3   OH236205   1.614   4.867   2.895 -0.3860 -0.3067 -0.5575
 4905TIP3    H136206   1.598   4.946   2.946  2.3671 -0.0928  0.0559
 4905TIP3    H236207   1.577   4.796   2.948 -0.8289  0.3185 -0.0307
 4906TIP3   OH236208   5.420   5.465   5.478 -0.1040 -0.4214  0.5984
 4906TIP3    H136209   5.411   5.555   5.448 -1.5529 -0.7465 -0.0138
 4906TIP3    H236210   5.515   5.449   5.480  0.1564  1.0927  0.6932
 4907TIP3   OH236211   3.142   4.991   0.761 -0.0374  0.4930  0.9676
 4907TIP3    H136212   3.065   4.942   0.790  0.6140  0.2117  2.2341
 4907TIP3    H236213   3.138   4.987   0.665 -0.3285 -1.5099  1.0434
 4908TIP3   OH236214   5.135   6.777   0.604 -0.1707 -0.2626  0.3040
 4908TIP3    H136215   5.192   6.766   0.680  1.0894  1.4324 -0.3558
 4908TIP3    H236216   5.125   6.689   0.569  2.0675 -0.5954  0.4394
 4909TIP3   OH236217   4.678   3.293  11.646 -0.2215  0.4254 -0.1745
 4909TIP3    H136218   4.613   3.278  11.577 -0.2323 -1.9626  0.3141
 4909TIP3    H236219   4.741   3.353  11.606 -1.3858  0.8176 -1.5011
 4910TIP3   OH236220   4.247   1.961   1.430  0.3122 -0.5893  0.0743
 4910TIP3    H136221   4.302   2.032   1.464 -1.8353  1.3873 -0.4572
 4910TIP3    H236222   4.254   1.968   1.335  0.5604 -1.4982  0.0184
 4911TIP3   OH236223   3.994   0.635  10.685  0.2430 -0.0049 -0.3614
 4911TIP3    H136224   4.056   0.610  10.754 -0.5979  0.2396  0.4943
 4911TIP3    H236225   3.928   0.565  10.687  0.4607 -0.2434 -1.2418
 4912TIP3   OH236226   0.294   2.661   2.821  0.1160 -0.1817 -0.2971
 4912TIP3    H136227   0.310   2.688   2.731 -0.3323  1.0404 -0.0257
 4912TIP3    H236228   0.371   2.691   2.869  0.6515 -1.3959 -0.3695
 4913TIP3   OH236229   0.753   0.687  12.565  0.3937  0.2834  0.1724
 4913TIP3    H136230   0.742   0.596  12.538 -1.4132  0.7948 -0.9051
 4913TIP3    H236231   0.832   0.687  12.618 -0.5930 -2.2454  1.7283
 4914TIP3   OH236232   0.369   3.132  13.828 -0.0466  0.1272  0.2165
 4914TIP3    H136233   0.289   3.121  13.879  0.5855  0.7955  1.3761
 4914TIP3    H236234   0.412   3.046  13.832  0.6965  0.5511  2.0490
 4915TIP3   OH236235   0.958   3.122  12.674 -0.1257  0.3161  0.1934
 4915TIP3    H136236   1.013   3.156  12.604  0.7032 -0.9004  0.2334
 4915TIP3    H236237   1.011   3.053  12.715 -1.2575 -0.1413  0.9195
 4916TIP3   OH236238   5.593   2.966  14.658 -0.1029  0.5085 -0.2623
 4916TIP3    H136239   5.640   2.988  14.578 -0.0255 -0.3298 -0.4553
 4916TIP3    H236240   5.502   2.953  14.629  0.2903 -1.7630 -0.5730
 4917TIP3   OH236241   1.156   3.317   2.043  0.5000 -0.4256 -0.1686
 4917TIP3    H136242   1.170   3.310   1.949 -0.1501  0.8768 -0.3673
 4917TIP3    H236243   1.163   3.411   2.062  0.2313 -0.6353  1.0130
 4918TIP3   OH236244   3.662   4.904  16.178  0.0044 -0.1559  0.4733
 4918TIP3    H136245   3.747   4.941  16.201  0.2525 -0.2663 -0.2333
 4918TIP3    H236246   3.600   4.976  16.190  0.4907  0.5279 -0.9577
 4919TIP3   OH236247   4.222   5.611   1.219  0.2709  0.5395 -0.3785
 4919TIP3    H136248   4.140   5.587   1.175 -0.4146  1.3316  0.4287
 4919TIP3    H236249   4.199   5.689   1.270  0.8032 -0.8858  2.1172
 4920TIP3   OH236250   5.792   2.426  13.565 -0.1098  0.1933 -0.0403
 4920TIP3    H136251   5.752   2.409  13.650 -1.4234  1.0475 -0.4805
 4920TIP3    H236252   5.872   2.474  13.585 -0.8879  1.2044  0.6488
 4921TIP3   OH236253   6.329   5.676  10.604  0.5689 -0.0766  0.0308
 4921TIP3    H136254   6.255   5.737  10.600 -1.5755 -2.5814  0.2027
 4921TIP3    H236255   6.349   5.656  10.513  0.3461 -0.2234  0.0141
 4922TIP3   OH236256   4.236   6.224   6.335  0.1130 -0.2123  0.2126
 4922TIP3    H136257   4.145   6.256   6.334  0.5114  0.9030 -0.6774
 4922TIP3    H236258   4.269   6.250   6.421 -0.5721 -1.0885  0.7472
 4923TIP3   OH236259   5.711   5.449   5.451  0.2425 -0.5937  0.2149
 4923TIP3    H136260   5.712   5.368   5.400  0.4325 -0.9487  0.7846
 4923TIP3    H236261   5.771   5.507   5.404  3.6039 -2.2957  2.2499
 4924TIP3   OH236262   5.661   6.272  15.674  0.1841 -0.4941 -0.0702
 4924TIP3    H136263   5.678   6.336  15.605 -0.2285 -0.5560 -0.2319
 4924TIP3    H236264   5.594   6.312  15.728 -1.4887 -1.5930 -1.2837
 4925TIP3   OH236265   0.303   2.702  14.056 -0.1339  0.4571 -0.1313
 4925TIP3    H136266   0.365   2.732  13.990 -0.9618  0.3827 -0.9562
 4925TIP3    H236267   0.323   2.609  14.067  0.4449  0.6225  0.2123
 4926TIP3   OH236268   4.002   2.920   1.725 -0.0377  0.0424  0.1749
 4926TIP3    H136269   3.963   2.884   1.804  0.5989  0.5913  0.7466
 4926TIP3    H236270   4.082   2.963   1.755 -1.5463  3.2779 -0.2392
 4927TIP3   OH236271   6.731   0.522  15.031 -0.2633 -0.2142  0.0484
 4927TIP3    H136272   6.692   0.551  14.949  1.5023  2.2479  0.0272
 4927TIP3    H236273   6.672   0.555  15.099 -1.1667 -1.3577 -0.1589
 4928TIP3   OH236274   0.849   3.287  15.875  0.2437  0.4827 -0.3179
 4928TIP3    H136275   0.822   3.378  15.886 -0.4338  0.0753  1.5192
 4928TIP3    H236276   0.925   3.277  15.932 -1.6041 -0.9081  1.9962
 4929TIP3   OH236277   0.842   2.600   6.357  0.4781 -0.5076 -0.1020
 4929TIP3    H136278   0.815   2.518   6.399  1.6573  0.0581  1.8415
 4929TIP3    H236279   0.775   2.616   6.290 -0.4391 -2.4109  0.3269
 4930TIP3   OH236280   6.428   0.770  16.974  0.1512  0.3052  0.6547
 4930TIP3    H136281   6.504   0.824  16.995  0.5817 -0.0723  0.0704
 4930TIP3    H236282   6.379   0.765  17.056  0.9757  0.1915  1.1469
 4931TIP3   OH236283   1.244   1.055   4.111 -0.3189 -0.3386 -0.1104
 4931TIP3    H136284   1.149   1.044   4.111 -0.0828 -2.6446 -0.6385
 4931TIP3    H236285   1.264   1.100   4.029 -1.0698  1.6719  0.7613
 4932TIP3   OH236286   3.703   1.368   2.091  0.0388 -0.0612 -0.3020
 4932TIP3    H136287   3.691   1.313   2.013 -0.7036  0.3801 -0.5126
 4932TIP3    H236288   3.763   1.319   2.147  1.6735  0.2444 -1.7467
 4933TIP3   OH236289   5.765   5.441  14.452 -0.3002 -0.1205 -0.1345
 4933TIP3    H136290   5.771   5.384  14.529 -0.4488 -0.6765 -0.5315
 4933TIP3    H236291   5.690   5.498  14.470 -1.4515 -1.4478 -0.6611
 4934TIP3   OH236292   1.453   1.283   4.336 -0.1015 -0.2718  0.1921
 4934TIP3    H136293   1.358   1.282   4.322  0.1784 -0.5544 -1.8358
 4934TIP3    H236294   1.464   1.328   4.420 -2.0092  0.2015  0.2175
 4935TIP3   OH236295   5.273   0.831   4.771  0.5095  0.1257 -0.1876
 4935TIP3    H136296   5.317   0.750   4.746 -0.3584  0.1888 -2.0035
 4935TIP3    H236297   5.188   0.827   4.727 -0.3933  1.0358  1.4412
 4936TIP3   OH236298   3.853   1.999  13.488 -0.1985 -0.0580  0.4345
 4936TIP3    H136299   3.860   2.052  13.567  0.4579 -0.3792  0.5984
 4936TIP3    H236300   3.878   2.058  13.417  2.1328 -0.5928  0.7904
 4937TIP3   OH236301   2.154   0.548  12.506 -0.0899  0.5111  0.0602
 4937TIP3    H136302   2.133   0.591  12.423 -0.3143 -0.6050 -0.4671
 4937TIP3    H236303   2.237   0.586  12.533 -0.5554  1.6755 -0.1225
 4938TIP3   OH236304   3.837   3.289   1.151  0.5090  0.3480  0.0129
 4938TIP3    H136305   3.835   3.281   1.056 -0.9912  1.5838 -0.0822
 4938TIP3    H236306   3.817   3.202   1.184 -2.1472  0.6039 -0.8402
 4939TIP3   OH236307   5.676   1.759  15.233 -0.1353 -0.1382 -0.1535
 4939TIP3    H136308   5.719   1.703  15.168  0.1228 -0.9869  0.7456
 4939TIP3    H236309   5.649   1.836  15.183  3.1905  0.8181 -0.5750
 4940TIP3   OH236310   3.746   1.909   2.470 -0.3815  0.5038  0.3634
 4940TIP3    H136311   3.676   1.856   2.508 -0.2891 -0.3095 -0.5924
 4940TIP3    H236312   3.816   1.907   2.535  0.0313 -1.4255 -0.1205
 4941TIP3   OH236313   2.481   0.980   3.067  0.1084 -0.0840  0.0124
 4941TIP3    H136314   2.569   0.979   3.030 -0.0158 -2.4494 -0.3187
 4941TIP3    H236315   2.475   1.063   3.114  2.2256  0.4521 -0.6238
 4942TIP3   OH236316   4.370   5.450   1.971 -0.5551 -0.2227 -0.0816
 4942TIP3    H136317   4.448   5.412   1.930 -0.1309 -0.8683  1.2954
 4942TIP3    H236318   4.320   5.486   1.898  1.2206  0.5518 -0.9487
 4943TIP3   OH236319   4.020   6.407   4.440 -0.2862  0.1128 -0.2210
 4943TIP3    H136320   3.978   6.493   4.431  0.2281  0.5498  1.4348
 4943TIP3    H236321   4.009   6.384   4.532 -0.1271 -1.4614 -0.5772
 4944TIP3   OH236322   3.899   2.141   5.533 -0.3832  0.4398 -0.0608
 4944TIP3    H136323   3.879   2.078   5.464 -2.1550  0.7822  0.1053
 4944TIP3    H236324   3.925   2.220   5.486  1.4534 -0.2602 -0.2743
 4945TIP3   OH236325   6.415   5.631  16.753 -0.2057  0.0542 -0.7056
 4945TIP3    H136326   6.368   5.678  16.684  0.5470  1.0776 -0.5377
 4945TIP3    H236327   6.480   5.694  16.785 -0.4091 -0.4798  0.8002
 4946TIP3   OH236328   6.221   3.942  14.303 -0.0992  0.5175  0.1946
 4946TIP3    H136329   6.278   4.003  14.256 -1.4295  1.0546 -0.7634
 4946TIP3    H236330   6.277   3.867  14.322  0.7455  0.7253 -1.3455
 4947TIP3   OH236331   4.971   4.024  15.312  0.2174 -0.0285  0.3684
 4947TIP3    H136332   5.011   4.089  15.254  1.7366  0.1824  1.5983
 4947TIP3    H236333   4.980   4.062  15.399 -0.0270 -1.3155  0.9671
 4948TIP3   OH236334   1.496   4.433  10.847 -0.3940  0.7087 -0.1537
 4948TIP3    H136335   1.418   4.486  10.832 -1.0154  0.0004  0.5015
 4948TIP3    H236336   1.570   4.491  10.829 -1.0782  1.4886 -0.4220
 4949TIP3   OH236337   1.339   5.910  17.091 -0.0589  0.4926  0.2329
 4949TIP3    H136338   1.281   5.902  17.015 -0.1639  0.4176  0.3190
 4949TIP3    H236339   1.292   5.968  17.151 -0.6901 -0.6712  0.8915
 4950TIP3   OH236340   1.904   5.272  16.504 -0.5305  0.7251  0.0694
 4950TIP3    H136341   1.829   5.273  16.444 -1.2852 -1.3071  0.9266
 4950TIP3    H236342   1.950   5.191  16.484  0.4192  1.0786  0.7882
 4951TIP3   OH236343   4.125   2.407   4.178 -0.4937  0.1718  0.2320
 4951TIP3    H136344   4.118   2.414   4.083 -1.5894  0.2401  0.3120
 4951TIP3    H236345   4.198   2.465   4.201  1.4054 -1.7301 -0.7905
 4952TIP3   OH236346   1.024   1.595  12.327  0.1436 -0.8275 -0.5544
 4952TIP3    H136347   1.004   1.685  12.353  1.0165 -0.7064 -0.2747
 4952TIP3    H236348   1.091   1.567  12.390 -1.1388 -2.1639  0.2506
 4953TIP3   OH236349   4.198   5.179  17.206  0.0409 -0.0924  0.1812
 4953TIP3    H136350   4.140   5.158  17.280  0.2755 -1.3927  0.0163
 4953TIP3    H236351   4.283   5.197  17.246  0.0261 -0.2367  0.2777
 4954TIP3   OH236352   0.165   5.509  12.063  0.8227  0.0671  0.1687
 4954TIP3    H136353   0.096   5.575  12.066  1.1632  0.4626 -0.4487
 4954TIP3    H236354   0.208   5.524  11.979  0.8369 -1.0119 -0.0251
 4955TIP3   OH236355   1.062   2.072   2.721 -0.0183  0.3849  0.4911
 4955TIP3    H136356   1.012   2.124   2.657  0.4327 -1.5794 -1.5188
 4955TIP3    H236357   1.014   1.989   2.726  1.4688 -0.4731  0.6601
 4956TIP3   OH236358   4.943   3.005  11.683  0.0542  1.0252  0.1791
 4956TIP3    H136359   4.893   2.985  11.762  2.6640  1.5629  1.9912
 4956TIP3    H236360   4.904   2.948  11.616 -2.0649  0.4387  1.8572
 4957TIP3   OH236361   1.301   1.701   2.175 -0.9826 -0.0114 -0.2612
 4957TIP3    H136362   1.358   1.756   2.229 -0.7556 -2.3617  1.9870
 4957TIP3    H236363   1.348   1.618   2.167 -2.9522 -1.1438 -0.4606
 4958TIP3   OH236364   1.061   0.715  12.011 -0.1947  0.2240  0.2350
 4958TIP3    H136365   1.049   0.759  11.927 -2.4543 -0.2439  0.2927
 4958TIP3    H236366   1.145   0.669  12.002 -0.3886  0.2127 -1.7477
 4959TIP3   OH236367   3.598   6.125   1.729  0.4283  0.4752 -0.0696
 4959TIP3    H136368   3.550   6.067   1.788  2.0612 -0.6214  0.2144
 4959TIP3    H236369   3.545   6.128   1.650 -0.0380 -0.8720  0.1724
 4960TIP3   OH236370   3.699   3.669  11.065 -0.1646 -0.1136 -0.6008
 4960TIP3    H136371   3.701   3.630  10.978 -1.1946  1.4585 -1.3582
 4960TIP3    H236372   3.644   3.747  11.055 -0.1238  0.2019  1.4087
 4961TIP3   OH236373   6.085   5.607   2.541 -0.4594 -0.0596 -0.2609
 4961TIP3    H136374   6.086   5.538   2.607 -3.1601  1.9535  2.0378
 4961TIP3    H236375   5.993   5.616   2.517  0.1034  1.3823 -2.0380
 4962TIP3   OH236376   5.950   5.435  12.685  0.0508  0.8465  0.3914
 4962TIP3    H136377   5.968   5.431  12.779 -0.7017  1.7269  0.5781
 4962TIP3    H236378   5.891   5.361  12.669 -2.6445  2.7339  1.2724
 4963TIP3   OH236379   2.520   5.773   2.655  0.6377 -0.0752  0.7204
 4963TIP3    H136380   2.541   5.845   2.595 -1.6669  0.5154  0.5775
 4963TIP3    H236381   2.530   5.694   2.602  0.0667  0.3501 -0.0309
 4964TIP3   OH236382   1.968   0.355   3.357 -0.5009 -0.0404  0.0002
 4964TIP3    H136383   2.047   0.403   3.379  0.0727 -0.1914 -1.6363
 4964TIP3    H236384   1.987   0.264   3.380 -0.0920 -0.1194 -0.6403
 4965TIP3   OH236385   1.320   5.012   5.011  0.2888 -0.1625 -0.1591
 4965TIP3    H136386   1.231   5.025   5.042 -0.0831  0.2432 -1.3776
 4965TIP3    H236387   1.375   5.057   5.075 -0.3143 -1.0670  1.0219
 4966TIP3   OH236388   1.073   0.664   4.316  0.0252 -0.3042 -0.1234
 4966TIP3    H136389   0.995   0.716   4.297  0.7994  0.9429  0.0555
 4966TIP3    H236390   1.042   0.597   4.378 -0.5238  1.3864  1.4996
 4967TIP3   OH236391   4.456   1.741   4.292 -0.1133 -0.1903 -0.1306
 4967TIP3    H136392   4.433   1.723   4.383  0.1657 -2.6998 -0.5168
 4967TIP3    H236393   4.374   1.771   4.252 -0.0332  1.8118  1.1140
 4968TIP3   OH236394   4.715   1.467  14.525 -0.4648  0.1339 -0.0502
 4968TIP3    H136395   4.751   1.555  14.512 -1.3733  0.8467  2.0598
 4968TIP3    H236396   4.755   1.415  14.456  1.1155  1.9067 -0.5245
 4969TIP3   OH236397   1.687   3.519  17.231 -0.1324 -0.1364  0.0868
 4969TIP3    H136398   1.630   3.594  17.216 -1.2452 -0.9349  0.2194
 4969TIP3    H236399   1.736   3.541  17.310  0.8747  1.2099 -0.8811
 4970TIP3   OH236400   2.475   3.282   1.098  0.0295  0.1652  0.3237
 4970TIP3    H136401   2.513   3.209   1.049  0.8077  1.2093 -0.6845
 4970TIP3    H236402   2.406   3.316   1.041  1.6657  2.0740 -0.5878
 4971TIP3   OH236403   5.133   1.729   1.323  0.1832  0.7118 -0.8934
 4971TIP3    H136404   5.045   1.705   1.296  0.3225 -0.2180 -0.5575
 4971TIP3    H236405   5.160   1.797   1.262 -0.5281  0.5573 -1.3815
 4972TIP3   OH236406   0.119   3.179  11.056 -0.7281  0.2945 -0.6553
 4972TIP3    H136407   0.197   3.165  11.110 -0.7821  0.6229 -0.4935
 4972TIP3    H236408   0.045   3.161  11.115 -0.8347  2.5887 -0.0401
 4973TIP3   OH236409   4.345   1.686   0.170  0.1242  0.0257 -0.5742
 4973TIP3    H136410   4.344   1.772   0.129  0.6127  0.1237 -0.3791
 4973TIP3    H236411   4.316   1.701   0.260 -1.2990 -0.2407 -0.9748
 4974TIP3   OH236412   0.415   2.271  11.907  0.0384  0.9845  0.1461
 4974TIP3    H136413   0.504   2.307  11.913  1.0771 -1.3984 -0.4361
 4974TIP3    H236414   0.365   2.318  11.974  2.0964  1.3136  1.4865
 4975TIP3   OH236415   6.579   5.812  14.445  0.5354  0.2008  0.0519
 4975TIP3    H136416   6.495   5.767  14.442  0.8213 -0.2474 -1.6611
 4975TIP3    H236417   6.558   5.899  14.479 -0.3871 -0.3998  1.0449
 4976TIP3   OH236418   6.017   4.034   0.619 -0.5844 -0.2799 -0.2960
 4976TIP3    H136419   5.959   4.036   0.695  1.1824 -0.0943  1.0829
 4976TIP3    H236420   6.055   3.946   0.621  2.3036  0.9474  1.2637
 4977TIP3   OH236421   5.154   4.086   6.413  0.4480  0.1036  0.0870
 4977TIP3    H136422   5.186   4.151   6.351  1.0248  0.3656  0.6513
 4977TIP3    H236423   5.232   4.036   6.438 -0.3729 -2.4387 -2.2173
 4978TIP3   OH236424   2.360   2.602  13.088  0.5054  0.3841  0.1466
 4978TIP3    H136425   2.449   2.623  13.059  0.5025  1.4953  0.9062
 4978TIP3    H236426   2.309   2.679  13.063 -0.2678 -0.2940 -0.3734
 4979TIP3   OH236427   3.121   6.288   3.435 -0.5374 -0.1130 -0.0362
 4979TIP3    H136428   3.162   6.277   3.521 -0.7327  0.8305  0.1887
 4979TIP3    H236429   3.031   6.316   3.455 -0.3608  0.8353 -0.5438
 4980TIP3   OH236430   6.640   1.241  14.594  0.0146 -0.4708  0.6985
 4980TIP3    H136431   6.693   1.194  14.659 -1.1052 -2.3264  0.2991
 4980TIP3    H236432   6.592   1.305  14.646  3.0635  1.6849  0.9933
 4981TIP3   OH236433   6.279   3.755   1.813 -0.3011 -0.1055  0.1214
 4981TIP3    H136434   6.374   3.752   1.800 -0.3696 -0.2307 -0.3523
 4981TIP3    H236435   6.246   3.805   1.739 -0.5625  0.3503  0.5434
 4982TIP3   OH236436   4.045   4.070  11.314 -0.1869 -0.1073 -0.3091
 4982TIP3    H136437   3.953   4.081  11.338 -0.6048 -0.6256 -1.5977
 4982TIP3    H236438   4.084   4.156  11.329 -1.7805  1.2493 -3.4575
 4983TIP3   OH236439   4.941   0.172   6.972  0.1570  0.6875  0.3932
 4983TIP3    H136440   4.940   0.267   6.963 -0.5527  0.5442 -1.0714
 4983TIP3    H236441   4.864   0.152   7.025  0.4550  0.9513  0.9258
 4984TIP3   OH236442   4.319   3.598   1.277 -0.4615  0.7342  0.3821
 4984TIP3    H136443   4.236   3.552   1.284 -0.8903  1.6162  1.3143
 4984TIP3    H236444   4.329   3.643   1.361  2.0746 -1.1933  1.1852
 4985TIP3   OH236445   2.955   5.800  13.421 -0.2511  0.2530 -0.5428
 4985TIP3    H136446   3.045   5.803  13.388 -0.0155 -0.6101  0.0103
 4985TIP3    H236447   2.961   5.752  13.503 -1.3476 -0.4989 -0.8911
 4986TIP3   OH236448   5.359   1.460  11.687 -0.6221  0.2858  0.5843
 4986TIP3    H136449   5.330   1.369  11.679  1.6425 -0.2150 -3.7314
 4986TIP3    H236450   5.294   1.511  11.639  0.2548  0.4225 -0.4684
 4987TIP3   OH236451   1.777   4.789  14.360 -0.1994  0.5142  0.1297
 4987TIP3    H136452   1.683   4.797  14.342 -0.1559  1.2298  0.2119
 4987TIP3    H236453   1.788   4.823  14.448  0.2138  0.9349 -0.0796
 4988TIP3   OH236454   5.064   2.992  12.253  0.0393  0.5335  0.5374
 4988TIP3    H136455   5.057   3.019  12.345  2.6596 -0.3382  1.0262
 4988TIP3    H236456   5.104   3.066  12.208  1.4404 -0.1442  0.6637
 4989TIP3   OH236457   5.495   3.810  11.817  0.5089  0.2031 -0.3335
 4989TIP3    H136458   5.430   3.772  11.758  0.4158  2.1689 -1.5425
 4989TIP3    H236459   5.482   3.905  11.810  0.9130  0.5131  2.3934
 4990TIP3   OH236460   5.369   3.431  17.290 -0.1041 -0.2031 -0.1371
 4990TIP3    H136461   5.440   3.489  17.319  0.3995 -0.6472 -0.4733
 4990TIP3    H236462   5.334   3.394  17.371 -0.8838  1.0929  0.1358
 4991TIP3   OH236463   1.244   2.194   5.871 -0.5263  0.1548  0.1324
 4991TIP3    H136464   1.239   2.248   5.792 -1.2444  0.4107  0.3490
 4991TIP3    H236465   1.221   2.254   5.942  0.0817 -0.0840  0.5340
 4992TIP3   OH236466   2.599   1.971   2.669  0.3446 -0.4172  0.5602
 4992TIP3    H136467   2.506   1.987   2.660 -0.2829 -3.3779  1.3323
 4992TIP3    H236468   2.626   1.937   2.583  0.6605  0.1660  0.4264
 4993TIP3   OH236469   4.301   5.166  16.895 -0.4236  0.4072  0.5113
 4993TIP3    H136470   4.242   5.174  16.970  0.0431  1.1856  0.8072
 4993TIP3    H236471   4.297   5.251  16.852 -0.5251  0.0319 -0.2307
 4994TIP3   OH236472   3.810   6.743   3.927 -0.5526  0.1373  0.2145
 4994TIP3    H136473   3.786   6.836   3.933 -0.9523 -0.0256  1.3500
 4994TIP3    H236474   3.815   6.725   3.834 -1.3325  1.0969 -0.0171
 4995TIP3   OH236475   5.177   3.185  15.452 -0.9009  0.8420 -0.3776
 4995TIP3    H136476   5.245   3.247  15.425 -1.7324  1.9064 -0.0674
 4995TIP3    H236477   5.114   3.185  15.379  0.2252 -1.3832 -1.4080
 4996TIP3   OH236478   3.974   1.067   3.799  0.2288 -0.1103  0.0270
 4996TIP3    H136479   4.019   1.005   3.856  2.0360 -0.0321 -1.2480
 4996TIP3    H236480   4.038   1.136   3.784 -1.3105  1.4295  0.3874
 4997TIP3   OH236481   6.391   6.642  11.513 -0.1217  0.3658  0.5957
 4997TIP3    H136482   6.457   6.639  11.444  0.0928 -0.5936  0.8335
 4997TIP3    H236483   6.440   6.631  11.594 -0.7723 -2.6384  0.6417
 4998TIP3   OH236484   1.451   3.946   2.566  0.2853  0.0077  0.3184
 4998TIP3    H136485   1.454   4.040   2.584 -2.5198  0.5000 -1.5327
 4998TIP3    H236486   1.541   3.923   2.544  0.8905  2.3613  0.1915
 4999TIP3   OH236487   4.070   3.232   0.327  0.3804  0.8890 -0.0641
 4999TIP3    H136488   4.136   3.230   0.396  1.4772  0.4195 -1.0992
 4999TIP3    H236489   4.054   3.140   0.308  0.2880  1.0192 -0.6159
 5000TIP3   OH236490   0.835   1.217  11.335 -0.4798 -0.9785 -0.6527
 5000TIP3    H136491   0.781   1.188  11.408 -0.9944  1.7432  0.1005
 5000TIP3    H236492   0.925   1.212  11.368 -0.5898 -1.4180 -0.4225
 5001TIP3   OH236493   5.277   0.799  12.919  0.0101  0.0930 -0.2496
 5001TIP3    H136494   5.364   0.788  12.957 -1.0118 -1.3535  1.7662
 5001TIP3    H236495   5.250   0.887  12.947 -0.2300 -0.4815  1.4019
 5002TIP3   OH236496   2.739   5.691   4.294  0.2557 -0.3887 -0.0715
 5002TIP3    H136497   2.787   5.638   4.358  0.5072  1.3880  1.2646
 5002TIP3    H236498   2.672   5.736   4.346 -0.0680  0.4490 -1.1994
 5003TIP3   OH236499   4.789   3.797   0.687 -0.4047 -0.4463 -0.2047
 5003TIP3    H136500   4.874   3.755   0.701  0.9674  1.9640 -0.9976
 5003TIP3    H236501   4.797   3.883   0.729 -1.9445  0.3887 -1.5347
 5004TIP3   OH236502   5.870   0.494  16.107  0.2968  0.2486 -0.4954
 5004TIP3    H136503   5.955   0.504  16.149 -0.1582 -1.2187  0.8175
 5004TIP3    H236504   5.837   0.584  16.098  1.5459  0.7537 -0.1073
 5005TIP3   OH236505   5.673   6.584   2.054  0.0672  0.1383  0.1647
 5005TIP3    H136506   5.739   6.518   2.078 -0.0528  0.0112  0.1449
 5005TIP3    H236507   5.688   6.600   1.961  1.5223  1.7423  0.6476
 5006TIP3   OH236508   3.708   3.019  10.712 -0.2367 -0.1114  0.1748
 5006TIP3    H136509   3.620   3.012  10.749 -0.2042  1.2921  0.5320
 5006TIP3    H236510   3.731   2.929  10.688 -1.4686 -0.5930  0.7621
 5007TIP3   OH236511   6.781   1.696   5.817  0.0393  0.3793 -0.0459
 5007TIP3    H136512   6.731   1.774   5.842 -0.6703  0.3242 -1.2574
 5007TIP3    H236513   6.801   1.653   5.900  1.4260  2.4365  0.7466
 5008TIP3   OH236514   6.728   6.702  16.766 -0.3004 -0.4417  0.5830
 5008TIP3    H136515   6.717   6.794  16.790  1.4110 -0.0920  0.1423
 5008TIP3    H236516   6.823   6.687  16.774 -0.6045 -2.2419  0.9355
 5009TIP3   OH236517   6.047   2.364  13.803 -0.1317  0.0425  0.1093
 5009TIP3    H136518   6.035   2.436  13.742 -0.6299 -1.5459 -1.7369
 5009TIP3    H236519   6.092   2.402  13.878 -2.2089  2.6824  0.0791
 5010TIP3   OH236520   5.407   5.747   5.433 -0.5688 -0.0780  0.1406
 5010TIP3    H136521   5.332   5.770   5.378  0.8861  1.0530 -1.3972
 5010TIP3    H236522   5.413   5.818   5.497  1.6199  2.0179 -2.2676
 5011TIP3   OH236523   3.563   3.510  12.039  0.1360  0.1004 -0.0041
 5011TIP3    H136524   3.595   3.590  11.996 -1.3596  0.4757 -0.4600
 5011TIP3    H236525   3.625   3.494  12.110  1.1287  0.9926 -0.6619
 5012TIP3   OH236526   4.956   5.322   6.142  0.1332 -0.1380 -0.4392
 5012TIP3    H136527   5.017   5.300   6.071  0.3084 -0.1139 -0.2954
 5012TIP3    H236528   4.999   5.392   6.190 -1.2832  1.8876 -2.0429
 5013TIP3   OH236529   0.485   0.251   3.656  0.1224 -0.6816  0.3257
 5013TIP3    H136530   0.419   0.219   3.718  3.2312 -0.9133  3.6765
 5013TIP3    H236531   0.463   0.343   3.642 -1.4885 -1.0125  0.5585
 5014TIP3   OH236532   3.805   6.423   4.122  0.1244  0.3816 -0.6805
 5014TIP3    H136533   3.738   6.385   4.065  1.2417  1.3147 -2.6632
 5014TIP3    H236534   3.796   6.376   4.205 -2.6016  0.0946 -1.0921
 5015TIP3   OH236535   6.486   4.727   5.739  0.6265  0.2444  0.7402
 5015TIP3    H136536   6.576   4.729   5.706 -0.4629  0.6392 -2.3612
 5015TIP3    H236537   6.475   4.812   5.781  1.2412  0.7902 -0.1771
 5016TIP3   OH236538   4.260   5.076  16.018  0.0289  0.0310  0.2959
 5016TIP3    H136539   4.206   5.008  15.979 -0.5822  0.2364  0.7813
 5016TIP3    H236540   4.350   5.046  16.006 -0.1784 -0.1612 -0.7832
 5017TIP3   OH236541   1.957   0.044   5.310  0.1247  0.2730  0.2112
 5017TIP3    H136542   2.053   0.044   5.316  0.0105  0.0582  2.6251
 5017TIP3    H236543   1.930  -0.032   5.362 -1.4296  1.6157  1.4099
 5018TIP3   OH236544   6.236   3.182   5.349  0.3533 -0.4793  0.1244
 5018TIP3    H136545   6.202   3.173   5.437  0.9674 -3.3094  0.1426
 5018TIP3    H236546   6.331   3.172   5.359  0.6917  1.7719 -0.5665
 5019TIP3   OH236547   2.133   4.809   6.028  0.4461 -0.4582 -0.1548
 5019TIP3    H136548   2.060   4.861   5.994  0.6550 -0.0340  0.0446
 5019TIP3    H236549   2.143   4.738   5.964  0.8801  0.3643 -1.0062
 5020TIP3   OH236550   4.757   5.499   2.937 -0.4494  0.4229 -0.0353
 5020TIP3    H136551   4.676   5.448   2.942 -0.9081  1.2214  0.9288
 5020TIP3    H236552   4.753   5.543   2.852 -1.1935  0.7135  0.1455
 5021TIP3   OH236553   4.941   5.141   2.566  0.2520  1.0419  0.3587
 5021TIP3    H136554   4.849   5.117   2.558  0.4811  0.4234 -0.4828
 5021TIP3    H236555   4.959   5.193   2.488  0.8597  0.3566  0.0355
 5022TIP3   OH236556   2.205   2.675   3.385  0.0121 -0.2158  0.3254
 5022TIP3    H136557   2.226   2.728   3.462 -0.5731 -1.4557  1.3393
 5022TIP3    H236558   2.159   2.599   3.419 -1.0321 -0.3576 -1.3361
 5023TIP3   OH236559   6.122   4.547   2.667  0.1747  0.4746  0.6299
 5023TIP3    H136560   6.065   4.471   2.658  2.7892 -1.3415 -1.4836
 5023TIP3    H236561   6.132   4.557   2.762  0.5955 -2.4864  0.9677
 5024TIP3   OH236562   1.182   1.854   4.276 -0.1003  0.0766 -0.2916
 5024TIP3    H136563   1.249   1.918   4.299 -0.9034  1.2329 -1.1028
 5024TIP3    H236564   1.108   1.907   4.247 -1.8787 -1.1019  1.9188
 5025TIP3   OH236565   2.340   6.737   5.596 -0.7107 -1.1074 -0.0076
 5025TIP3    H136566   2.267   6.792   5.623  0.6444 -0.8225  3.3441
 5025TIP3    H236567   2.301   6.652   5.578 -2.0013 -0.6304  0.4869
 5026TIP3   OH236568   0.654   2.275  15.601 -0.1700 -0.1062 -0.4653
 5026TIP3    H136569   0.697   2.336  15.661  1.4304 -1.5281 -0.1332
 5026TIP3    H236570   0.625   2.330  15.528  1.7699  1.0109 -0.4470
 5027TIP3   OH236571   5.083   0.571  11.879 -0.6651 -0.5149  0.3736
 5027TIP3    H136572   5.139   0.591  11.804 -2.7730  1.1203 -0.7951
 5027TIP3    H236573   5.122   0.491  11.916  0.7444 -1.0473 -2.0993
 5028TIP3   OH236574   2.736   4.865   0.085  0.0435 -0.0705  0.0211
 5028TIP3    H136575   2.821   4.902   0.109  0.0655 -0.3719  0.4101
 5028TIP3    H236576   2.736   4.778   0.125  0.1801 -0.6678 -1.2625
 5029TIP3   OH236577   3.347   1.738  16.866 -0.1476  0.0248 -0.7718
 5029TIP3    H136578   3.277   1.761  16.805 -0.4061 -3.6778 -1.9960
 5029TIP3    H236579   3.304   1.731  16.951 -1.2091 -1.8572 -1.4508
 5030TIP3   OH236580   0.761   6.054  13.336  0.3144  0.0353  0.7618
 5030TIP3    H136581   0.705   6.130  13.320  0.3119 -0.1444 -0.0710
 5030TIP3    H236582   0.715   5.981  13.294  1.9288  0.1655 -1.2785
 5031TIP3   OH236583   5.198   1.413   4.655 -0.6062 -0.1880  0.1622
 5031TIP3    H136584   5.217   1.494   4.609 -0.6497 -0.6955 -0.7729
 5031TIP3    H236585   5.281   1.365   4.656 -0.5291 -0.0313  0.8999
 5032TIP3   OH236586   1.369   5.688   4.543  0.0951 -0.6239  0.0172
 5032TIP3    H136587   1.415   5.748   4.602 -1.6039 -0.8777  1.6073
 5032TIP3    H236588   1.370   5.733   4.458 -0.3495  1.2248  0.9860
 5033TIP3   OH236589   0.636   3.363  13.842 -0.0347  0.1477  0.1253
 5033TIP3    H136590   0.632   3.340  13.935 -0.1879 -0.7398 -0.0913
 5033TIP3    H236591   0.569   3.309  13.801  0.7770 -0.2938 -0.6589
 5034TIP3   OH236592   4.960   3.634   1.262 -0.1132  0.6257  0.1956
 5034TIP3    H136593   4.994   3.566   1.320 -1.1690 -0.0160  0.0786
 5034TIP3    H236594   4.865   3.629   1.273 -0.2204  1.7516 -0.1901
 5035TIP3   OH236595   0.107   1.177  15.345 -0.3137  0.0554 -0.2863
 5035TIP3    H136596   0.149   1.190  15.260  1.4943 -2.0714  0.2532
 5035TIP3    H236597   0.150   1.240  15.403  1.7875 -1.7078  0.1214
 5036TIP3   OH236598   3.413   4.602  17.217  0.1431  0.3554 -0.5485
 5036TIP3    H136599   3.416   4.688  17.259 -0.7726  0.4381 -0.6432
 5036TIP3    H236600   3.322   4.592  17.189 -0.5577 -2.0369  2.3748
 5037TIP3   OH236601   3.551   4.693   5.562 -0.8486 -0.8193 -0.3135
 5037TIP3    H136602   3.562   4.609   5.518  0.5339 -1.3650  1.0411
 5037TIP3    H236603   3.468   4.684   5.608 -2.5827 -0.0525 -3.1504
 5038TIP3   OH236604   3.279   3.818   1.527  0.2755  0.1775 -0.9236
 5038TIP3    H136605   3.340   3.870   1.580 -1.4142  0.2024  1.0425
 5038TIP3    H236606   3.329   3.740   1.504  1.3816  0.6360 -0.1553
 5039TIP3   OH236607   3.854   1.485  16.037 -0.0162  0.6084 -0.0181
 5039TIP3    H136608   3.878   1.417  16.101  0.4129  0.8016  0.0325
 5039TIP3    H236609   3.903   1.462  15.958 -1.2639 -0.1505 -0.5772
 5040TIP3   OH236610   3.889   4.360  11.486  0.1707 -0.3464 -0.5451
 5040TIP3    H136611   3.962   4.421  11.500  0.9014 -1.0344 -1.2780
 5040TIP3    H236612   3.824   4.412  11.437  0.3604  0.1330 -0.2936
 5041TIP3   OH236613   6.799   2.762   1.875 -0.3529 -0.5743  0.0551
 5041TIP3    H136614   6.795   2.668   1.855  1.0824 -0.7648  0.5434
 5041TIP3    H236615   6.883   2.790   1.837 -0.7762  0.5107 -0.0891
 5042TIP3   OH236616   1.204   3.938   0.469 -0.0904  0.6529  0.0990
 5042TIP3    H136617   1.134   3.938   0.534 -0.2349 -0.3985 -0.0498
 5042TIP3    H236618   1.270   3.878   0.504  0.1244  0.5869 -0.4092
 5043TIP3   OH236619   3.858   0.291  13.570  0.2054  0.0345  0.1647
 5043TIP3    H136620   3.846   0.349  13.495 -0.8230 -0.9841 -0.4876
 5043TIP3    H236621   3.935   0.325  13.616 -0.3709  1.8788 -0.2167
 5044TIP3   OH236622   6.729   6.013   3.382  0.3346  0.2934  0.2253
 5044TIP3    H136623   6.711   5.985   3.472 -0.4841 -1.0696 -0.3412
 5044TIP3    H236624   6.808   5.965   3.358  0.5188  0.6111  0.1975
 5045TIP3   OH236625   5.896   3.785   6.103 -0.9200  0.2433 -0.3924
 5045TIP3    H136626   5.926   3.875   6.096  0.0276  0.0230  0.6819
 5045TIP3    H236627   5.852   3.768   6.020  0.9499  0.9420 -1.5741
 5046TIP3   OH236628   0.142   5.692   1.779 -0.0397  0.1454  0.2534
 5046TIP3    H136629   0.219   5.741   1.808  0.2517  0.2122 -0.6293
 5046TIP3    H236630   0.076   5.709   1.846  0.5848  0.4144  0.8019
 5047TIP3   OH236631   1.609   2.871   3.808 -0.7437 -0.6043 -0.3613
 5047TIP3    H136632   1.624   2.779   3.827  1.0460 -0.2056  0.2941
 5047TIP3    H236633   1.686   2.916   3.844 -1.8325  1.1962 -0.1880
 5048TIP3   OH236634   5.022   0.504  12.377 -0.5030 -0.1482  0.5515
 5048TIP3    H136635   4.974   0.521  12.296  2.3137  0.5823 -1.0312
 5048TIP3    H236636   4.992   0.418  12.406 -0.0363 -1.3515 -2.4099
 5049TIP3   OH236637   5.201   6.455   1.556  0.4867 -0.3649 -0.0978
 5049TIP3    H136638   5.127   6.396   1.564 -0.6583  0.6385 -2.5721
 5049TIP3    H236639   5.272   6.400   1.524  0.1114 -0.8817 -0.0397
 5050TIP3   OH236640   0.766   1.950  13.250 -0.2787  0.0768  0.7332
 5050TIP3    H136641   0.790   2.020  13.190 -1.0896  1.6858  2.2575
 5050TIP3    H236642   0.679   1.974  13.282 -0.7440 -1.8373  0.9722
 5051TIP3   OH236643   6.372   6.195  16.315 -0.0503 -0.7489  0.0297
 5051TIP3    H136644   6.412   6.190  16.403  0.5177  0.1104 -0.1707
 5051TIP3    H236645   6.440   6.162  16.256 -0.5399 -1.6024 -0.0585
 5052TIP3   OH236646   0.744   4.238   1.641 -1.2656  0.4335  0.5590
 5052TIP3    H136647   0.650   4.229   1.656 -1.1448 -1.4880  0.3458
 5052TIP3    H236648   0.776   4.148   1.639  0.0895  0.9386 -2.5161
 5053TIP3   OH236649   5.612   2.084   1.177 -0.1623 -0.8264 -0.1239
 5053TIP3    H136650   5.644   2.174   1.179  1.7506 -1.5032  1.2038
 5053TIP3    H236651   5.571   2.075   1.091 -0.3194  1.2734 -0.3028
 5054TIP3   OH236652   1.152   2.969  11.359 -0.4893 -0.3600 -0.1125
 5054TIP3    H136653   1.176   3.030  11.290 -0.9927  0.3552  0.3384
 5054TIP3    H236654   1.075   2.923  11.325  0.1739 -1.0842 -0.6465
 5055TIP3   OH236655   4.480   3.119   6.588 -0.1885  0.3700  0.3560
 5055TIP3    H136656   4.433   3.200   6.606  1.0209  1.0393  0.4948
 5055TIP3    H236657   4.419   3.050   6.616 -1.6007  1.1805 -0.6488
 5056TIP3   OH236658   6.122   5.091   5.024  0.2055 -0.3604 -0.3361
 5056TIP3    H136659   6.158   5.178   5.007 -0.3030 -0.2807 -1.0180
 5056TIP3    H236660   6.182   5.031   4.978  0.2948 -0.3376 -0.2509
 5057TIP3   OH236661   6.231   1.730   4.161 -0.4144 -0.3461  0.4861
 5057TIP3    H136662   6.325   1.719   4.176 -0.2412 -1.6545 -1.4357
 5057TIP3    H236663   6.207   1.658   4.104 -2.0789  1.4314 -1.1511
 5058TIP3   OH236664   5.899   3.985  15.905 -0.2696 -0.7197 -0.1083
 5058TIP3    H136665   5.883   3.983  16.000  1.1473 -1.3238  0.1324
 5058TIP3    H236666   5.823   4.030  15.869  0.4402  1.9706  1.5966
 5059TIP3   OH236667   5.896   1.547   2.880 -0.7873 -0.6750  0.2262
 5059TIP3    H136668   5.830   1.483   2.851 -1.1655  0.9583 -2.7345
 5059TIP3    H236669   5.867   1.629   2.841  1.2896  0.7007  1.5564
 5060TIP3   OH236670   3.048   0.684   5.448  0.1023  0.5028  0.4521
 5060TIP3    H136671   2.973   0.714   5.397  0.2892  1.1008  0.5248
 5060TIP3    H236672   3.010   0.632   5.519 -0.2634  0.9970  0.6233
 5061TIP3   OH236673   1.685   5.903   3.344  0.2053 -0.0400 -0.5592
 5061TIP3    H136674   1.682   5.982   3.399 -0.0312  0.1712 -0.8739
 5061TIP3    H236675   1.777   5.895   3.318 -0.0770  1.1662 -2.0177
 5062TIP3   OH236676   4.502   5.836  11.683  0.1763  0.2826 -0.5094
 5062TIP3    H136677   4.550   5.869  11.759 -1.7501 -0.1517  0.9242
 5062TIP3    H236678   4.462   5.755  11.713 -2.5256  1.2979 -1.2478
 5063TIP3   OH236679   3.254   2.003  14.628 -0.0528  0.1994 -0.3322
 5063TIP3    H136680   3.262   2.093  14.659 -0.8515 -0.5089  2.0669
 5063TIP3    H236681   3.241   1.951  14.708  0.6804 -2.0811 -1.6390
 5064TIP3   OH236682   2.380   5.425  16.216 -0.6402 -0.6844 -0.3984
 5064TIP3    H136683   2.439   5.476  16.161 -2.5205  0.4152 -1.4427
 5064TIP3    H236684   2.388   5.466  16.303 -1.4022  0.7752 -1.0050
 5065TIP3   OH236685   6.515   1.564  13.288 -0.2551 -0.3043  0.8074
 5065TIP3    H136686   6.602   1.538  13.319  0.2230 -0.6233 -0.7706
 5065TIP3    H236687   6.455   1.502  13.330  0.4708 -1.3332  0.3298
 5066TIP3   OH236688   6.769   5.499  15.471 -0.0684 -0.1082  0.1775
 5066TIP3    H136689   6.757   5.543  15.387 -2.4209 -1.5427 -0.2689
 5066TIP3    H236690   6.692   5.523  15.522  0.9679  0.1110  1.6488
 5067TIP3   OH236691   4.620   4.812   6.285 -0.6063 -0.0336  0.3106
 5067TIP3    H136692   4.625   4.839   6.377 -2.0572  2.3408 -0.2786
 5067TIP3    H236693   4.529   4.788   6.272 -0.5425  0.2437 -0.6732
 5068TIP3   OH236694   1.983   2.100  15.438 -0.2514 -0.7440 -0.2468
 5068TIP3    H136695   1.917   2.045  15.395 -0.3156 -0.7162 -0.1832
 5068TIP3    H236696   1.995   2.174  15.378 -0.1102 -0.8635 -0.3678
 5069TIP3   OH236697   4.628   3.950  15.913 -0.0824  0.0636  0.1920
 5069TIP3    H136698   4.669   4.008  15.848  1.2599  1.0699  1.8934
 5069TIP3    H236699   4.562   4.005  15.955  1.3006  0.4439  1.9194
 5070TIP3   OH236700   5.701   6.658   4.029  0.0043  0.1377 -0.6373
 5070TIP3    H136701   5.796   6.668   4.023 -0.2032  0.9869 -2.7896
 5070TIP3    H236702   5.685   6.637   4.121  2.1930  0.9018 -0.0543
 5071TIP3   OH236703   5.329   1.966   2.228  0.0735 -0.1396 -0.4858
 5071TIP3    H136704   5.319   1.904   2.156 -1.3339  1.7175 -1.9586
 5071TIP3    H236705   5.412   2.011   2.210 -1.5405  2.1708 -2.5013
 5072TIP3   OH236706   0.239   3.762   3.489  0.0979  0.2483 -0.0552
 5072TIP3    H136707   0.172   3.828   3.509  0.2283  0.1001  0.9140
 5072TIP3    H236708   0.194   3.678   3.498 -0.0443  0.1912 -1.1974
 5073TIP3   OH236709   5.399   0.131   2.672 -0.3247  0.0972 -0.4666
 5073TIP3    H136710   5.389   0.055   2.731  0.7375  0.3398  0.0359
 5073TIP3    H236711   5.389   0.094   2.584  1.7003 -0.8991 -0.2983
 5074TIP3   OH236712   1.735   5.088  16.256  0.3957  0.0713  0.3025
 5074TIP3    H136713   1.688   5.114  16.177 -0.8513  0.7423  1.2443
 5074TIP3    H236714   1.825   5.116  16.240  0.0773  0.5471 -0.7231
 5075TIP3   OH236715   5.256   1.236   2.163 -0.3714 -0.7439  0.2053
 5075TIP3    H136716   5.163   1.217   2.162 -0.3593 -1.1114  2.5819
 5075TIP3    H236717   5.272   1.275   2.250  2.2086 -3.6433  1.1603
 5076TIP3   OH236718   4.519   4.485   2.794 -0.1651 -0.0883  0.1402
 5076TIP3    H136719   4.607   4.450   2.806 -0.4964 -0.4030  1.8484
 5076TIP3    H236720   4.461   4.412   2.816 -0.8500  0.5036  0.3300
 5077TIP3   OH236721   0.496   1.200  14.386 -0.5615  0.1967 -0.4530
 5077TIP3    H136722   0.539   1.204  14.471  1.8305 -1.7873 -1.5241
 5077TIP3    H236723   0.454   1.286  14.377  0.2109  0.8956  2.1515
 5078TIP3   OH236724   5.178   4.732   3.718 -0.0878 -0.1371 -0.0072
 5078TIP3    H136725   5.199   4.778   3.638 -0.3664  0.3126  0.1759
 5078TIP3    H236726   5.218   4.784   3.788 -0.1519 -0.3288  0.1751
 5079TIP3   OH236727   2.768   2.287  17.071  0.6905  0.2831  0.0154
 5079TIP3    H136728   2.753   2.223  17.002  0.8047  1.2080 -0.8794
 5079TIP3    H236729   2.780   2.234  17.151  2.4250 -0.8795 -0.9853
 5080TIP3   OH236730   5.053   6.434  15.185 -0.0809 -0.3307  0.0461
 5080TIP3    H136731   5.066   6.507  15.245 -0.5040  0.0008 -0.2633
 5080TIP3    H236732   5.105   6.363  15.223 -0.2466 -0.0896  0.7379
 5081TIP3   OH236733   3.469   5.386  11.154  0.3593 -0.2200 -0.1494
 5081TIP3    H136734   3.480   5.328  11.079  4.9635  1.8835 -1.2236
 5081TIP3    H236735   3.379   5.419  11.146 -0.3079 -2.5380 -2.8176
 5082TIP3   OH236736   2.964   1.067  14.378 -0.1861  0.1047  0.0089
 5082TIP3    H136737   2.899   0.997  14.383  0.6577 -0.5904  1.4936
 5082TIP3    H236738   3.048   1.023  14.387  0.5733  0.9026 -2.6915
 5083TIP3   OH236739   5.467   5.254  12.658  0.8051 -0.3754 -0.3586
 5083TIP3    H136740   5.506   5.231  12.742 -1.4043 -2.6246  0.0936
 5083TIP3    H236741   5.381   5.212  12.658 -1.2380  3.5064 -1.7823
 5084TIP3   OH236742   3.681   6.646   1.779 -0.3724  0.1500  0.4101
 5084TIP3    H136743   3.664   6.625   1.687  0.8952  0.7741  0.0224
 5084TIP3    H236744   3.682   6.561   1.823  0.6937 -0.3052 -0.4537
 5085TIP3   OH236745   3.282   4.477  12.946  0.3159 -0.1008  0.4605
 5085TIP3    H136746   3.317   4.517  13.025  2.2423 -1.2979  0.2472
 5085TIP3    H236747   3.300   4.541  12.877  1.5111 -0.4478  0.4570
 5086TIP3   OH236748   6.261   1.796  17.216  0.2373 -0.3870 -0.6060
 5086TIP3    H136749   6.343   1.793  17.168  0.7787 -1.2309  0.3565
 5086TIP3    H236750   6.267   1.875  17.270  0.7055 -0.8150 -0.0306
 5087TIP3   OH236751   4.982   6.093   0.016 -0.7267  0.0615  0.0529
 5087TIP3    H136752   4.967   6.172  -0.036 -0.8129 -0.5115 -0.7909
 5087TIP3    H236753   4.909   6.092   0.078  1.4599  2.8615  2.8377
 5088TIP3   OH236754   1.764   6.139   4.758 -0.2992 -0.4278 -0.0196
 5088TIP3    H136755   1.851   6.098   4.761  0.7234  1.6954  1.0935
 5088TIP3    H236756   1.752   6.164   4.667  0.5728 -0.0975 -0.0479
 5089TIP3   OH236757   2.472   2.311   0.562  0.6097 -0.6095  0.0705
 5089TIP3    H136758   2.386   2.348   0.544 -0.2920 -1.4748  2.3652
 5089TIP3    H236759   2.532   2.386   0.562 -0.0897 -0.0364 -1.7638
 5090TIP3   OH236760   3.484   2.451  16.547  0.0562  0.3464 -0.6586
 5090TIP3    H136761   3.427   2.522  16.517 -0.7216  0.2435  0.5368
 5090TIP3    H236762   3.542   2.492  16.611 -1.5497 -0.4300  1.3437
 5091TIP3   OH236763   5.458   1.957  15.549  0.0813 -0.2180 -0.5186
 5091TIP3    H136764   5.453   2.046  15.586 -0.5203  0.0102 -1.1459
 5091TIP3    H236765   5.459   1.900  15.625 -3.8032  0.0998 -0.1299
 5092TIP3   OH236766   3.645   6.116  15.721  0.5326 -0.4985 -0.2510
 5092TIP3    H136767   3.654   6.168  15.801 -0.3121  0.8419 -1.0187
 5092TIP3    H236768   3.554   6.086  15.722  0.2722  0.2355 -1.1303
 5093TIP3   OH236769   5.076   3.613   3.663 -0.1175  0.3388  0.1223
 5093TIP3    H136770   4.999   3.560   3.683 -0.3652  1.7412  3.1789
 5093TIP3    H236771   5.042   3.699   3.640  0.4616  0.4128 -0.4731
 5094TIP3   OH236772   3.847   5.526   1.722  0.7893 -0.2114 -0.4735
 5094TIP3    H136773   3.781   5.594   1.734  1.4241  0.3939 -0.4045
 5094TIP3    H236774   3.806   5.447   1.758  0.0404  0.1250 -0.5811
 5095TIP3   OH236775   4.341   3.206  10.616 -0.1933  0.5023  0.5170
 5095TIP3    H136776   4.277   3.204  10.545 -0.1416 -2.0961  0.5128
 5095TIP3    H236777   4.322   3.287  10.662 -1.6884  1.1259 -1.1220
 5096TIP3   OH236778   1.016   4.128  11.424  0.3651  0.0980  0.3664
 5096TIP3    H136779   0.925   4.125  11.454  0.4848  0.6741  0.7978
 5096TIP3    H236780   1.044   4.036  11.424  0.1484  0.0285  1.3802
 5097TIP3   OH236781   3.568   0.033   0.951  0.2836 -0.2233 -0.2358
 5097TIP3    H136782   3.612  -0.023   1.015  0.0346  0.4328  0.5171
 5097TIP3    H236783   3.638   0.065   0.894  0.6238 -0.1295  0.2375
 5098TIP3   OH236784   4.241   6.648   4.312  0.2651  0.4185 -0.1115
 5098TIP3    H136785   4.156   6.632   4.353  0.1180  3.2740  0.7950
 5098TIP3    H236786   4.304   6.609   4.373 -0.2551  0.2178  0.3021
 5099TIP3   OH236787   3.956   1.116  12.925  0.5432 -0.6877 -0.1246
 5099TIP3    H136788   4.033   1.062  12.943  1.1339  0.0069 -0.5723
 5099TIP3    H236789   3.983   1.174  12.854  0.0494  0.5040  0.6439
 5100TIP3   OH236790   5.578   0.153  14.997 -0.3150 -0.0989  0.2694
 5100TIP3    H136791   5.584   0.058  14.989 -1.0475 -0.1308  0.1245
 5100TIP3    H236792   5.484   0.172  14.998 -0.1834  0.5351  1.3882
 5101TIP3   OH236793   5.721   2.813   2.437  0.6668  0.0554 -0.6705
 5101TIP3    H136794   5.800   2.836   2.485  0.0684 -1.4184  1.0559
 5101TIP3    H236795   5.652   2.808   2.503  0.0533 -3.0678 -1.4572
 5102TIP3   OH236796   3.957   5.704   4.462 -0.2033 -0.6149  0.2355
 5102TIP3    H136797   3.918   5.734   4.544 -1.3020  1.1754 -0.9176
 5102TIP3    H236798   3.968   5.783   4.410  2.3019 -1.4746 -0.6224
 5103TIP3   OH236799   2.538   2.388  11.729 -0.3171  0.0195  0.6947
 5103TIP3    H136800   2.538   2.292  11.723  0.5479  0.1109 -1.2755
 5103TIP3    H236801   2.623   2.413  11.692 -1.4628  1.6367 -0.9179
 5104TIP3   OH236802   4.258   6.243  13.857 -0.0283  0.1428 -0.0362
 5104TIP3    H136803   4.347   6.256  13.822  0.3939 -3.5057 -0.5327
 5104TIP3    H236804   4.263   6.273  13.947  1.1697  1.7903 -0.6168
 5105TIP3   OH236805   3.378   5.652   0.832  0.2660  0.0504 -0.1340
 5105TIP3    H136806   3.451   5.626   0.889  1.1581  1.4843 -0.5937
 5105TIP3    H236807   3.419   5.670   0.748 -0.6762  0.5447 -0.4865
 5106TIP3   OH236808   0.634   5.665  15.312 -0.1819  0.3354 -0.0239
 5106TIP3    H136809   0.704   5.689  15.372 -0.4934 -0.8970  0.8467
 5106TIP3    H236810   0.603   5.580  15.343 -1.0376  0.1543 -1.3112
 5107TIP3   OH236811   1.348   5.723   0.546 -0.4759 -0.1291 -0.3500
 5107TIP3    H136812   1.406   5.698   0.474 -0.3379 -0.3091 -0.1764
 5107TIP3    H236813   1.295   5.795   0.510 -1.3183 -1.1005 -1.0586
 5108TIP3   OH236814   5.250   2.918   2.121  0.2321 -0.0190  0.0933
 5108TIP3    H136815   5.309   2.989   2.097  1.5489 -0.7856  1.0250
 5108TIP3    H236816   5.171   2.935   2.070  0.1899  2.6163  0.9595
 5109TIP3   OH236817   3.367   6.199   2.569 -0.0171 -0.0686 -0.8491
 5109TIP3    H136818   3.370   6.273   2.629  2.4812  0.3118 -1.4106
 5109TIP3    H236819   3.375   6.122   2.625  0.9329  0.2294 -0.5752
 5110TIP3   OH236820   3.595   1.389   6.774  0.4173  0.2995  0.2508
 5110TIP3    H136821   3.587   1.320   6.709  0.2949  0.7055 -0.1711
 5110TIP3    H236822   3.665   1.361   6.832  0.0375 -0.4100  0.3672
 5111TIP3   OH236823   2.413   3.121   0.817  0.2899 -0.0606 -0.4720
 5111TIP3    H136824   2.365   3.135   0.736 -0.6398 -0.7636 -0.0483
 5111TIP3    H236825   2.493   3.074   0.791 -0.2577 -0.7475 -0.9099
 5112TIP3   OH236826   2.947   2.205   5.690 -0.1335 -0.3085  0.2380
 5112TIP3    H136827   2.905   2.135   5.740  2.1240 -0.9708  1.2832
 5112TIP3    H236828   3.029   2.222   5.737  1.6099 -0.2667 -2.6543
 5113TIP3   OH236829   5.964   4.318  15.442  0.0536 -0.4377  0.0730
 5113TIP3    H136830   5.955   4.413  15.442  0.2416 -0.3582 -2.6618
 5113TIP3    H236831   5.932   4.291  15.356 -0.1085 -2.8689  0.8431
 5114TIP3   OH236832   1.011   6.154   0.904 -0.1599  0.4097  1.0156
 5114TIP3    H136833   0.966   6.122   0.827 -0.6759 -1.1352  1.9379
 5114TIP3    H236834   1.085   6.205   0.870 -0.4854 -0.1044 -0.4766
 5115TIP3   OH236835   4.821   0.350   3.181  0.1124  0.0172 -0.1529
 5115TIP3    H136836   4.795   0.291   3.252 -0.2963 -1.1896 -1.2803
 5115TIP3    H236837   4.872   0.296   3.121 -0.5633  0.6954 -1.3887
 5116TIP3   OH236838   2.796   6.585  11.769 -0.2876 -0.8274 -0.2400
 5116TIP3    H136839   2.889   6.597  11.750 -0.0700 -0.8956  0.7727
 5116TIP3    H236840   2.794   6.517  11.837 -0.9544  0.6458  1.2545
 5117TIP3   OH236841   0.286   0.305  13.576 -0.0870 -0.3545 -0.5125
 5117TIP3    H136842   0.329   0.248  13.640  0.1523 -0.7947 -1.0600
 5117TIP3    H236843   0.312   0.393  13.601 -0.1289 -0.5095  0.0987
 5118TIP3   OH236844   6.679   1.330   2.135  0.1726 -0.0029  0.3009
 5118TIP3    H136845   6.709   1.271   2.066  0.8664  0.2850  0.3487
 5118TIP3    H236846   6.619   1.390   2.091 -1.2168 -1.2709  0.4280
 5119TIP3   OH236847   6.763   1.568   3.562 -0.4592  0.4703  0.0694
 5119TIP3    H136848   6.794   1.500   3.502 -0.9443 -0.0188  0.3650
 5119TIP3    H236849   6.676   1.591   3.530 -0.8602 -0.0343  0.7699
 5120TIP3   OH236850   4.785   0.443   3.704  0.1452  0.3230 -0.6940
 5120TIP3    H136851   4.714   0.397   3.749  0.4033 -0.9608 -1.5792
 5120TIP3    H236852   4.822   0.378   3.645  4.2193 -0.1241  2.0963
 5121TIP3   OH236853   2.484   3.748  14.915  0.1266 -0.2866  0.1179
 5121TIP3    H136854   2.481   3.708  15.002 -1.4970 -0.1358  0.1440
 5121TIP3    H236855   2.507   3.675  14.857  1.6469 -0.3017  0.7078
 5122TIP3   OH236856   6.371   6.112  11.465 -0.2025  0.3871  0.3597
 5122TIP3    H136857   6.422   6.031  11.465 -0.7446  0.0405 -0.0641
 5122TIP3    H236858   6.434   6.180  11.442 -0.4927 -0.4166 -2.9847
 5123TIP3   OH236859   1.082   0.736  12.590 -0.0971  0.5089  0.5414
 5123TIP3    H136860   1.049   0.824  12.605 -0.7471  0.0196  2.1172
 5123TIP3    H236861   1.154   0.727  12.653  0.9285  0.4202 -0.6214
 5124TIP3   OH236862   0.163   5.116  12.406 -0.2183 -0.6300  1.0843
 5124TIP3    H136863   0.115   5.189  12.445  1.2024  0.7198  0.3409
 5124TIP3    H236864   0.206   5.153  12.329  1.9664 -1.7845  1.6928
 5125TIP3   OH236865   3.234   1.862   5.479 -0.6742 -0.2572  0.1711
 5125TIP3    H136866   3.226   1.942   5.530 -2.7792 -0.7154  0.6158
 5125TIP3    H236867   3.284   1.803   5.534  0.9157  0.7368 -0.1694
 5126TIP3   OH236868   6.144   6.794  14.179  0.0496  0.1411  0.5881
 5126TIP3    H136869   6.138   6.815  14.272 -1.0600  0.0978  0.5334
 5126TIP3    H236870   6.068   6.835  14.140 -0.7425 -1.7733  0.0662
 5127TIP3   OH236871   6.788   0.249  14.922  0.3890  0.5195  0.3290
 5127TIP3    H136872   6.787   0.339  14.954 -1.2014  1.0496 -1.1045
 5127TIP3    H236873   6.708   0.210  14.957  1.7244 -0.7679  2.0319
 5128TIP3   OH236874   0.656   5.799  13.024  0.1006  0.3188  0.3350
 5128TIP3    H136875   0.686   5.889  13.015  0.7378  0.2190  1.3364
 5128TIP3    H236876   0.569   5.807  13.064 -0.7311  0.5610 -1.4973
 5129TIP3   OH236877   0.672   6.784  12.785 -0.6406  0.1204 -0.3351
 5129TIP3    H136878   0.726   6.748  12.855 -1.2743 -0.1885  0.0034
 5129TIP3    H236879   0.732   6.799  12.713 -0.1854 -0.6300 -0.1098
 5130TIP3   OH236880   0.103   6.389  12.142  0.1227  0.2115 -0.0113
 5130TIP3    H136881   0.102   6.342  12.059 -0.1953 -0.5255  0.4098
 5130TIP3    H236882   0.134   6.477  12.119  2.1192 -0.6261 -0.5637
 5131TIP3   OH236883   0.831   5.391  11.538 -0.0667 -0.7536 -0.2746
 5131TIP3    H136884   0.868   5.418  11.622 -0.6755  1.2965 -0.6302
 5131TIP3    H236885   0.879   5.311  11.515  0.8725 -0.7192  1.4748
 5132TIP3   OH236886   3.446   6.221   5.071  0.3670 -0.0730  0.0336
 5132TIP3    H136887   3.526   6.189   5.113  1.0340  3.4963  1.5885
 5132TIP3    H236888   3.375   6.185   5.124  1.0923  0.6829  1.5387
 5133TIP3   OH236889   5.422   5.702   6.283  0.1795 -0.1279 -0.1098
 5133TIP3    H136890   5.400   5.724   6.192  1.6496  5.7185  0.7406
 5133TIP3    H236891   5.508   5.661   6.278  0.0801 -0.1963 -1.3869
 5134TIP3   OH236892   5.999   3.035  16.036  0.0598 -0.4128  0.0807
 5134TIP3    H136893   6.056   3.058  15.962 -0.5353  1.3658  0.1536
 5134TIP3    H236894   5.911   3.029  15.997 -0.1234 -0.3390  0.4817
 5135TIP3   OH236895   3.945   3.462   2.774 -0.0929 -0.0344 -0.3628
 5135TIP3    H136896   4.020   3.498   2.821 -0.3210  1.4325 -1.0855
 5135TIP3    H236897   3.983   3.426   2.694  0.2098 -1.9401  0.6204
 5136TIP3   OH236898   5.510   2.092  14.510 -0.2675 -0.0566  0.4091
 5136TIP3    H136899   5.584   2.144  14.478  1.1087 -1.6877  0.8271
 5136TIP3    H236900   5.476   2.048  14.433 -1.7669  1.8295 -0.0361
 5137TIP3   OH236901   6.819   5.245   4.736 -0.0158 -0.3267 -0.2102
 5137TIP3    H136902   6.830   5.165   4.685  0.1816 -0.6961  0.4040
 5137TIP3    H236903   6.875   5.309   4.692  0.0498 -0.6030 -0.5361
 5138TIP3   OH236904   4.286   5.389   0.282  0.3405  0.6253  0.0704
 5138TIP3    H136905   4.206   5.394   0.335 -0.2065  0.3408 -0.7253
 5138TIP3    H236906   4.356   5.383   0.346 -0.2110  1.7449  0.7947
 5139TIP3   OH236907   3.110   2.404  15.763 -0.0230  0.0852  0.5924
 5139TIP3    H136908   3.016   2.401  15.782 -0.0630 -0.2034  0.3503
 5139TIP3    H236909   3.148   2.334  15.816 -0.2169 -1.1260 -0.8389
 5140TIP3   OH236910   6.705   2.209  16.671 -0.0437  0.0960 -1.2866
 5140TIP3    H136911   6.612   2.217  16.652  0.0954  0.2615 -1.9128
 5140TIP3    H236912   6.729   2.123  16.637  0.0642  0.1245 -1.2839
 5141TIP3   OH236913   5.403   2.766   5.044  0.3623  0.2161 -0.2598
 5141TIP3    H136914   5.381   2.739   5.133  1.4082  1.4028  0.3753
 5141TIP3    H236915   5.366   2.854   5.036  1.9743  0.9160 -0.2932
 5142TIP3   OH236916   5.315   2.841   1.693  0.0875 -0.2620  0.0135
 5142TIP3    H136917   5.359   2.872   1.614  1.1257  0.8663  1.0355
 5142TIP3    H236918   5.370   2.869   1.765 -0.1397 -2.4593  1.1053
 5143TIP3   OH236919   5.863   3.758   0.525 -0.3727  0.3548  0.2697
 5143TIP3    H136920   5.948   3.740   0.564 -0.0639 -0.3112 -0.6912
 5143TIP3    H236921   5.869   3.723   0.436 -2.0153 -0.7100  0.5492
 5144TIP3   OH236922   0.268   2.649  15.487  0.2854 -0.6100 -0.1362
 5144TIP3    H136923   0.276   2.722  15.547 -4.5642 -0.6533  0.7806
 5144TIP3    H236924   0.268   2.689  15.400 -3.6191  0.7620  0.3928
 5145TIP3   OH236925   0.451   2.414   1.695  0.1498  0.0191  0.4351
 5145TIP3    H136926   0.518   2.477   1.670  0.8545 -0.5765  0.7801
 5145TIP3    H236927   0.473   2.335   1.646  1.4595 -1.1075  2.7245
 5146TIP3   OH236928   1.146   1.440  12.951 -0.1898 -0.6096 -0.1073
 5146TIP3    H136929   1.101   1.400  13.026  2.0855 -0.6374  1.2736
 5146TIP3    H236930   1.171   1.527  12.982  1.4056 -0.8895 -0.5572
 5147TIP3   OH236931   4.318   0.170   2.776  0.1400 -0.2305 -0.0716
 5147TIP3    H136932   4.404   0.142   2.743  0.2615 -1.6098  1.3599
 5147TIP3    H236933   4.274   0.206   2.699  2.0214  0.5737 -0.8191
 5148TIP3   OH236934   1.202   2.194  10.757 -0.4472 -0.3903  0.6126
 5148TIP3    H136935   1.214   2.268  10.698 -1.1006 -1.1001 -0.4218
 5148TIP3    H236936   1.110   2.169  10.747  0.2563 -2.6220 -0.5799
 5149TIP3   OH236937   3.477   2.513  10.977  0.1251 -0.1982 -0.1877
 5149TIP3    H136938   3.462   2.452  10.905 -0.8481  1.8584 -1.7668
 5149TIP3    H236939   3.573   2.521  10.982  0.2294 -1.1624 -0.5497
 5150TIP3   OH236940   6.037   4.157   4.597 -0.2637 -0.8903 -0.3769
 5150TIP3    H136941   6.006   4.066   4.591 -0.3826 -0.8859  0.1578
 5150TIP3    H236942   5.957   4.208   4.607 -0.1722 -0.7561 -0.3393
 5151TIP3   OH236943   5.416   4.441  14.230 -0.1837  0.1379  0.6140
 5151TIP3    H136944   5.337   4.394  14.207  0.5962 -0.6600 -0.4902
 5151TIP3    H236945   5.415   4.519  14.174 -0.0169 -0.0556  0.3393
 5152TIP3   OH236946   1.201   6.491  16.800  0.4720 -0.2100 -0.0587
 5152TIP3    H136947   1.229   6.576  16.833 -0.8142  0.6343 -1.1058
 5152TIP3    H236948   1.282   6.447  16.774  1.2768  0.0540  1.9493
 5153TIP3   OH236949   2.914   2.938   5.748  0.3312  0.6584  0.0145
 5153TIP3    H136950   2.947   2.931   5.838 -1.0322  0.6033  0.5130
 5153TIP3    H236951   2.845   2.872   5.742 -0.5686  1.6424 -0.6318
 5154TIP3   OH236952   1.672   0.518  14.899 -0.5512  0.3303 -0.3195
 5154TIP3    H136953   1.702   0.428  14.898 -0.8826  0.2257 -1.1574
 5154TIP3    H236954   1.739   0.565  14.949 -0.5050 -0.4152  0.3314
 5155TIP3   OH236955   2.957   1.091   4.019  0.4760 -0.1223  0.0125
 5155TIP3    H136956   3.018   1.165   4.013 -0.1132  0.3127 -0.7109
 5155TIP3    H236957   2.907   1.107   4.098  1.0198 -0.2674  0.3911
 5156TIP3   OH236958   5.204   3.693  13.751 -0.3038  0.1422  0.1466
 5156TIP3    H136959   5.252   3.674  13.832 -1.5362 -1.4960  0.5130
 5156TIP3    H236960   5.273   3.703  13.685  0.6993  1.2165  1.3106
 5157TIP3   OH236961   3.256   1.310   0.331 -0.2969  0.0366 -0.0873
 5157TIP3    H136962   3.269   1.215   0.328 -1.6168 -0.1809  0.7638
 5157TIP3    H236963   3.201   1.330   0.255 -2.4078 -0.2995  1.3024
 5158TIP3   OH236964   0.358   4.735  14.793 -0.3132  0.4770 -0.1434
 5158TIP3    H136965   0.419   4.725  14.866 -1.0647 -0.8815  0.3096
 5158TIP3    H236966   0.394   4.807  14.742  0.9318  0.5834  0.8550
 5159TIP3   OH236967   3.082   4.772  13.865 -0.1118  0.4848  0.2673
 5159TIP3    H136968   3.098   4.706  13.933  1.8204  0.5712 -0.0569
 5159TIP3    H236969   3.103   4.727  13.783  0.9125  1.3863  0.0215
 5160TIP3   OH236970   2.075   4.780  11.726 -0.0607  0.1569 -0.3400
 5160TIP3    H136971   2.014   4.740  11.664 -1.2525  0.1182  0.8146
 5160TIP3    H236972   2.066   4.874  11.712 -1.7945  0.2353  1.0723
 5161TIP3   OH236973   5.175   4.192   2.651  0.5974  0.3688 -0.2492
 5161TIP3    H136974   5.223   4.112   2.631 -2.4126 -1.2777 -1.1326
 5161TIP3    H236975   5.243   4.258   2.663  3.1623 -2.4023  0.9828
 5162TIP3   OH236976   5.710   1.565   2.655  0.1127 -0.1051 -0.1022
 5162TIP3    H136977   5.645   1.537   2.718 -0.7089 -3.0386 -2.1582
 5162TIP3    H236978   5.749   1.484   2.622  2.5726  1.4592 -1.2399
 5163TIP3   OH236979   1.931   1.446   0.304  0.3209  0.7624  0.6500
 5163TIP3    H136980   2.026   1.452   0.295  0.2550  0.7012 -0.1095
 5163TIP3    H236981   1.902   1.537   0.315  0.6167  0.6465  2.4508
 5164TIP3   OH236982   3.116   5.328   5.086  0.7174 -0.2162 -0.2766
 5164TIP3    H136983   3.190   5.360   5.138  0.3115 -0.3826  0.4025
 5164TIP3    H236984   3.108   5.235   5.109  1.5733 -0.7012 -1.8680
 5165TIP3   OH236985   4.738   2.825   2.052  0.7475  0.5619 -0.1432
 5165TIP3    H136986   4.682   2.768   2.104 -0.7578  1.8744 -0.2964
 5165TIP3    H236987   4.809   2.768   2.022  0.6217 -0.6407  1.7660
 5166TIP3   OH236988   1.317   4.809   1.686  0.0540 -0.4900 -0.1484
 5166TIP3    H136989   1.309   4.861   1.606  3.4132 -1.6717 -1.3258
 5166TIP3    H236990   1.363   4.866   1.748 -0.3216 -0.4563  0.1014
 5167TIP3   OH236991   2.540   4.886  14.596 -0.1914 -0.8902  0.5156
 5167TIP3    H136992   2.480   4.840  14.654  0.8435 -1.5973  1.0530
 5167TIP3    H236993   2.597   4.816  14.562  0.8425 -0.1274  0.6590
 5168TIP3   OH236994   5.966   5.903  12.910 -0.0800 -0.7968  0.1759
 5168TIP3    H136995   6.017   5.929  12.987 -0.2289  2.1326 -0.6677
 5168TIP3    H236996   6.024   5.844  12.861  1.2968  0.0171  0.8224
 5169TIP3   OH236997   4.984   2.204   0.877 -0.1383  0.0768 -0.5934
 5169TIP3    H136998   5.046   2.276   0.872  0.8591 -0.8962 -3.9618
 5169TIP3    H236999   4.898   2.246   0.866  0.1506  1.0924  0.9571
 5170TIP3   OH237000   4.666   3.399   1.445 -0.1318 -0.2488  0.0473
 5170TIP3    H137001   4.716   3.417   1.525 -0.8641 -0.5636  0.5797
 5170TIP3    H237002   4.715   3.330   1.401  0.3130 -0.0280  0.1935
 5171TIP3   OH237003   0.410   4.439   5.436  0.4097 -0.1419 -0.3985
 5171TIP3    H137004   0.397   4.480   5.521  0.4537  1.2482 -1.0548
 5171TIP3    H237005   0.436   4.349   5.456  0.8909  0.3211  1.0604
 5172TIP3   OH237006   4.039   1.247  12.635  0.1888 -0.2296  0.1086
 5172TIP3    H137007   4.042   1.330  12.683 -2.4719 -1.3516  2.3606
 5172TIP3    H237008   3.954   1.249  12.591  0.9282 -0.9681 -1.3903
 5173TIP3   OH237009   0.198   3.510  15.308  0.0695  0.0552  0.0408
 5173TIP3    H137010   0.116   3.540  15.270 -0.4090 -0.6429  0.5110
 5173TIP3    H237011   0.191   3.414  15.309  0.8974 -0.0114  0.0546
 5174TIP3   OH237012   1.653   2.409   6.524 -0.0635  0.3474  0.0414
 5174TIP3    H137013   1.592   2.386   6.594  0.3738  1.2831  0.7555
 5174TIP3    H237014   1.736   2.425   6.569  0.4820 -0.0324 -0.8125
 5175TIP3   OH237015   5.924   1.306  15.396  0.3750 -0.0590  0.2270
 5175TIP3    H137016   5.903   1.229  15.449  1.0905 -0.0096  0.5752
 5175TIP3    H237017   5.946   1.374  15.459 -4.3875  1.7578  0.2149
 5176TIP3   OH237018   6.200   5.807  12.050 -0.2160  0.0680 -0.1233
 5176TIP3    H137019   6.162   5.755  12.121  1.4392 -1.4002 -0.2644
 5176TIP3    H237020   6.259   5.747  12.005  2.3356  2.2398  0.1574
 5177TIP3   OH237021   5.974   1.485  14.788  0.3332 -0.1877 -0.5956
 5177TIP3    H137022   5.970   1.463  14.695 -0.4049 -0.2902 -0.5380
 5177TIP3    H237023   6.063   1.520  14.800  0.2497  0.3306 -1.4491
 5178TIP3   OH237024   3.847   5.288   4.647  0.0973  0.2375 -0.5169
 5178TIP3    H137025   3.940   5.304   4.636  0.6361 -3.3194 -1.5915
 5178TIP3    H237026   3.809   5.309   4.561 -0.0732  1.3649 -0.1759
 5179TIP3   OH237027   2.524   2.018  12.679  0.9471  0.0476 -0.1463
 5179TIP3    H137028   2.595   1.973  12.725 -0.5144  0.4562  2.6069
 5179TIP3    H237029   2.556   2.107  12.667  1.5311 -0.1888 -0.3463
 5180TIP3   OH237030   3.161   5.568  11.967 -0.1092  0.2890  0.0326
 5180TIP3    H137031   3.135   5.644  12.019  0.8721 -0.2138  1.2898
 5180TIP3    H237032   3.257   5.574  11.963 -0.1471  0.0577 -1.3142
 5181TIP3   OH237033   6.106   5.916  14.090  0.0874 -0.0856  0.2871
 5181TIP3    H137034   6.052   5.936  14.014 -0.1617  1.8425  0.9427
 5181TIP3    H237035   6.045   5.915  14.164  0.3996 -1.4473  0.5435
 5182TIP3   OH237036   3.718   3.666  14.807  0.2593  0.3084  0.0537
 5182TIP3    H137037   3.702   3.576  14.779 -0.4431  0.9256 -1.5901
 5182TIP3    H237038   3.697   3.665  14.900 -1.6200 -0.8096 -0.3398
 5183TIP3   OH237039   4.436   1.008  14.912  0.1969 -0.2184 -0.1186
 5183TIP3    H137040   4.523   1.045  14.931 -0.5455  1.8851 -0.7084
 5183TIP3    H237041   4.417   1.036  14.823 -1.9276  1.0118  0.6813
 5184TIP3   OH237042   5.712   0.652   2.684 -0.4047 -0.1305 -0.7147
 5184TIP3    H137043   5.670   0.569   2.661 -0.4693  0.1255 -1.5297
 5184TIP3    H237044   5.779   0.629   2.748 -1.1206 -0.6763 -0.1433
 5185TIP3   OH237045   3.985   6.339   2.750  0.4870 -0.0250  0.0784
 5185TIP3    H137046   3.983   6.250   2.715 -0.1212  0.0459 -0.0829
 5185TIP3    H237047   3.938   6.391   2.685 -1.7358 -0.0968  1.5373
 5186TIP3   OH237048   5.730   4.125  13.655  0.2754 -0.3836  0.0708
 5186TIP3    H137049   5.717   4.042  13.700 -0.0547 -0.2285  0.2655
 5186TIP3    H237050   5.644   4.147  13.619  0.2901  0.0139  0.2681
 5187TIP3   OH237051   4.446   4.859   3.185  0.5381 -0.1433  0.2213
 5187TIP3    H137052   4.501   4.914   3.130 -1.3981  1.2189 -0.4237
 5187TIP3    H237053   4.362   4.906   3.190 -0.3175 -1.7525  1.8085
 5188TIP3   OH237054   4.514   6.168   0.290  0.1028  0.0253 -0.0154
 5188TIP3    H137055   4.456   6.207   0.225 -0.5771  0.2518  0.7189
 5188TIP3    H237056   4.464   6.096   0.327  0.1031  0.5214  0.9615
 5189TIP3   OH237057   5.720   3.540   1.074  0.0317 -0.2255 -0.0975
 5189TIP3    H137058   5.790   3.496   1.025 -0.6366 -0.7733 -0.5767
 5189TIP3    H237059   5.640   3.519   1.025 -0.3624  1.0942 -0.0286
 5190TIP3   OH237060   5.361   5.614  13.581 -0.3052 -0.1078 -0.0010
 5190TIP3    H137061   5.438   5.656  13.619  0.0437 -0.1493 -0.6465
 5190TIP3    H237062   5.372   5.521  13.601 -1.3305  0.1461  1.8645
 5191TIP3   OH237063   0.223   5.572  12.513 -0.6795 -0.2953 -0.5580
 5191TIP3    H137064   0.258   5.498  12.562 -0.3089 -1.1698 -2.1135
 5191TIP3    H237065   0.295   5.636  12.511 -1.2477  0.4283  1.4056
 5192TIP3   OH237066   4.816   2.384  10.668 -0.5261  0.1361 -0.4250
 5192TIP3    H137067   4.864   2.464  10.693 -0.2036 -0.0346 -0.5014
 5192TIP3    H237068   4.777   2.406  10.583  2.4006 -0.9650 -2.1254
 5193TIP3   OH237069   3.560   5.087   1.929  0.0422 -0.2577  0.0057
 5193TIP3    H137070   3.583   5.094   2.021 -0.4045 -2.7902  0.3453
 5193TIP3    H237071   3.467   5.107   1.926 -0.1567 -1.1226  0.2560
 5194TIP3   OH237072   0.659   5.881  14.019  0.1800 -0.3445  0.1220
 5194TIP3    H137073   0.679   5.812  13.956  0.3422 -0.7796  0.6539
 5194TIP3    H237074   0.730   5.877  14.083 -0.5212 -0.5573  0.8888
 5195TIP3   OH237075   5.164   3.721   5.275  0.1998 -0.1042  0.3291
 5195TIP3    H137076   5.215   3.790   5.234  0.9922 -0.4925  0.6483
 5195TIP3    H237077   5.227   3.672   5.327 -0.5526 -0.3970  0.9882
 5196TIP3   OH237078   2.176   2.520  11.908 -0.1100 -0.2772 -0.0468
 5196TIP3    H137079   2.175   2.614  11.890 -1.1097 -0.5147 -1.2592
 5196TIP3    H237080   2.088   2.490  11.887  0.0576 -1.4039  0.8080
 5197TIP3   OH237081   2.651   1.484  15.790 -0.2129 -0.1234  0.0978
 5197TIP3    H137082   2.642   1.479  15.885 -1.0321 -0.9441 -0.0100
 5197TIP3    H237083   2.592   1.415  15.757  1.1670 -0.8259 -0.9426
 5198TIP3   OH237084   4.321   5.097   0.843  0.1752  0.0089  0.4159
 5198TIP3    H137085   4.317   5.017   0.895 -0.3718 -0.8353 -0.9197
 5198TIP3    H237086   4.260   5.082   0.771  2.1151  0.5235 -1.3699
 5199TIP3   OH237087   5.341   0.586  13.289  0.3306 -0.0211  0.2054
 5199TIP3    H137088   5.273   0.583  13.355 -0.4939 -1.5503 -0.6867
 5199TIP3    H237089   5.411   0.638  13.328 -1.2602  1.3928  1.2075
 5200TIP3   OH237090   5.144   2.959  16.712  0.0164 -0.1044 -0.3834
 5200TIP3    H137091   5.159   2.940  16.619 -1.9458 -1.2636 -0.4739
 5200TIP3    H237092   5.213   2.911  16.758 -0.3823 -1.3675 -1.0974
 5201TIP3   OH237093   6.731   4.006  11.032  0.3749  0.0260 -0.4063
 5201TIP3    H137094   6.720   4.013  10.937  1.0679  0.1263 -0.4760
 5201TIP3    H237095   6.743   3.912  11.048  2.2913  0.2180 -0.6366
 5202TIP3   OH237096   1.964   0.680   0.093  0.6019  0.1410  0.5612
 5202TIP3    H137097   1.909   0.702   0.017  1.8628 -0.1570 -0.4642
 5202TIP3    H237098   1.921   0.722   0.167  0.3498  1.9898 -0.6088
 5203TIP3   OH237099   2.720   0.105  16.117 -0.3058  0.0734 -0.8772
 5203TIP3    H137100   2.761   0.135  16.198  1.9399 -0.8753 -1.6296
 5203TIP3    H237101   2.685   0.185  16.078 -0.1466  0.7474  0.3253
 5204TIP3   OH237102   2.149   0.836   1.354 -0.3299 -0.1945  0.2585
 5204TIP3    H137103   2.182   0.884   1.430  0.4434  0.5250 -0.5167
 5204TIP3    H237104   2.127   0.750   1.388  0.2001  0.0525  1.2644
 5205TIP3   OH237105   1.844   6.549  15.604 -0.2092  0.0857  0.9248
 5205TIP3    H137106   1.937   6.539  15.587 -0.9356 -2.8615 -1.7532
 5205TIP3    H237107   1.818   6.466  15.644 -1.5026  1.2920  2.6559
 5206TIP3   OH237108   5.036   1.775  14.370  0.2091 -0.0837  0.2320
 5206TIP3    H137109   5.130   1.762  14.382  0.5258  1.0505 -0.8911
 5206TIP3    H237110   5.028   1.862  14.331 -1.3318 -0.0423  0.5776
 5207TIP3   OH237111   2.398   3.307   5.543  0.5863 -0.3559 -0.6705
 5207TIP3    H137112   2.369   3.385   5.495 -0.5864  0.0523  0.6569
 5207TIP3    H237113   2.344   3.236   5.507  1.1218 -0.4184 -1.3526
 5208TIP3   OH237114   5.636   3.151   1.803  0.4356  0.0458  0.2463
 5208TIP3    H137115   5.726   3.144   1.773 -0.2459 -1.5019 -1.6277
 5208TIP3    H237116   5.594   3.209   1.739 -0.2402 -0.4943  0.1901
 5209TIP3   OH237117   5.998   0.649   5.161  0.2584  0.1018 -0.0975
 5209TIP3    H137118   5.924   0.605   5.203  0.3368 -0.4031 -0.4866
 5209TIP3    H237119   6.075   0.617   5.206  0.3183 -0.1922 -0.4083
 5210TIP3   OH237120   3.978   3.568  14.274 -0.6560  0.6150  0.4650
 5210TIP3    H137121   4.023   3.520  14.205 -1.0039 -0.3179  0.8795
 5210TIP3    H237122   3.989   3.660  14.251 -0.1596  0.3269 -0.4457
 5211TIP3   OH237123   5.563   1.058   1.047 -0.2063 -0.0973 -0.0048
 5211TIP3    H137124   5.577   1.139   1.097  1.7705 -0.4584  0.0469
 5211TIP3    H237125   5.474   1.030   1.071 -1.6875  3.0737 -1.5220
 5212TIP3   OH237126   6.746   0.719   2.972 -0.4328 -0.0399  0.5248
 5212TIP3    H137127   6.684   0.650   2.948  0.3584 -1.2462  1.8448
 5212TIP3    H237128   6.761   0.767   2.891 -1.0220 -1.4002 -0.4098
 5213TIP3   OH237129   6.169   6.702  14.928  0.4546  0.5564  0.2753
 5213TIP3    H137130   6.255   6.675  14.895  0.9948 -1.5369  3.2049
 5213TIP3    H237131   6.188   6.752  15.007 -0.9994  1.1939  0.2372
 5214TIP3   OH237132   0.703   6.215  11.837 -0.0068  0.3368 -0.4521
 5214TIP3    H137133   0.754   6.158  11.778  1.5219  1.1660  0.0370
 5214TIP3    H237134   0.614   6.182  11.830  0.5116 -0.8921 -1.6654
 5215TIP3   OH237135   5.219   3.860   3.309  0.0908 -0.1405 -0.0469
 5215TIP3    H137136   5.229   3.938   3.255  0.9064 -0.4338 -0.3293
 5215TIP3    H237137   5.167   3.800   3.256 -1.3161  0.5414  0.5306
 5216TIP3   OH237138   1.761   6.578  10.923  0.0179 -0.7892 -0.3491
 5216TIP3    H137139   1.846   6.619  10.910  0.7393 -1.3903  2.1999
 5216TIP3    H237140   1.752   6.518  10.849  1.3369  0.0813 -1.2261
 5217TIP3   OH237141   0.475   0.561   3.075 -0.1258  0.3222  0.1377
 5217TIP3    H137142   0.454   0.653   3.089  0.2336  0.0873  2.4902
 5217TIP3    H237143   0.571   0.557   3.079 -0.0041  0.2006 -2.4662
 5218TIP3   OH237144   3.623   4.612   0.200 -0.2383  0.4202  0.0737
 5218TIP3    H137145   3.572   4.686   0.167 -0.0522 -0.3989 -2.2130
 5218TIP3    H237146   3.561   4.538   0.198  0.7373 -0.3897 -1.8637
 5219TIP3   OH237147   6.692   3.199  11.224  0.3063  0.1290 -0.5033
 5219TIP3    H137148   6.627   3.268  11.210  0.3387  0.1483 -0.5574
 5219TIP3    H237149   6.656   3.123  11.178  0.2178  0.0784 -0.3497
 5220TIP3   OH237150   3.014   3.071   3.838  0.0909  0.4431  0.5285
 5220TIP3    H137151   3.025   2.976   3.850 -2.4609  0.1043  0.3896
 5220TIP3    H237152   3.101   3.101   3.813  0.4008 -2.2550 -1.8961
 5221TIP3   OH237153   4.266   0.798  14.362  0.6872  0.6813  0.4572
 5221TIP3    H137154   4.327   0.742  14.314  0.6643  3.3678 -2.8643
 5221TIP3    H237155   4.272   0.767  14.452  2.0354 -3.4197 -0.9059
 5222TIP3   OH237156   2.451   0.835   1.387 -0.0491  0.1358 -0.7204
 5222TIP3    H137157   2.402   0.760   1.353 -0.6970  0.5637 -0.7219
 5222TIP3    H237158   2.536   0.798   1.412 -0.5845 -0.7192 -0.1423
 5223TIP3   OH237159   4.918   5.028  12.636  0.0174 -0.3530 -0.1816
 5223TIP3    H137160   4.984   5.098  12.631 -0.6049  0.3242  0.8524
 5223TIP3    H237161   4.944   4.966  12.568 -1.0274  2.2364 -3.0515
 5224TIP3   OH237162   1.920   6.434  12.939 -0.1758 -0.3620 -0.2281
 5224TIP3    H137163   1.858   6.489  12.891 -1.6783 -1.9940 -0.2393
 5224TIP3    H237164   1.930   6.476  13.024 -1.0598  0.1078 -0.3548
 5225TIP3   OH237165   5.098   6.089   2.766  0.3612 -0.1682 -0.2812
 5225TIP3    H137166   5.007   6.105   2.788  0.1448 -1.9900  0.2298
 5225TIP3    H237167   5.098   6.003   2.724  1.4846  0.9872 -2.7142
 5226TIP3   OH237168   2.853   2.146   6.130  0.1647  0.4176  0.1087
 5226TIP3    H137169   2.761   2.135   6.153 -0.9597  1.1068 -3.6308
 5226TIP3    H237170   2.876   2.234   6.162 -0.5151  0.2966  0.9356
 5227TIP3   OH237171   6.019   1.875   0.803  0.1066  0.1473 -0.5826
 5227TIP3    H137172   6.039   1.864   0.895 -0.7153 -0.3385 -0.4573
 5227TIP3    H237173   6.039   1.791   0.762 -0.5520  0.0157 -0.6513
 5228TIP3   OH237174   5.222   2.793   0.671 -0.0340  0.3729 -0.2667
 5228TIP3    H137175   5.130   2.805   0.695 -0.8351  1.4356 -3.5819
 5228TIP3    H237176   5.220   2.753   0.584  2.6258  1.6879 -1.0058
 5229TIP3   OH237177   6.770   2.900   5.012 -0.3486 -0.2565  0.5332
 5229TIP3    H137178   6.829   2.953   5.065  0.7872 -1.0577  0.0919
 5229TIP3    H237179   6.697   2.958   4.993 -0.2528  0.3858  2.0491
 5230TIP3   OH237180   0.586   3.035  16.316 -0.1703 -0.1365 -0.1720
 5230TIP3    H137181   0.605   3.056  16.408 -2.1357 -0.4664  0.3482
 5230TIP3    H237182   0.672   3.029  16.274  0.6823  2.2047  1.1561
 5231TIP3   OH237183   3.315   3.100  15.882  0.8757  0.0567 -0.3705
 5231TIP3    H137184   3.227   3.088  15.846  1.1054 -0.6065 -0.7124
 5231TIP3    H237185   3.302   3.157  15.957  0.0215 -0.7580  0.1130
 5232TIP3   OH237186   2.134   6.785   5.043  0.3067  0.3014 -0.6532
 5232TIP3    H137187   2.090   6.813   5.123  2.7057 -1.6431  1.4512
 5232TIP3    H237188   2.070   6.729   4.999  0.2383 -1.6826  1.8544
 5233TIP3   OH237189   2.145   0.908   6.088 -0.0831 -0.3568 -0.0384
 5233TIP3    H137190   2.125   0.885   6.179  0.5203  0.0647  0.2029
 5233TIP3    H237191   2.065   0.948   6.055 -0.4997 -1.0361  0.1254
 5234TIP3   OH237192   2.467   4.144   0.225 -0.3010 -0.4190 -0.5021
 5234TIP3    H137193   2.514   4.171   0.146 -3.4846 -1.6071 -2.9113
 5234TIP3    H237194   2.401   4.212   0.238  0.6890  0.1595  1.6068
 5235TIP3   OH237195   3.112   2.118  16.344 -0.5097  0.2812 -0.2332
 5235TIP3    H137196   3.188   2.111  16.285 -1.2361  1.5246 -1.3482
 5235TIP3    H237197   3.093   2.212  16.346 -3.1895 -0.1965 -1.4655
 5236TIP3   OH237198   5.113   5.968  15.520 -0.3778  0.1122 -0.2702
 5236TIP3    H137199   5.165   6.047  15.533  0.6201 -1.0660  3.5902
 5236TIP3    H237200   5.165   5.913  15.461  0.6969  0.7610  0.0750
 5237TIP3   OH237201   4.632   4.079  14.915 -0.1368  0.1883  0.2472
 5237TIP3    H137202   4.572   4.079  14.990 -0.8981  0.5003 -0.3488
 5237TIP3    H237203   4.697   4.146  14.936 -0.0243 -0.1149  0.8757
 5238TIP3   OH237204   2.047   5.106   0.296 -0.0642 -0.2329  0.8416
 5238TIP3    H137205   2.128   5.062   0.271 -0.5772 -0.4757 -0.4381
 5238TIP3    H237206   2.017   5.149   0.217 -0.7817  0.5059  1.5027
 5239TIP3   OH237207   0.034   1.142   5.935 -0.2698  0.7214 -0.2534
 5239TIP3    H137208  -0.019   1.221   5.946  0.3474  1.3002 -1.3717
 5239TIP3    H237209   0.125   1.173   5.940 -0.0106  0.2837 -1.9151
 5240TIP3   OH237210   2.283   6.340  17.021  0.1154 -0.4417  0.2023
 5240TIP3    H137211   2.199   6.352  17.067 -0.5077 -3.1150 -0.1287
 5240TIP3    H237212   2.258   6.319  16.931  1.2329  1.3338 -0.5326
 5241TIP3   OH237213   4.262   3.495   2.826  0.4476 -0.6018  0.1381
 5241TIP3    H137214   4.315   3.469   2.902  1.5687  0.4107 -0.2753
 5241TIP3    H237215   4.324   3.537   2.766 -0.4304 -1.3495 -1.3305
 5242TIP3   OH237216   3.362   3.257  14.183  0.1955 -0.0688 -0.6675
 5242TIP3    H137217   3.450   3.246  14.217 -0.6519 -0.5975  1.4813
 5242TIP3    H237218   3.352   3.189  14.116  1.1523 -0.4981 -0.3690
 5243TIP3   OH237219   5.180   0.411  11.329 -0.2215  0.1348  0.3707
 5243TIP3    H137220   5.177   0.317  11.309  0.2061  0.6002 -2.0783
 5243TIP3    H237221   5.125   0.451  11.261 -2.9534  1.4224  3.2240
 5244TIP3   OH237222   4.116   2.757   6.155 -0.2808  0.4740  0.0732
 5244TIP3    H137223   4.074   2.833   6.196  0.1364 -0.0056  1.4008
 5244TIP3    H237224   4.125   2.693   6.225  0.9313 -0.1680 -0.6490
 5245TIP3   OH237225   5.348   3.406   6.277  0.4947  0.1057 -0.1362
 5245TIP3    H137226   5.294   3.441   6.348  1.5182  1.3490  0.0411
 5245TIP3    H237227   5.419   3.470   6.267  1.3339 -0.9569 -1.0885
 5246TIP3   OH237228   5.435   4.305  17.273 -0.3108 -0.5326  0.0226
 5246TIP3    H137229   5.360   4.323  17.329 -0.3601 -0.6431 -0.0100
 5246TIP3    H237230   5.398   4.289  17.187 -0.3999 -2.4235  0.3915
 5247TIP3   OH237231   3.506   5.537   4.657 -0.4576  0.0047  0.1453
 5247TIP3    H137232   3.420   5.571   4.681 -0.8420 -1.6047  1.1716
 5247TIP3    H237233   3.491   5.489   4.576 -0.7022 -0.9284  0.7319
 5248TIP3   OH237234   5.936   3.115   2.363 -0.3474  0.3954 -0.0897
 5248TIP3    H137235   5.966   3.153   2.281  0.4055  1.0791  0.4862
 5248TIP3    H237236   6.012   3.067   2.396 -0.8365 -0.3747 -0.0971
 5249TIP3   OH237237   1.411   4.840   2.134  0.8026 -0.3570 -0.2406
 5249TIP3    H137238   1.451   4.768   2.086  2.2047  0.8542 -0.9230
 5249TIP3    H237239   1.458   4.843   2.217  0.7760 -0.1946 -0.2312
 5250TIP3   OH237240   2.800   5.602  15.468  0.2067  0.3658 -0.1380
 5250TIP3    H137241   2.884   5.638  15.442 -0.1759  1.1069 -0.3572
 5250TIP3    H237242   2.739   5.675  15.460  0.1346  0.7665  3.2655
 5251TIP3   OH237243   2.943   6.037  13.532  0.5465  0.2615  0.0284
 5251TIP3    H137244   2.938   5.960  13.475 -0.8099  0.1440  0.2918
 5251TIP3    H237245   3.032   6.035  13.566  1.4883  0.4794 -2.2910
 5252TIP3   OH237246   3.464   6.692   6.228  0.1087  0.0415 -0.0759
 5252TIP3    H137247   3.466   6.740   6.311  0.9411 -0.4344  0.1877
 5252TIP3    H237248   3.435   6.604   6.252  0.0748 -0.0184 -0.3326
 5253TIP3   OH237249   4.616   1.829  12.380 -0.4837  0.5805 -0.6493
 5253TIP3    H137250   4.616   1.803  12.288  1.9248 -0.5328 -0.3861
 5253TIP3    H237251   4.614   1.747  12.428  1.8079  0.9905  0.2330
 5254TIP3   OH237252   6.191   2.658   5.398 -0.1851  0.2876  0.2916
 5254TIP3    H137253   6.108   2.661   5.446 -0.0690  0.1108  0.5030
 5254TIP3    H237254   6.185   2.731   5.336 -0.7761 -0.1264 -0.1511
 5255TIP3   OH237255   3.994   2.007   1.345 -0.4184  0.4074  0.0787
 5255TIP3    H137256   4.070   1.991   1.402 -0.5793  0.0512  0.1935
 5255TIP3    H237257   3.935   1.933   1.362 -1.1750  1.1230  0.6303
 5256TIP3   OH237258   2.820   3.615  16.298 -0.4240  0.1326  0.6140
 5256TIP3    H137259   2.875   3.638  16.224  0.2763  0.1541  1.1430
 5256TIP3    H237260   2.855   3.531  16.329 -0.7375  0.1028  0.8958
 5257TIP3   OH237261   4.567   6.279  17.225 -0.6816  0.3794 -0.2094
 5257TIP3    H137262   4.590   6.222  17.298  1.4424  0.7668 -0.5260
 5257TIP3    H237263   4.586   6.367  17.257 -1.3416  0.6847 -0.6489
 5258TIP3   OH237264   4.670   2.591   3.761  0.2654 -0.4659 -0.3844
 5258TIP3    H137265   4.585   2.633   3.769  0.2886 -0.5556  0.3680
 5258TIP3    H237266   4.672   2.558   3.672  1.1735  3.1400 -1.7771
 5259TIP3   OH237267   6.747   6.448  12.584 -0.6249 -0.5820 -0.4464
 5259TIP3    H137268   6.813   6.462  12.516 -1.5918 -1.0424 -1.5075
 5259TIP3    H237269   6.793   6.402  12.654  0.0987 -1.2412 -1.3477
 5260TIP3   OH237270   6.644   0.992  15.713 -0.5811 -0.0432  0.1346
 5260TIP3    H137271   6.706   0.934  15.758  0.1403  1.5620  1.2936
 5260TIP3    H237272   6.633   0.953  15.626 -0.4435 -2.1122  1.0073
 5261TIP3   OH237273   1.379   1.428  16.379 -0.0741 -0.1153 -0.4058
 5261TIP3    H137274   1.331   1.346  16.367  0.7286 -1.0174  2.1964
 5261TIP3    H237275   1.313   1.490  16.409 -0.1777 -0.5959  0.3880
 5262TIP3   OH237276   1.300   3.203  11.031  0.2283 -0.6313 -0.0984
 5262TIP3    H137277   1.260   3.284  11.063 -0.4286 -0.8806 -0.2731
 5262TIP3    H237278   1.392   3.210  11.056  0.5338  0.9342 -1.6003
 5263TIP3   OH237279   2.581   1.042  16.359 -0.1004 -0.8727  0.5181
 5263TIP3    H137280   2.635   1.121  16.358  2.2456 -2.4233  0.7462
 5263TIP3    H237281   2.505   1.065  16.413 -0.4775  1.8437 -1.0591
 5264TIP3   OH237282   5.422   3.180   1.449  0.4906  0.1300  0.2234
 5264TIP3    H137283   5.397   3.100   1.403 -0.2726  1.0165 -0.9043
 5264TIP3    H237284   5.453   3.239   1.381  0.6789  0.9403  1.0013
 5265TIP3   OH237285   4.532   4.491  14.141  0.6152  0.1597 -0.3116
 5265TIP3    H137286   4.465   4.559  14.132  0.5483  0.1569  0.1309
 5265TIP3    H237287   4.504   4.422  14.082  0.7279  0.5508 -0.8339
 5266TIP3   OH237288   2.991   3.351  15.766 -0.4830  0.3618  0.5500
 5266TIP3    H137289   3.010   3.267  15.810 -0.1619 -0.2473 -0.7416
 5266TIP3    H237290   3.071   3.402  15.776 -0.2875  0.0918  0.3526
 5267TIP3   OH237291   5.977   5.668  14.800  0.5139  0.1390 -0.0210
 5267TIP3    H137292   5.975   5.718  14.718 -0.0641 -0.3765 -0.3297
 5267TIP3    H237293   6.068   5.671  14.827  0.8392 -0.2225 -1.0277
 5268TIP3   OH237294   5.648   5.065   5.601 -0.7092 -0.3550 -0.7304
 5268TIP3    H137295   5.653   5.106   5.688 -0.6450 -0.5028 -0.6645
 5268TIP3    H237296   5.591   4.990   5.614 -2.8589  1.1081 -1.3937
 5269TIP3   OH237297   2.649   3.029   5.911 -0.4661  0.0220 -0.1062
 5269TIP3    H137298   2.664   3.114   5.869  0.0094 -0.6241 -1.2407
 5269TIP3    H237299   2.694   2.966   5.855 -2.9114 -1.2905 -0.6777
 5270TIP3   OH237300   1.846   4.386   4.525 -0.2140  0.2735 -0.3625
 5270TIP3    H137301   1.789   4.451   4.484  1.0249  1.2778 -0.5297
 5270TIP3    H237302   1.789   4.310   4.539 -1.0533  0.4439 -2.5433
 5271TIP3   OH237303   0.254   1.213  11.696  0.5294 -0.2937 -0.1798
 5271TIP3    H137304   0.295   1.132  11.666  1.7623 -0.4683  1.9274
 5271TIP3    H237305   0.200   1.187  11.770 -1.4226  0.3538 -1.3354
 5272TIP3   OH237306   1.509   3.567   2.660  0.0754  0.0073  0.0165
 5272TIP3    H137307   1.453   3.520   2.599 -0.0026  0.8817 -0.5938
 5272TIP3    H237308   1.581   3.506   2.679 -1.2732 -1.2679  1.1130
 5273TIP3   OH237309   0.151   5.482  11.681 -0.0628 -0.3135  0.1180
 5273TIP3    H137310   0.062   5.454  11.659 -0.3695  0.3357  0.5194
 5273TIP3    H237311   0.159   5.569  11.641 -0.0150  0.1204  1.0582
 5274TIP3   OH237312   2.488   6.642   3.803  0.4231  0.6339  0.2994
 5274TIP3    H137313   2.395   6.664   3.790  0.9068  1.7571 -1.5390
 5274TIP3    H237314   2.498   6.634   3.897 -1.7794 -0.5119  0.4711
 5275TIP3   OH237315   0.440   5.806   4.633  0.3075 -0.1484 -0.2186
 5275TIP3    H137316   0.514   5.819   4.574  0.0096 -1.3444 -0.8706
 5275TIP3    H237317   0.477   5.814   4.721  1.4169 -1.7461 -0.5254
 5276TIP3   OH237318   3.774   2.784  13.265 -0.0457 -0.0146 -0.3312
 5276TIP3    H137319   3.854   2.821  13.304 -0.9698  0.5278  1.0749
 5276TIP3    H237320   3.806   2.712  13.211  1.3369 -0.4265  0.9783
 5277TIP3   OH237321   5.411   3.072  10.756  0.0505  0.0576 -0.0527
 5277TIP3    H137322   5.481   3.129  10.724  1.8054 -2.3543 -0.6915
 5277TIP3    H237323   5.350   3.065  10.682 -0.0682  0.9253 -0.0402
 5278TIP3   OH237324   0.451   4.704   1.456 -0.5000 -0.0320 -0.1978
 5278TIP3    H137325   0.410   4.625   1.420 -2.1027  0.5005  0.4396
 5278TIP3    H237326   0.415   4.776   1.404 -1.7896  0.6112  1.5787
 5279TIP3   OH237327   6.108   4.500  16.474  0.2450 -0.9079  0.2828
 5279TIP3    H137328   6.032   4.528  16.525  0.3053  0.1811 -0.2097
 5279TIP3    H237329   6.082   4.415  16.438 -0.6242 -0.6938  0.3821
 5280TIP3   OH237330   5.952   1.637  12.242  0.0709  0.3515 -0.4984
 5280TIP3    H137331   5.938   1.682  12.326  1.2406  2.6348 -1.4785
 5280TIP3    H237332   5.871   1.653  12.193  1.1897  3.1082 -1.5563
 5281TIP3   OH237333   3.047   0.810   5.075 -0.3275  0.4164 -0.1139
 5281TIP3    H137334   3.067   0.865   5.151 -1.8308 -0.4477  0.9352
 5281TIP3    H237335   3.044   0.721   5.111  1.1980 -0.2658 -1.6209
 5282TIP3   OH237336   2.657   3.584   5.752 -0.5513  0.2304  0.0261
 5282TIP3    H137337   2.595   3.658   5.748 -0.8718 -0.0115  0.4347
 5282TIP3    H237338   2.707   3.599   5.833 -1.5529 -0.7243  0.8498
 5283TIP3   OH237339   0.526   6.649  10.825 -0.9017 -0.0813 -0.4209
 5283TIP3    H137340   0.557   6.667  10.736  0.5307  1.3811  0.3376
 5283TIP3    H237341   0.486   6.731  10.853 -0.5839 -0.2617  0.5749
 5284TIP3   OH237342   1.950   2.032  16.934 -1.0989  0.1393 -0.0498
 5284TIP3    H137343   1.859   2.003  16.929 -2.0560  2.3070  3.3436
 5284TIP3    H237344   1.947   2.125  16.910  0.6113 -0.3256 -2.2220
 5285TIP3   OH237345   2.108   5.371   0.763  0.1911  0.9037 -0.0270
 5285TIP3    H137346   2.042   5.421   0.811 -0.0093  0.4791  0.1335
 5285TIP3    H237347   2.059   5.318   0.701  0.3176 -0.1788  0.7972
 5286TIP3   OH237348   1.682   3.361  10.896 -0.2842 -0.2730 -0.0729
 5286TIP3    H137349   1.704   3.274  10.862  3.0462  1.1502 -1.7277
 5286TIP3    H237350   1.682   3.418  10.819  0.9366  1.8169  1.4234
 5287TIP3   OH237351   1.461   4.301   2.033  0.1536 -0.4460  0.3015
 5287TIP3    H137352   1.543   4.319   1.986 -0.3303  0.0547 -0.3747
 5287TIP3    H237353   1.474   4.216   2.073  0.7067 -0.7406 -0.4883
 5288TIP3   OH237354   5.956   5.953  11.133 -0.0613  0.4171 -1.1165
 5288TIP3    H137355   5.990   5.946  11.043  1.8597 -0.7658 -0.3285
 5288TIP3    H237356   5.977   5.868  11.172  1.2159  1.7438  1.1600
 5289TIP3   OH237357   3.466   0.524  15.879 -0.0252 -0.2334  0.3288
 5289TIP3    H137358   3.476   0.436  15.916 -0.3280  0.1985  1.4873
 5289TIP3    H237359   3.551   0.565  15.892  0.8489 -1.1385 -2.3890
 5290TIP3   OH237360   1.559   0.547  12.415 -0.0248 -0.2184  0.2651
 5290TIP3    H137361   1.635   0.586  12.370 -1.0363  0.8492 -0.5476
 5290TIP3    H237362   1.582   0.550  12.508  1.0617 -0.1807  0.0017
 5291TIP3   OH237363   4.481   5.619  15.224 -0.4391  0.7653  0.0438
 5291TIP3    H137364   4.412   5.582  15.278  0.3161 -0.4911  0.1706
 5291TIP3    H237365   4.562   5.597  15.270  0.1041  1.3041 -0.6387
 5292TIP3   OH237366   0.790   2.302   3.627  0.3210 -0.4977 -0.8715
 5292TIP3    H137367   0.711   2.348   3.598  0.6635  0.3574 -0.4672
 5292TIP3    H237368   0.860   2.366   3.618  1.0118 -1.3129 -1.4111
 5293TIP3   OH237369   1.727   6.151  12.138  0.1268 -0.5410  0.3621
 5293TIP3    H137370   1.645   6.103  12.124 -0.2466 -0.8302  3.2298
 5293TIP3    H237371   1.764   6.113  12.218  1.4207  1.7907  0.9204
 5294TIP3   OH237372   2.520   5.578   0.753  0.3810 -0.4865 -0.1110
 5294TIP3    H137373   2.610   5.581   0.723 -0.0389 -1.4860 -1.5100
 5294TIP3    H237374   2.495   5.670   0.763  1.4032 -0.2026 -0.1531
 5295TIP3   OH237375   4.666   6.281  16.587  0.4914 -0.3288 -0.6185
 5295TIP3    H137376   4.676   6.274  16.492 -0.1649 -0.8882 -0.6538
 5295TIP3    H237377   4.581   6.241  16.605 -0.1351  1.2491  0.0299
 5296TIP3   OH237378   3.879   5.061   3.590  0.6401  0.1110 -0.2840
 5296TIP3    H137379   3.918   5.124   3.650 -1.7250  1.6312 -0.2809
 5296TIP3    H237380   3.883   4.978   3.637 -0.9539  1.2250  1.9056
 5297TIP3   OH237381   1.791   5.040  12.318  0.1021 -0.0450  0.0168
 5297TIP3    H137382   1.864   5.101  12.315  0.7387 -0.7547  0.7049
 5297TIP3    H237383   1.823   4.961  12.275 -0.0312 -0.5857  0.8961
 5298TIP3   OH237384   1.193   5.239   0.424 -0.4098 -0.1676 -0.2587
 5298TIP3    H137385   1.106   5.204   0.441 -0.3506 -1.3313 -2.1018
 5298TIP3    H237386   1.251   5.163   0.430  0.2079  0.2413 -0.9166
 5299TIP3   OH237387   5.188   0.512  15.791 -0.1534 -0.0724  0.3132
 5299TIP3    H137388   5.135   0.496  15.713 -0.8437  0.4144  0.6714
 5299TIP3    H237389   5.202   0.607  15.792  2.0669 -0.3568 -0.6193
 5300TIP3   OH237390   1.498   6.190  14.750  0.5356 -0.3541  0.0559
 5300TIP3    H137391   1.526   6.159  14.664  1.7527 -0.0346  0.3326
 5300TIP3    H237392   1.501   6.285  14.744 -1.6991 -0.2730 -0.2932
 5301TIP3   OH237393   0.680   6.820  16.601 -0.6848 -0.0274 -0.0327
 5301TIP3    H137394   0.653   6.806  16.510  0.7963  0.6031 -0.5937
 5301TIP3    H237395   0.756   6.763  16.612  1.0984  2.2225 -0.1949
 5302TIP3   OH237396   1.274   6.794   0.276  0.3033  0.0067 -0.6194
 5302TIP3    H137397   1.265   6.735   0.202  0.4311  0.7876 -1.2675
 5302TIP3    H237398   1.306   6.739   0.347 -2.5702 -1.3471 -0.2987
 5303TIP3   OH237399   2.946   1.097  13.179 -0.0591 -0.0654  0.5318
 5303TIP3    H137400   3.032   1.130  13.205  0.1673 -0.8455  0.7938
 5303TIP3    H237401   2.950   1.003  13.198 -0.1682 -0.5252 -1.6089
 5304TIP3   OH237402   3.994   0.908  16.079  0.3184  0.5670  0.3607
 5304TIP3    H137403   4.034   0.964  16.146 -0.1583  0.0012  1.1292
 5304TIP3    H237404   3.908   0.886  16.115  1.1719 -2.1151  0.9086
 5305TIP3   OH237405   4.092   3.180  16.611 -0.2935 -0.5483 -0.0200
 5305TIP3    H137406   4.183   3.150  16.611  0.3881  1.4818 -2.2179
 5305TIP3    H237407   4.046   3.113  16.663  2.3430 -1.8159  0.7921
 5306TIP3   OH237408   1.980   3.140   4.634  0.1673 -0.3373 -0.1395
 5306TIP3    H137409   1.998   3.211   4.573 -1.1749 -0.0104 -0.1800
 5306TIP3    H237410   2.066   3.111   4.664  0.7667  0.5922 -0.9290
 5307TIP3   OH237411   5.916   1.411   3.927 -0.1725 -0.1712 -0.4675
 5307TIP3    H137412   5.973   1.482   3.956  1.4201 -1.2504 -0.9170
 5307TIP3    H237413   5.828   1.448   3.931  0.4471  1.1625  1.3142
 5308TIP3   OH237414   5.867   5.556  13.373 -0.3054 -0.4180 -0.2152
 5308TIP3    H137415   5.958   5.552  13.403  0.0859 -1.7880 -1.5196
 5308TIP3    H237416   5.834   5.467  13.384 -1.4805  0.0476  0.1634
 5309TIP3   OH237417   4.380   0.992  11.636 -0.5759  0.0449 -0.0555
 5309TIP3    H137418   4.403   1.017  11.547 -1.6581  0.7724 -0.1367
 5309TIP3    H237419   4.293   0.951  11.629 -0.4111 -0.4391  0.5802
 5310TIP3   OH237420   0.476   2.855  14.664  0.2049  0.5174  0.4469
 5310TIP3    H137421   0.483   2.779  14.605  0.4036  1.0123 -0.1666
 5310TIP3    H237422   0.397   2.837  14.715 -0.4654  0.5093 -0.5785
 5311TIP3   OH237423   3.331   2.715   3.502  0.0018  0.1707 -0.7244
 5311TIP3    H137424   3.367   2.775   3.437 -0.2103 -0.8904 -1.8226
 5311TIP3    H237425   3.303   2.639   3.452  0.0185 -0.7407  0.6297
 5312TIP3   OH237426   0.750   0.723   3.037 -0.4422 -0.0715  0.4784
 5312TIP3    H137427   0.778   0.633   3.019  0.4486  0.0921  0.9962
 5312TIP3    H237428   0.712   0.719   3.125 -0.1752  0.1044  0.6024
 5313TIP3   OH237429   1.145   4.052  14.497 -0.1832 -0.1403 -0.6671
 5313TIP3    H137430   1.121   4.130  14.448  0.5478  1.4823  1.4947
 5313TIP3    H237431   1.132   3.980  14.435 -1.1188  1.6458 -2.6056
 5314TIP3   OH237432   3.300   0.979  16.162 -0.6944  0.0992 -0.2003
 5314TIP3    H137433   3.298   1.021  16.076  0.3854  0.1644 -0.1960
 5314TIP3    H237434   3.215   1.000  16.201 -1.2952 -0.1558 -1.3575
 5315TIP3   OH237435   6.794   1.428  16.718 -0.1872  0.6063  0.1594
 5315TIP3    H137436   6.780   1.447  16.626 -1.4709  2.1112  0.6360
 5315TIP3    H237437   6.706   1.428  16.756  0.4943  2.4918  1.8279
 5316TIP3   OH237438   3.563   6.102  16.533 -0.3586 -0.7053  0.7856
 5316TIP3    H137439   3.517   6.183  16.512  2.4088  1.0014  0.9834
 5316TIP3    H237440   3.631   6.129  16.595  2.3911 -2.6850 -1.2683
 5317TIP3   OH237441   2.904   1.800   1.501  0.2491  0.2419  0.7877
 5317TIP3    H137442   2.927   1.718   1.545  0.4439  0.7722  1.7036
 5317TIP3    H237443   2.812   1.813   1.523 -0.3825 -0.8367 -1.1727
 5318TIP3   OH237444   3.001   1.730   5.422  0.0608  0.0634  0.3582
 5318TIP3    H137445   3.026   1.703   5.334 -1.6142  0.0938 -0.1365
 5318TIP3    H237446   3.081   1.769   5.458  0.8454 -0.2206 -1.0174
 5319TIP3   OH237447   3.390   0.820   1.119 -0.1619 -0.5638 -0.1741
 5319TIP3    H137448   3.368   0.746   1.063  0.5064 -0.5765 -0.4279
 5319TIP3    H237449   3.310   0.839   1.167 -1.0568  0.0475 -1.8320
 5320TIP3   OH237450   5.736   3.597   2.429 -0.2791  0.3014 -0.2161
 5320TIP3    H137451   5.727   3.566   2.339 -1.2134  0.6566 -0.2596
 5320TIP3    H237452   5.714   3.690   2.424 -0.6283  0.2580  0.4258
 5321TIP3   OH237453   5.900   1.239   2.900  0.1975 -0.0071 -0.0964
 5321TIP3    H137454   5.964   1.258   2.832  0.9413 -1.8358  0.0593
 5321TIP3    H237455   5.825   1.202   2.854 -0.1453  0.7106 -0.1237
 5322TIP3   OH237456   0.389   3.755   1.119  0.1911 -0.0614 -0.4342
 5322TIP3    H137457   0.449   3.816   1.077  1.0730  0.3826  1.3894
 5322TIP3    H237458   0.351   3.805   1.191  0.0325 -1.2913  0.3621
 5323TIP3   OH237459   6.752   4.426  16.725 -0.1735 -0.3996 -0.0095
 5323TIP3    H137460   6.743   4.520  16.738 -1.1138 -0.6180  1.0143
 5323TIP3    H237461   6.839   4.405  16.758 -1.2967 -0.4299  3.0844
 5324TIP3   OH237462   3.530   3.037   3.777  0.0923  0.2447 -0.6608
 5324TIP3    H137463   3.518   3.031   3.682  2.6367  1.0179 -1.0777
 5324TIP3    H237464   3.588   3.112   3.789 -1.0351  0.7902  1.6062
 5325TIP3   OH237465   2.993   0.673   1.669 -0.1352 -0.3418 -0.3832
 5325TIP3    H137466   2.961   0.585   1.687  1.0651 -0.6327  0.3205
 5325TIP3    H237467   2.931   0.708   1.604 -0.5450 -1.7285 -0.7450
 5326TIP3   OH237468   0.318   4.205  11.298  0.3005  0.2289 -0.1994
 5326TIP3    H137469   0.390   4.142  11.300  0.0512 -0.0407  0.7774
 5326TIP3    H237470   0.357   4.286  11.267  0.7643 -0.2419 -0.8482
 5327TIP3   OH237471   4.034   1.137  11.097 -0.2795  0.4643  0.1027
 5327TIP3    H137472   4.122   1.101  11.092 -0.7331 -0.9165  1.7670
 5327TIP3    H237473   3.987   1.098  11.023 -0.3480 -1.2495  1.0227
 5328TIP3   OH237474   0.992   5.198  12.183 -0.0373  0.0595 -0.1827
 5328TIP3    H137475   0.941   5.177  12.105  0.0872 -1.9461  0.2670
 5328TIP3    H237476   1.083   5.199  12.153  0.1949 -2.7354  0.3245
 5329TIP3   OH237477   3.789   6.467  14.151  0.2127 -0.4717 -0.1464
 5329TIP3    H137478   3.884   6.481  14.145  0.1294  0.2372  0.1968
 5329TIP3    H237479   3.756   6.489  14.065  0.4334 -1.3145 -0.4527
 5330TIP3   OH237480   1.127   2.133  14.393 -0.3221 -0.0164 -0.2845
 5330TIP3    H137481   1.132   2.069  14.463 -2.1245 -0.2193 -0.3252
 5330TIP3    H237482   1.097   2.213  14.436  0.5311  0.4179 -0.4817
 5331TIP3   OH237483   0.388   4.892  15.291  0.5840  0.0056  0.6274
 5331TIP3    H137484   0.312   4.857  15.337  0.6533 -0.5464  0.3312
 5331TIP3    H237485   0.358   4.976  15.256  0.1704 -0.1150  0.6816
 5332TIP3   OH237486   5.283   4.256  13.137 -0.4260  0.4840 -0.9528
 5332TIP3    H137487   5.355   4.225  13.082  0.1708 -0.9404  0.5878
 5332TIP3    H237488   5.313   4.243  13.227 -2.7265 -0.4473 -0.2663
 5333TIP3   OH237489   4.246   5.057   3.506  0.0127  0.0965 -0.4585
 5333TIP3    H137490   4.314   5.107   3.461  1.6536 -0.0268  1.8234
 5333TIP3    H237491   4.206   5.004   3.437  2.6604 -0.3122 -1.7405
 5334TIP3   OH237492   5.024   0.452  16.897 -0.0948 -0.3310 -0.3611
 5334TIP3    H137493   5.064   0.518  16.954  0.1726  0.3611 -1.3313
 5334TIP3    H237494   5.041   0.484  16.808  1.0007 -2.2448 -0.8842
 5335TIP3   OH237495   0.133   1.288  11.059  0.6960  0.2529  0.3986
 5335TIP3    H137496   0.137   1.381  11.080 -0.5836 -0.0539  2.1240
 5335TIP3    H237497   0.167   1.282  10.969  0.7753  2.3669  0.2589
 5336TIP3   OH237498   2.141   6.131  16.386  0.5111 -0.0084 -0.1416
 5336TIP3    H137499   2.077   6.094  16.325  0.6231  0.8406 -0.7801
 5336TIP3    H237500   2.129   6.080  16.466  0.4268 -1.2049 -0.8912
 5337TIP3   OH237501   1.141   4.338   0.996 -0.2658 -0.0042  0.1433
 5337TIP3    H137502   1.199   4.414   1.002 -0.6371  0.2879  0.0550
 5337TIP3    H237503   1.159   4.301   0.910 -0.8779  0.6337 -0.2646
 5338TIP3   OH237504   5.722   5.091   1.384  0.8002  0.2513 -0.2308
 5338TIP3    H137505   5.637   5.115   1.347  0.0814 -1.5919  0.1649
 5338TIP3    H237506   5.785   5.141   1.333 -0.3153 -0.6555 -2.5829
 5339TIP3   OH237507   6.237   3.795   2.087  0.1916  0.3994  0.2083
 5339TIP3    H137508   6.224   3.802   1.993 -1.0363 -1.5485  0.2043
 5339TIP3    H237509   6.319   3.745   2.097  0.9847  1.6775  0.1928
 5340TIP3   OH237510   4.425   0.528   5.096  0.2360 -0.1099  0.0626
 5340TIP3    H137511   4.429   0.449   5.042  0.3357  1.9023 -3.0296
 5340TIP3    H237512   4.342   0.522   5.142  0.6140 -2.3883  0.5029
 5341TIP3   OH237513   4.986   2.272  15.582 -0.2312 -0.2109 -0.6248
 5341TIP3    H137514   5.059   2.223  15.619 -1.2157 -1.3195 -0.1085
 5341TIP3    H237515   4.917   2.265  15.648 -1.1812 -0.1319 -1.5969
 5342TIP3   OH237516   4.922   0.958   3.379  0.3584 -0.3885 -0.1272
 5342TIP3    H137517   4.845   0.906   3.355  0.4051 -0.6140  0.2098
 5342TIP3    H237518   4.967   0.974   3.296 -1.3354  1.8118 -0.6508
 5343TIP3   OH237519   3.884   5.692   1.371 -0.2504  0.1709  0.2314
 5343TIP3    H137520   3.857   5.671   1.281 -0.3532  1.3546 -0.0163
 5343TIP3    H237521   3.848   5.779   1.387  0.2614  0.2027  1.2219
 5344TIP3   OH237522   1.304   0.879   5.388  0.6485 -0.5095  0.1578
 5344TIP3    H137523   1.257   0.872   5.472  0.6991 -3.1186  0.0121
 5344TIP3    H237524   1.396   0.877   5.412  0.6699  0.2526  0.1419
 5345TIP3   OH237525   6.592   3.472  11.025 -0.1186  0.0551 -0.4995
 5345TIP3    H137526   6.630   3.506  10.944  0.2668 -1.1413 -0.8321
 5345TIP3    H237527   6.667   3.443  11.077 -0.4517 -0.4274 -0.2815
 5346TIP3   OH237528   6.636   6.556   0.361  0.6808 -0.2894  0.4025
 5346TIP3    H137529   6.706   6.613   0.328 -1.1157  1.6525 -0.1366
 5346TIP3    H237530   6.668   6.467   0.344  2.3944  0.5780 -1.1603
 5347TIP3   OH237531   6.376   5.573  17.156  0.2916 -0.0246 -0.1001
 5347TIP3    H137532   6.468   5.572  17.182 -0.2766  0.2328  1.9746
 5347TIP3    H237533   6.336   5.501  17.204 -0.9626  1.0100  0.4226
 5348TIP3   OH237534   1.285   0.780   4.142 -0.1599  0.3049  0.2380
 5348TIP3    H137535   1.225   0.770   4.216  0.3393  0.2070  0.6273
 5348TIP3    H237536   1.271   0.869   4.111 -0.4658  0.2998  0.3613
 5349TIP3   OH237537   0.176   4.366  16.431 -0.4934  0.1416 -0.4019
 5349TIP3    H137538   0.146   4.409  16.512  0.2520 -0.0169 -0.0408
 5349TIP3    H237539   0.218   4.286  16.460 -1.1141 -0.4185 -1.0277
 5350TIP3   OH237540   5.228   2.030  13.432 -0.1797  0.0782 -0.2366
 5350TIP3    H137541   5.312   2.011  13.474  1.0018  1.0955 -2.0709
 5350TIP3    H237542   5.187   2.094  13.489  1.1402  0.9992 -0.3036
 5351TIP3   OH237543   6.625   6.049   1.286 -0.4398 -0.1781  0.0779
 5351TIP3    H137544   6.687   6.046   1.213  0.6274 -0.9861  1.0070
 5351TIP3    H237545   6.679   6.058   1.364 -1.4140 -1.9403  0.9889
 5352TIP3   OH237546   4.927   6.280  16.659 -0.2829  0.3367  0.1588
 5352TIP3    H137547   4.832   6.271  16.654 -0.1146 -1.0084 -1.2747
 5352TIP3    H237548   4.955   6.206  16.712  0.0313  0.1365 -0.2806
 5353TIP3   OH237549   4.320   4.694   1.068 -0.2771 -0.6187  0.2226
 5353TIP3    H137550   4.341   4.786   1.082 -0.6400 -0.3910 -0.6466
 5353TIP3    H237551   4.227   4.694   1.045  0.0794 -1.0232 -1.3159
 5354TIP3   OH237552   3.912   5.106   6.093  0.2060  0.0153  0.1714
 5354TIP3    H137553   3.844   5.173   6.079  1.1391  0.9064 -0.1161
 5354TIP3    H237554   3.886   5.033   6.036 -0.3301  0.4856 -0.1866
 5355TIP3   OH237555   2.491   0.972   5.614  0.1899 -0.1869 -0.3412
 5355TIP3    H137556   2.567   0.982   5.558 -0.2872 -0.2667 -1.0153
 5355TIP3    H237557   2.418   0.959   5.553 -0.1398 -1.5850  0.3252
 5356TIP3   OH237558   2.531   4.683   0.509  0.5221  0.6024  0.0028
 5356TIP3    H137559   2.492   4.655   0.426  0.4579  0.9419 -0.0810
 5356TIP3    H237560   2.558   4.601   0.551 -0.7211  0.3177  0.2692
 5357TIP3   OH237561   5.011   2.779  17.119 -0.1929  0.2430 -0.1849
 5357TIP3    H137562   5.064   2.815  17.190 -0.6499 -0.3042  0.4334
 5357TIP3    H237563   4.926   2.821  17.128 -0.1447  0.4313 -0.6169
 5358TIP3   OH237564   0.223   5.984   5.471 -0.0099 -0.5145  0.1688
 5358TIP3    H137565   0.168   5.974   5.548  0.6810  1.0011  0.8741
 5358TIP3    H237566   0.162   5.996   5.399 -0.6441 -1.4338  0.5359
 5359TIP3   OH237567   3.167   4.924  15.531 -0.2531 -0.6392 -0.3809
 5359TIP3    H137568   3.247   4.931  15.477 -1.0368 -0.5435 -1.5477
 5359TIP3    H237569   3.194   4.874  15.607  0.7965 -1.0903 -1.0341
 5360TIP3   OH237570   3.128   4.176   6.471  0.8385  0.4335  0.3349
 5360TIP3    H137571   3.212   4.214   6.445  0.1873  1.7724  0.1716
 5360TIP3    H237572   3.152   4.094   6.514  2.1913  0.4489 -0.3575
 5361TIP3   OH237573   0.054   4.790   3.004 -0.5578  0.1453  0.3543
 5361TIP3    H137574   0.134   4.822   2.961  0.8127 -1.4921  1.5832
 5361TIP3    H237575   0.035   4.707   2.961 -0.6096 -0.2952  1.2045
 5362TIP3   OH237576   6.817   2.481  10.557  0.7101 -0.4195  0.2555
 5362TIP3    H137577   6.836   2.423  10.630 -0.2009 -0.3675  0.5421
 5362TIP3    H237578   6.722   2.478  10.548  0.8173 -0.4853 -0.9790
 5363TIP3   OH237579   3.732   0.616   4.784  0.1519 -0.8995 -0.0083
 5363TIP3    H137580   3.820   0.598   4.818 -0.1781 -1.6243  0.4726
 5363TIP3    H237581   3.748   0.662   4.701  0.9798 -0.7578  0.2211
 5364TIP3   OH237582   0.951   3.510   1.916 -0.4209  0.7755 -0.4858
 5364TIP3    H137583   0.906   3.467   1.988  1.6623 -0.3421  0.1826
 5364TIP3    H237584   0.893   3.499   1.840 -1.2355 -0.6592  0.3411
 5365TIP3   OH237585   3.815   3.430  16.122 -0.4575 -0.3325  0.2718
 5365TIP3    H137586   3.904   3.408  16.149 -0.2849 -1.4946 -1.2151
 5365TIP3    H237587   3.824   3.509  16.070 -0.4252  0.1498  1.0078
 5366TIP3   OH237588   3.045   0.175   0.025  0.1303 -0.6375 -0.1725
 5366TIP3    H137589   3.003   0.122   0.093 -0.1185 -1.7901 -1.2192
 5366TIP3    H237590   3.060   0.115  -0.047  0.7413  0.4983 -1.0121
 5367TIP3   OH237591   2.452   6.505   5.806  0.6090  0.2895  0.0642
 5367TIP3    H137592   2.494   6.589   5.826  2.2519  0.1091 -2.4547
 5367TIP3    H237593   2.518   6.456   5.757 -1.5106 -1.1572 -1.4209
 5368TIP3   OH237594   4.271   2.267  15.468  0.2052 -0.4774 -0.2435
 5368TIP3    H137595   4.286   2.332  15.399 -0.6580  2.6701  2.3545
 5368TIP3    H237596   4.189   2.225  15.444  0.9649 -0.9370 -2.1741
 5369TIP3   OH237597   3.254   4.888  11.460  0.6475  0.2979  0.3005
 5369TIP3    H137598   3.335   4.838  11.459  0.2872 -0.3090  1.0025
 5369TIP3    H237599   3.263   4.946  11.536 -0.1213 -0.6910  1.1566
 5370TIP3   OH237600   2.677   4.328  16.532 -0.0517  0.3269 -0.1743
 5370TIP3    H137601   2.653   4.282  16.613  2.7318  1.5589  1.4004
 5370TIP3    H237602   2.652   4.267  16.462 -2.1430 -0.9259  1.5811
 5371TIP3   OH237603   6.441   6.800   5.982  0.4763 -0.1295  0.6208
 5371TIP3    H137604   6.465   6.760   5.898 -2.2553 -0.1876 -0.2008
 5371TIP3    H237605   6.470   6.737   6.048 -2.1092 -2.6842 -0.5729
 5372TIP3   OH237606   4.920   4.370   1.043 -0.0668  0.1120  0.2333
 5372TIP3    H137607   4.835   4.329   1.056 -0.7145  1.2112 -0.4276
 5372TIP3    H237608   4.975   4.336   1.113 -0.6397 -1.7175 -0.1857
 5373TIP3   OH237609   6.059   1.217   3.803 -0.3988  0.0287 -0.0367
 5373TIP3    H137610   6.025   1.301   3.836  0.0686 -0.6437  2.2480
 5373TIP3    H237611   5.988   1.155   3.819  0.4998 -0.6511  1.3222
 5374TIP3   OH237612   4.529   2.938  16.395  0.2887 -0.0993  0.1174
 5374TIP3    H137613   4.599   3.001  16.378  0.7216 -0.4223  0.6746
 5374TIP3    H237614   4.572   2.853  16.392 -0.4820 -0.4526 -1.6424
 5375TIP3   OH237615   1.469   0.386  11.194 -0.4810 -0.1607 -0.2248
 5375TIP3    H137616   1.463   0.410  11.101 -0.4584  0.1175 -0.1512
 5375TIP3    H237617   1.563   0.377  11.211 -0.4087  1.2491  0.1543
 5376TIP3   OH237618   0.765   1.026  16.728  0.0559 -0.4842  0.5201
 5376TIP3    H137619   0.798   0.937  16.712  1.9045 -0.1440  2.2878
 5376TIP3    H237620   0.697   1.015  16.795 -1.0852 -0.7599 -0.6467
 5377TIP3   OH237621   1.367   0.505  13.171 -0.6096  0.1175 -0.5577
 5377TIP3    H137622   1.321   0.588  13.169  0.4947  0.7266 -1.5936
 5377TIP3    H237623   1.415   0.502  13.088  0.9681 -0.6247  0.3454
 5378TIP3   OH237624   5.606   3.717   0.607 -0.3728 -0.1583  0.1117
 5378TIP3    H137625   5.579   3.637   0.561 -0.3140  0.1998 -0.5473
 5378TIP3    H237626   5.692   3.738   0.570 -1.7674  2.0179 -2.0538
 5379TIP3   OH237627   4.658   4.010   3.082 -0.4111  0.2409  0.1058
 5379TIP3    H137628   4.658   4.102   3.109  1.9427  0.2096  0.2881
 5379TIP3    H237629   4.586   3.971   3.131  0.7622  1.2270  2.6784
 5380TIP3   OH237630   5.736   3.245  11.700 -0.2118  0.2925  0.2058
 5380TIP3    H137631   5.821   3.209  11.674 -0.6914 -0.5091 -0.2427
 5380TIP3    H237632   5.725   3.322  11.644  0.7360  1.0757  1.0533
 5381TIP3   OH237633   1.566   3.263  15.443 -0.9329  0.3268 -0.1097
 5381TIP3    H137634   1.537   3.180  15.481 -0.3960 -0.0989 -0.6111
 5381TIP3    H237635   1.485   3.306  15.415 -1.0385 -1.6894 -3.2327
 5382TIP3   OH237636   2.965   0.595  11.829  0.5464  0.3308 -0.2904
 5382TIP3    H137637   2.925   0.671  11.786  1.4824  0.6685 -0.5646
 5382TIP3    H237638   2.896   0.528  11.827 -0.1183  1.0097 -0.4805
 5383TIP3   OH237639   5.129   2.038   2.387 -0.1139  0.4718 -0.1773
 5383TIP3    H137640   5.201   2.005   2.334  0.9879  2.9845 -0.2983
 5383TIP3    H237641   5.069   2.079   2.324 -1.0744 -0.5408  0.0534
 5384TIP3   OH237642   4.159   3.427  16.758  0.0300  0.0220 -0.2361
 5384TIP3    H137643   4.253   3.421  16.740  0.1906  0.0462  0.5521
 5384TIP3    H237644   4.120   3.359  16.705  0.6660 -0.9691  0.5514
 5385TIP3   OH237645   6.538   4.413  12.735  0.0827  0.3128  0.8387
 5385TIP3    H137646   6.628   4.380  12.727 -0.8564 -1.8185 -1.4847
 5385TIP3    H237647   6.507   4.420  12.645 -1.9379  1.5056  1.5915
 5386TIP3   OH237648   0.658   1.054   6.234 -0.0005  0.1225  0.1913
 5386TIP3    H137649   0.695   0.981   6.284 -0.5105  0.2035  0.6925
 5386TIP3    H237650   0.613   1.107   6.300  0.3633  0.8824 -0.1773
 5387TIP3   OH237651   5.796   4.205  13.983  0.4573 -0.1101  0.2371
 5387TIP3    H137652   5.702   4.200  13.998  0.2933  0.0791 -0.6721
 5387TIP3    H237653   5.833   4.235  14.066 -0.3326  0.3123  0.4342
 5388TIP3   OH237654   1.433   3.883  13.119  0.7952  0.2381  0.1338
 5388TIP3    H137655   1.525   3.858  13.126  0.6330 -0.3935  0.0360
 5388TIP3    H237656   1.422   3.954  13.183  0.5842 -1.9032  2.5698
 5389TIP3   OH237657   4.305   6.022   6.580 -0.1032 -0.5690 -0.2744
 5389TIP3    H137658   4.213   6.045   6.587  0.3642  1.4359 -0.5361
 5389TIP3    H237659   4.351   6.105   6.574  1.6165 -1.5655 -1.5387
 5390TIP3   OH237660   5.482   4.974  11.481  0.3842 -0.6777  0.7469
 5390TIP3    H137661   5.445   4.910  11.419  2.2759 -0.9753 -0.1075
 5390TIP3    H237662   5.471   4.934  11.567 -2.3104 -0.2487  0.6690
 5391TIP3   OH237663   0.060   5.188   3.776 -0.3674 -0.0360  0.1457
 5391TIP3    H137664  -0.026   5.204   3.816 -0.8938  0.1444 -1.0288
 5391TIP3    H237665   0.118   5.173   3.850 -0.7926  2.7560  1.1126
 5392TIP3   OH237666   5.217   5.739   4.670  0.1258 -0.1519 -0.1257
 5392TIP3    H137667   5.305   5.747   4.635  0.3180 -0.2037  0.3350
 5392TIP3    H237668   5.211   5.648   4.699 -0.4060 -0.4065 -1.0227
 5393TIP3   OH237669   5.864   3.395  11.252  0.2348 -0.8093 -0.3297
 5393TIP3    H137670   5.901   3.325  11.305 -0.8226 -2.5985 -1.8893
 5393TIP3    H237671   5.908   3.388  11.167 -0.3885 -0.0438 -0.7262
 5394TIP3   OH237672   2.332   4.336  12.548 -0.3912 -0.3947 -0.1607
 5394TIP3    H137673   2.276   4.321  12.624 -0.5051 -1.4637 -0.4473
 5394TIP3    H237674   2.384   4.413  12.572 -2.2817  0.8879 -0.0771
 5395TIP3   OH237675   3.910   2.785   5.604  0.1887 -0.1660  0.5145
 5395TIP3    H137676   3.872   2.861   5.558  1.0304  0.2409  0.4869
 5395TIP3    H237677   3.838   2.754   5.659 -0.2628  0.4716  0.3079
 5396TIP3   OH237678   3.213   5.988  14.207  0.4335 -0.4717 -0.0573
 5396TIP3    H137679   3.217   5.894  14.192  0.2889 -0.7014  1.2845
 5396TIP3    H237680   3.120   6.009  14.210  0.4215 -0.6502  1.6939
 5397TIP3   OH237681   6.176   4.449  11.567 -0.0560 -0.1449  0.0031
 5397TIP3    H137682   6.249   4.396  11.535 -1.3067 -0.0131 -3.2596
 5397TIP3    H237683   6.202   4.539  11.548  0.5321  0.2109  2.3202
 5398TIP3   OH237684   2.017   4.331   5.250 -0.0271 -0.3308 -0.1193
 5398TIP3    H137685   1.967   4.408   5.276  1.5049  0.6335  0.0712
 5398TIP3    H237686   2.086   4.323   5.315  1.2160 -0.4928 -1.4162
 5399TIP3   OH237687   3.163   1.919   1.544  0.0122  0.4322  0.3592
 5399TIP3    H137688   3.091   1.873   1.501  0.9871 -0.2853 -0.5269
 5399TIP3    H237689   3.225   1.850   1.567  1.6039  1.3214 -1.1765
 5400TIP3   OH237690   5.414   1.881  13.605  0.1036  0.0710  0.0929
 5400TIP3    H137691   5.425   1.875  13.699 -0.3685  1.0040  0.2185
 5400TIP3    H237692   5.358   1.806  13.582  0.6042 -0.4187  0.4840
 5401TIP3   OH237693   3.625   2.802  11.330  0.1029  0.6826  0.4000
 5401TIP3    H137694   3.639   2.735  11.263  0.8696  1.2978 -0.0713
 5401TIP3    H237695   3.708   2.850  11.333 -0.3944  1.5224  0.8349
 5402TIP3   OH237696   4.832   0.371  12.195 -0.2912  0.1542  0.2178
 5402TIP3    H137697   4.822   0.419  12.112 -0.2512  1.1250  0.7694
 5402TIP3    H237698   4.743   0.350  12.221 -0.2812 -0.6327 -0.3354
 5403TIP3   OH237699   6.194   5.207   4.647  0.2718 -0.6021 -0.6745
 5403TIP3    H137700   6.267   5.251   4.604  1.2382  1.2072  2.6389
 5403TIP3    H237701   6.234   5.153   4.715 -1.3274 -1.2628 -0.2157
 5404TIP3   OH237702   3.627   1.863  13.409 -0.0055 -0.1651 -0.2466
 5404TIP3    H137703   3.569   1.875  13.484 -2.1744 -0.8668 -1.7381
 5404TIP3    H237704   3.708   1.909  13.432 -0.6100 -0.4140  2.5057
 5405TIP3   OH237705   2.993   0.886   4.721 -0.1096 -0.5950  0.3627
 5405TIP3    H137706   3.075   0.858   4.679 -0.3087  0.0494 -0.4634
 5405TIP3    H237707   2.930   0.817   4.699  0.3918 -1.4717  1.6272
 5406TIP3   OH237708   0.413   0.052   2.715 -0.2239 -0.2103  0.0171
 5406TIP3    H137709   0.423  -0.043   2.711  0.1798 -0.2030  0.7754
 5406TIP3    H237710   0.443   0.076   2.802  0.4075  0.7077 -0.4417
 5407TIP3   OH237711   1.062   3.869  11.755  0.0707  0.1186  0.0149
 5407TIP3    H137712   1.117   3.864  11.833 -1.5972  1.0466  1.2905
 5407TIP3    H237713   1.100   3.941  11.704  0.2113  0.5753  0.7465
 5408TIP3   OH237714   0.425   4.679   4.075  0.1639 -0.3359 -0.1125
 5408TIP3    H137715   0.385   4.622   4.140 -1.1818  1.3126  0.5373
 5408TIP3    H237716   0.423   4.628   3.994 -1.7577 -0.9005  0.2772
 5409TIP3   OH237717   0.661   6.358   2.716 -0.1370  0.1553 -0.2025
 5409TIP3    H137718   0.672   6.296   2.788  1.0662  1.0030  0.3656
 5409TIP3    H237719   0.749   6.370   2.681 -0.3450  1.5251 -0.2998
 5410TIP3   OH237720   3.164   6.222  13.974 -0.2289  0.0534  0.1143
 5410TIP3    H137721   3.155   6.315  13.995  0.0901  0.3425 -1.0171
 5410TIP3    H237722   3.078   6.185  13.994 -1.2104  1.1047 -1.9758
 5411TIP3   OH237723   5.200   1.622  11.554  0.3551 -0.7933 -0.4141
 5411TIP3    H137724   5.116   1.596  11.592  1.0903 -1.0761  1.0292
 5411TIP3    H237725   5.185   1.710  11.520 -0.2286 -0.4140  0.8094
 5412TIP3   OH237726   4.034   0.532  16.249  0.6982 -0.3845 -0.0234
 5412TIP3    H137727   3.943   0.510  16.226  0.0595  0.7004  1.3691
 5412TIP3    H237728   4.076   0.549  16.165 -0.7636  0.4343 -0.6234
 5413TIP3   OH237729   5.080   2.576  11.296 -0.0431 -0.1884 -0.0055
 5413TIP3    H137730   5.057   2.499  11.347  0.2972  0.8661  1.7989
 5413TIP3    H237731   5.052   2.556  11.206 -0.6370 -2.0770  0.5931
 5414TIP3   OH237732   6.162   5.799  13.541 -0.0947 -0.2729 -0.0692
 5414TIP3    H137733   6.164   5.793  13.636  0.3182 -0.3884 -0.0868
 5414TIP3    H237734   6.084   5.851  13.522 -0.3725 -0.5410  0.3171
 5415TIP3   OH237735   5.188   6.598   2.016  0.0453  0.0053  0.4955
 5415TIP3    H137736   5.271   6.603   1.969  0.2726 -0.4064  0.8424
 5415TIP3    H237737   5.121   6.608   1.948  0.3768  1.2156  0.3289
 5416TIP3   OH237738   6.021   5.416  11.424 -0.4440 -0.0081 -0.8116
 5416TIP3    H137739   5.948   5.355  11.411  0.8151 -1.4905 -1.1133
 5416TIP3    H237740   6.070   5.411  11.342 -0.3894  1.5304 -0.8794
 5417TIP3   OH237741   1.438   5.081  14.081 -0.1175 -0.2496  0.2498
 5417TIP3    H137742   1.400   5.100  14.167 -0.4613 -0.5988  0.1788
 5417TIP3    H237743   1.392   5.002  14.052 -0.2578  0.0761 -0.4099
 5418TIP3   OH237744   1.844   2.001  13.061 -0.3647  0.5819 -1.1116
 5418TIP3    H137745   1.808   2.015  12.974 -0.6823 -0.1043 -1.0895
 5418TIP3    H237746   1.936   2.026  13.053 -0.3150  0.2143 -1.7220
 5419TIP3   OH237747   5.682   4.683   1.649  0.3792  0.1716 -0.4738
 5419TIP3    H137748   5.745   4.665   1.579 -0.2331  1.1032 -1.2678
 5419TIP3    H237749   5.649   4.771   1.631 -0.5545  0.0167  0.3928
 5420TIP3   OH237750   2.759   2.976  12.739  0.0054 -0.0465  0.2634
 5420TIP3    H137751   2.670   2.943  12.730 -0.4176  1.2123 -0.2901
 5420TIP3    H237752   2.815   2.900  12.724 -0.9637 -0.7047 -0.0216
 5421TIP3   OH237753   4.401   6.345   5.462 -0.1684 -0.4441 -0.0538
 5421TIP3    H137754   4.459   6.373   5.533 -1.2660 -0.4091  0.8640
 5421TIP3    H237755   4.387   6.424   5.410  0.2961 -0.3610 -0.0563
 5422TIP3   OH237756   3.188   0.954   1.272  0.3367  0.5834  0.0238
 5422TIP3    H137757   3.202   0.961   1.367 -0.9944 -0.7917  0.3454
 5422TIP3    H237758   3.149   1.038   1.248 -0.8835  0.3261  1.0133
 5423TIP3   OH237759   0.232   0.015   0.082 -0.0230  0.2557  0.0633
 5423TIP3    H137760   0.303   0.039   0.023 -0.4985  0.4400 -0.4293
 5423TIP3    H237761   0.255  -0.073   0.112  0.7442  0.5615  0.4102
 5424TIP3   OH237762   3.976   1.455  16.944  0.4079  0.3890 -0.1795
 5424TIP3    H137763   3.976   1.362  16.965  0.7956  0.5451  0.5172
 5424TIP3    H237764   4.062   1.487  16.974 -0.7045  1.4927  1.9192
 5425TIP3   OH237765   5.768   1.224   6.773  0.2420  0.4024 -0.1179
 5425TIP3    H137766   5.841   1.220   6.711 -1.0229 -0.3512 -1.5924
 5425TIP3    H237767   5.702   1.277   6.728 -0.4144  0.4331  0.8753
 5426TIP3   OH237768   1.433   3.851   4.490  0.0638 -0.0164 -0.6771
 5426TIP3    H137769   1.525   3.824   4.496 -0.3682 -1.1531  1.3645
 5426TIP3    H237770   1.428   3.900   4.408  2.5301  0.2074 -0.7505
 5427TIP3   OH237771   3.872   3.688  16.047 -0.6916 -0.6408  0.6742
 5427TIP3    H137772   3.819   3.720  16.120 -0.3841  0.4767  0.4162
 5427TIP3    H237773   3.901   3.767  16.002  0.6672 -1.2636  0.4409
 5428TIP3   OH237774   6.746   5.769   0.596  0.0975  0.4391  0.0262
 5428TIP3    H137775   6.777   5.719   0.671  0.8754  1.1013  0.1518
 5428TIP3    H237776   6.803   5.846   0.593 -0.9067  1.1710 -0.3345
 5429TIP3   OH237777   5.328   2.381   3.655  0.6842  0.3023  0.2250
 5429TIP3    H137778   5.282   2.463   3.669  0.8428  0.3540  0.4556
 5429TIP3    H237779   5.365   2.388   3.567  0.1650  0.2155 -0.0026
 5430TIP3   OH237780   5.377   2.228   2.502  0.3555 -0.0287  0.3350
 5430TIP3    H137781   5.437   2.233   2.576  1.4816  0.8244 -0.6213
 5430TIP3    H237782   5.307   2.169   2.532  0.4910  0.7559  2.2749
 5431TIP3   OH237783   1.361   2.229  11.397 -0.7598 -0.1609 -0.2200
 5431TIP3    H137784   1.312   2.242  11.478 -1.6851 -0.5849 -0.7058
 5431TIP3    H237785   1.302   2.180  11.341  1.2347 -3.0767  0.1548
 5432TIP3   OH237786   1.047   1.247   4.881 -0.0757  0.3760  0.3675
 5432TIP3    H137787   1.012   1.235   4.969 -0.7279  1.5386  0.2707
 5432TIP3    H237788   1.116   1.312   4.892 -0.8964  1.3351 -0.1617
 5433TIP3   OH237789   4.096   2.452  16.212  1.4588 -0.3988  0.3440
 5433TIP3    H137790   4.088   2.547  16.216  0.6724 -0.4497  0.0156
 5433TIP3    H237791   4.116   2.433  16.120  0.4168 -0.6315  0.1529
 5434TIP3   OH237792   6.805   0.709   3.419 -0.3960 -0.4461 -0.5944
 5434TIP3    H137793   6.726   0.669   3.382 -1.4742  1.4344 -0.4043
 5434TIP3    H237794   6.794   0.803   3.403  1.6938 -0.1241 -0.3348
 5435TIP3   OH237795   4.754   6.548   3.762  0.3995 -0.2489 -0.7632
 5435TIP3    H137796   4.827   6.487   3.747  0.3137 -1.0751  1.9318
 5435TIP3    H237797   4.781   6.600   3.838 -1.8393 -0.6456  0.3431
 5436TIP3   OH237798   3.306   3.487   2.676  0.1317  0.3155  0.2936
 5436TIP3    H137799   3.338   3.411   2.725  0.5184 -0.1400 -0.6575
 5436TIP3    H237800   3.274   3.451   2.594  1.1637  1.2806 -0.5449
 5437TIP3   OH237801   2.923   4.845  17.150 -0.0439  0.1203 -0.1887
 5437TIP3    H137802   2.847   4.848  17.208  0.4719  1.8407  0.4414
 5437TIP3    H237803   2.916   4.761  17.105 -1.4906 -0.3985  0.9676
 5438TIP3   OH237804   2.712   2.113   4.168  0.1266 -0.1880  0.2138
 5438TIP3    H137805   2.713   2.169   4.091  0.9253  1.5047  1.4420
 5438TIP3    H237806   2.796   2.127   4.210 -0.3854 -0.9319  1.5310
 5439TIP3   OH237807   4.903   5.115  11.755 -0.1270  0.4915  0.1158
 5439TIP3    H137808   4.926   5.105  11.847 -0.7338 -0.0034  0.2113
 5439TIP3    H237809   4.872   5.029  11.728  1.0531  0.3455 -0.8310
 5440TIP3   OH237810   0.101   3.128  12.236 -0.4309 -0.0883  0.3880
 5440TIP3    H137811   0.036   3.166  12.176  0.1871 -0.1454 -0.3170
 5440TIP3    H237812   0.109   3.037  12.209 -1.0310 -0.4218  1.3250
 5441TIP3   OH237813   0.117   3.453   1.525  0.2897  0.0695 -0.5534
 5441TIP3    H137814   0.032   3.409   1.535  1.5178 -2.8654 -2.3009
 5441TIP3    H237815   0.112   3.496   1.440  0.0501  1.0735 -0.0311
 5442TIP3   OH237816   0.664   1.978  12.279  0.2967  0.2230  0.6120
 5442TIP3    H137817   0.576   1.945  12.297  0.1932 -0.0886 -0.4116
 5442TIP3    H237818   0.721   1.902  12.290 -0.2505 -1.0662 -4.3937
 5443TIP3   OH237819   1.808   5.674  11.568  0.5938  0.0583 -0.0378
 5443TIP3    H137820   1.736   5.667  11.632  0.3055 -0.3768 -0.4117
 5443TIP3    H237821   1.888   5.668  11.622  0.3536 -0.7101  0.2485
 5444TIP3   OH237822   2.638   1.580  16.666  0.4122 -0.0142  0.1793
 5444TIP3    H137823   2.592   1.657  16.630 -0.1187 -0.4226 -0.0200
 5444TIP3    H237824   2.568   1.523  16.698  0.8620  0.2551  1.7154
 5445TIP3   OH237825   5.262   6.261  11.808 -0.5396  0.4666 -0.1030
 5445TIP3    H137826   5.185   6.260  11.750 -0.1140 -0.1730 -0.6682
 5445TIP3    H237827   5.280   6.168  11.823  1.0284  0.5800 -1.1869
 5446TIP3   OH237828   4.065   5.982  12.327 -0.0495  0.2761 -0.1568
 5446TIP3    H137829   4.012   5.981  12.247 -0.2612  3.8148 -0.1496
 5446TIP3    H237830   4.150   6.016  12.299  1.0949 -1.9805  0.4903
 5447TIP3   OH237831   6.524   2.620  16.378 -0.0258  0.5663  0.4844
 5447TIP3    H137832   6.578   2.687  16.338  1.9246 -0.1420  1.8854
 5447TIP3    H237833   6.487   2.572  16.303  2.9112 -0.2260 -0.5186
 5448TIP3   OH237834   1.026   5.048  16.497 -0.0857  0.0996  0.3479
 5448TIP3    H137835   0.964   5.119  16.515  1.4733  1.5854  0.0885
 5448TIP3    H237836   0.972   4.976  16.465 -1.5472  1.7896 -1.1099
 5449TIP3   OH237837   5.299   1.151   3.832 -0.2238 -0.5629 -0.3427
 5449TIP3    H137838   5.291   1.217   3.763 -0.9813  0.7893  0.9926
 5449TIP3    H237839   5.226   1.091   3.817  0.0103 -0.6474 -1.1201
 5450TIP3   OH237840   4.800   0.854  11.905 -0.6954  0.4589 -0.1957
 5450TIP3    H137841   4.810   0.767  11.865  1.5440  0.5750  0.0375
 5450TIP3    H237842   4.717   0.849  11.952 -1.5990 -0.8767 -1.8614
 5451TIP3   OH237843   2.497   4.449  13.142  0.5090  0.0759 -0.3209
 5451TIP3    H137844   2.502   4.468  13.049  0.3338 -3.0509 -1.0454
 5451TIP3    H237845   2.403   4.437  13.159  0.6621 -1.0136 -0.1562
 5452TIP3   OH237846   3.207   4.715   2.036 -0.0628  0.2331 -0.3823
 5452TIP3    H137847   3.274   4.648   2.019 -2.1351 -1.7928 -0.7355
 5452TIP3    H237848   3.242   4.766   2.109  1.6952 -1.0376 -0.3068
 5453TIP3   OH237849   2.562   2.101   0.707  0.0187  0.4192  0.2625
 5453TIP3    H137850   2.655   2.105   0.728  0.5103 -0.8005 -1.5121
 5453TIP3    H237851   2.540   2.190   0.677  0.9477  0.3780 -0.5769
 5454TIP3   OH237852   4.999   0.695   6.329  0.2097  0.6698  0.1654
 5454TIP3    H137853   4.969   0.710   6.419  0.6699  0.4118  0.3618
 5454TIP3    H237854   4.920   0.705   6.276 -0.2196  0.0406  0.6777
 5455TIP3   OH237855   0.513   0.777   1.232 -0.2916  0.5784  0.2206
 5455TIP3    H137856   0.486   0.775   1.323 -1.8995 -1.2979 -0.2581
 5455TIP3    H237857   0.457   0.712   1.189  0.5320  1.3304 -2.0653
 5456TIP3   OH237858   5.293   4.110   5.401  0.3579  0.2239  0.0420
 5456TIP3    H137859   5.349   4.044   5.360  0.5192  0.8062 -0.7078
 5456TIP3    H237860   5.355   4.174   5.437  0.1978  0.2445  0.2792
 5457TIP3   OH237861   3.289   4.997   1.447 -0.1711  0.4584 -0.1528
 5457TIP3    H137862   3.330   4.970   1.529 -3.1156  0.9385  1.5645
 5457TIP3    H237863   3.319   5.087   1.434  2.7120 -0.6126 -1.2632
 5458TIP3   OH237864   5.223   3.585   5.500  0.2715 -0.1792 -0.1752
 5458TIP3    H137865   5.136   3.563   5.467  1.0372 -2.4823 -0.7440
 5458TIP3    H237866   5.262   3.501   5.525  2.4312  0.7730 -0.1732
 5459TIP3   OH237867   2.402   5.826   0.822  0.4316  0.4498 -0.2170
 5459TIP3    H137868   2.444   5.839   0.907 -0.0488 -0.3539  0.1483
 5459TIP3    H237869   2.342   5.900   0.813 -0.0723  0.1263  0.4843
 5460TIP3   OH237870   1.547   5.077   4.401  0.4093  0.3468  0.0560
 5460TIP3    H137871   1.564   5.096   4.493 -0.0069  1.7062 -0.1356
 5460TIP3    H237872   1.628   5.100   4.356  0.8240 -0.8902  0.1414
 5461TIP3   OH237873   4.653   1.037   2.100 -0.0330 -0.2957 -0.5163
 5461TIP3    H137874   4.730   0.980   2.092  0.4503  0.3995 -0.9072
 5461TIP3    H237875   4.603   1.019   2.021  0.3252  0.1142 -0.8413
 5462TIP3   OH237876   6.449   1.844  11.505 -0.0911 -0.7495 -0.3408
 5462TIP3    H137877   6.400   1.893  11.438  1.0763  0.6173 -0.2024
 5462TIP3    H237878   6.534   1.828  11.465  0.7569  0.4330  0.9633
 5463TIP3   OH237879   3.198   2.484   3.949 -0.2788 -0.1446 -0.1931
 5463TIP3    H137880   3.212   2.420   3.879 -1.2350  0.3287 -0.8379
 5463TIP3    H237881   3.234   2.566   3.914  0.7190 -0.2698  0.5292
 5464TIP3   OH237882   4.362   5.484   5.297  0.1332 -1.0461  0.0329
 5464TIP3    H137883   4.293   5.538   5.258 -0.2795 -1.0709  0.7101
 5464TIP3    H237884   4.344   5.487   5.391 -0.4757 -3.1337  0.0109
 5465TIP3   OH237885   3.363   2.958  11.421  0.2917 -0.2191  0.0191
 5465TIP3    H137886   3.415   3.037  11.404  0.3801 -0.0522  1.0438
 5465TIP3    H237887   3.424   2.886  11.410  0.5642 -0.0639  0.5189
 5466TIP3   OH237888   4.744   3.372   1.056  0.0959  0.0105 -0.0003
 5466TIP3    H137889   4.677   3.440   1.058 -0.6025 -0.6719  0.2673
 5466TIP3    H237890   4.695   3.291   1.045  0.8719 -0.5118  0.3395
 5467TIP3   OH237891   1.494   1.179  11.889 -0.0521 -0.1217  0.3931
 5467TIP3    H137892   1.494   1.242  11.961 -2.4966  1.2306 -0.7633
 5467TIP3    H237893   1.412   1.130  11.900  2.1937 -3.8395  1.8394
 5468TIP3   OH237894   6.566   3.904   1.386 -0.0584  0.3949  0.4738
 5468TIP3    H137895   6.493   3.862   1.340  1.1151 -2.0708  0.7559
 5468TIP3    H237896   6.534   3.918   1.475 -0.4509 -0.0026  0.3971
 5469TIP3   OH237897   2.769   0.001   1.970  0.6715 -0.2202 -0.5211
 5469TIP3    H137898   2.823  -0.004   2.050  2.6788  0.8664 -1.7763
 5469TIP3    H237899   2.809  -0.062   1.911  0.9437  0.9995 -1.6627
 5470TIP3   OH237900   6.225   5.103   2.160 -0.0456  0.0964  0.4046
 5470TIP3    H137901   6.254   5.058   2.239  1.0411 -2.1589 -1.2008
 5470TIP3    H237902   6.280   5.180   2.155  2.3505 -1.5787  0.0218
 5471TIP3   OH237903   2.623   5.595  16.136 -0.5872  0.2676  0.2059
 5471TIP3    H137904   2.655   5.587  16.046 -0.7553  2.5733 -0.1066
 5471TIP3    H237905   2.604   5.688  16.146 -0.8117  0.0058  2.5609
 5472TIP3   OH237906   6.327   0.693   3.859 -0.3303 -0.1273 -0.2153
 5472TIP3    H137907   6.336   0.752   3.933 -0.6563 -0.7240  0.2960
 5472TIP3    H237908   6.261   0.630   3.886 -0.9364  0.0423 -1.2627
 5473TIP3   OH237909   3.140   5.377  13.100  0.2767  0.2331  0.3059
 5473TIP3    H137910   3.130   5.281  13.104 -0.6386  0.3094 -0.0635
 5473TIP3    H237911   3.094   5.409  13.177 -2.4789  0.5904 -1.4247
 5474TIP3   OH237912   3.942   1.422  11.306  0.1278  0.0950  0.5571
 5474TIP3    H137913   4.000   1.462  11.240 -0.6608  1.4092  0.6436
 5474TIP3    H237914   3.975   1.333  11.316  0.2367 -0.1599 -1.6829
 5475TIP3   OH237915   2.082   0.556  15.734  0.9531  0.0253  0.1384
 5475TIP3    H137916   2.173   0.529  15.743  0.8939 -0.5697 -0.9895
 5475TIP3    H237917   2.035   0.508  15.802  1.5405  0.6404  0.9836
 5476TIP3   OH237918   4.100   0.270   1.125 -0.3134  0.0492 -0.4383
 5476TIP3    H137919   4.012   0.264   1.088 -1.6199  1.8683  2.2147
 5476TIP3    H237920   4.121   0.364   1.123 -0.4038  0.2147  3.1951
 5477TIP3   OH237921   6.586   1.964  11.781 -0.2320 -0.1505  0.3610
 5477TIP3    H137922   6.611   2.050  11.747 -1.2238  0.1654  0.3959
 5477TIP3    H237923   6.583   1.908  11.703  0.1725 -0.0969  0.3032
 5478TIP3   OH237924   0.322   6.660   1.417  0.0390 -0.6060 -0.4406
 5478TIP3    H137925   0.247   6.601   1.402  0.6152 -1.8599  1.4983
 5478TIP3    H237926   0.365   6.666   1.332 -2.5004  0.4881 -1.7003
 5479TIP3   OH237927   6.204   5.158  12.771 -0.6224  0.4025  0.3379
 5479TIP3    H137928   6.150   5.229  12.808 -0.1816  0.1185  1.5505
 5479TIP3    H237929   6.176   5.151  12.680  0.9126  3.6724 -0.4458
 5480TIP3   OH237930   3.477   2.767  13.192 -0.2286  0.0184 -0.0855
 5480TIP3    H137931   3.563   2.776  13.233 -0.6574  0.7477  0.6670
 5480TIP3    H237932   3.429   2.706  13.248 -0.8830  1.1729  0.6213
 5481TIP3   OH237933   5.945   1.306  13.396  0.3283  0.6534 -0.3249
 5481TIP3    H137934   5.975   1.243  13.331 -0.0655  0.1271  0.0039
 5481TIP3    H237935   5.966   1.392  13.357  2.2560  0.3164 -0.1035
 5482TIP3   OH237936   2.173   3.768  12.556 -0.2022 -0.5955  0.1003
 5482TIP3    H137937   2.247   3.795  12.611 -1.2019 -0.1921  1.2672
 5482TIP3    H237938   2.176   3.827  12.481  0.4363 -0.3390  0.3197
 5483TIP3   OH237939   5.357   2.324   6.016  0.2000  0.2667  0.4392
 5483TIP3    H137940   5.396   2.294   6.098 -0.2395 -1.7181 -0.0653
 5483TIP3    H237941   5.263   2.312   6.027 -0.1362  2.7860  0.7370
 5484TIP3   OH237942   6.157   0.910   2.407 -0.1668 -0.0514 -0.3212
 5484TIP3    H137943   6.252   0.911   2.418 -0.1463 -0.1591 -0.4975
 5484TIP3    H237944   6.125   0.853   2.477 -0.2708  1.7045  1.1090
 5485TIP3   OH237945   6.268   2.093   5.200 -0.6859 -0.3487  0.2065
 5485TIP3    H137946   6.177   2.124   5.198 -0.3190  0.7083 -0.2088
 5485TIP3    H237947   6.310   2.138   5.127  0.1313 -0.9736  0.2950
 5486TIP3   OH237948   1.144   1.431   0.985  0.1280 -0.5006  0.0126
 5486TIP3    H137949   1.110   1.354   0.939 -0.2884  0.1537 -0.7856
 5486TIP3    H237950   1.088   1.438   1.062 -1.0611  0.1081 -0.8934
 5487TIP3   OH237951   2.474   2.922  13.380  0.6012 -0.1449 -0.3021
 5487TIP3    H137952   2.554   2.922  13.433  1.8203 -1.7185 -2.0545
 5487TIP3    H237953   2.413   2.866  13.427  1.1306 -0.2833  0.2129
 5488TIP3   OH237954   2.900   6.239  14.123  0.1580 -1.0087 -0.0000
 5488TIP3    H137955   2.842   6.284  14.062 -0.9012 -1.1600  0.8839
 5488TIP3    H237956   2.877   6.274  14.209  0.5688 -1.9180  0.4938
 5489TIP3   OH237957   5.457   0.612  12.447 -0.1492 -0.0296 -0.4225
 5489TIP3    H137958   5.449   0.664  12.526  1.2106 -0.7437  0.2131
 5489TIP3    H237959   5.374   0.622  12.402 -1.0415  0.1590  1.2392
 5490TIP3   OH237960   1.353   3.048   5.141 -0.5049 -0.3672  0.1487
 5490TIP3    H137961   1.360   3.104   5.219 -0.6084 -0.2083  0.0449
 5490TIP3    H237962   1.379   2.962   5.171  1.4263  0.1084 -0.1160
 5491TIP3   OH237963   1.997   4.494   2.662  0.3274 -0.4275 -0.0497
 5491TIP3    H137964   2.074   4.468   2.713 -0.9249  0.7338  2.4967
 5491TIP3    H237965   1.981   4.585   2.687 -2.3098 -0.8745  0.0010
 5492TIP3   OH237966   4.669   5.419   2.383 -0.3455  0.0070 -0.2918
 5492TIP3    H137967   4.663   5.507   2.419  0.2672 -0.3297  0.6455
 5492TIP3    H237968   4.639   5.428   2.293 -0.0605  1.2140 -0.2719
 5493TIP3   OH237969   0.173   3.678  12.940  0.1037 -0.0700  0.1806
 5493TIP3    H137970   0.268   3.675  12.944  0.1845  1.3909 -0.1839
 5493TIP3    H237971   0.144   3.636  13.022  1.0210 -1.4316 -0.1779
 5494TIP3   OH237972   0.282   3.763  14.095 -0.1888 -0.5757 -0.2426
 5494TIP3    H137973   0.364   3.775  14.142  0.0080 -0.3299 -0.6409
 5494TIP3    H237974   0.277   3.838  14.035 -1.2302 -0.0115  0.5409
 5495TIP3   OH237975   2.906   2.386  15.483 -0.1613  0.2281  0.3302
 5495TIP3    H137976   2.822   2.379  15.527 -1.2742 -0.8408 -1.8931
 5495TIP3    H237977   2.914   2.478  15.459 -2.1262 -0.2323 -2.1687
 5496TIP3   OH237978   4.787   4.755   4.536 -0.0338  0.3695  0.4540
 5496TIP3    H137979   4.793   4.679   4.478 -2.4362  0.1007  0.4831
 5496TIP3    H237980   4.795   4.830   4.477 -0.0484  0.0905  0.0959
 5497TIP3   OH237981   3.365   2.028  16.965  0.3925  0.1212 -0.2390
 5497TIP3    H137982   3.422   1.977  17.023  1.6435  0.9515 -0.7171
 5497TIP3    H237983   3.354   1.972  16.888  2.2296  0.7754 -1.0079
 5498TIP3   OH237984   3.335   4.281  13.902 -0.0637  0.5755 -0.6319
 5498TIP3    H137985   3.341   4.219  13.975 -0.4894 -0.8709 -1.7867
 5498TIP3    H237986   3.279   4.351  13.935 -0.9004 -0.4500  0.1850
 5499TIP3   OH237987   5.184   4.568  12.700 -0.4243 -0.2693 -0.0750
 5499TIP3    H137988   5.275   4.597  12.700 -0.9281  1.3478 -0.0427
 5499TIP3    H237989   5.134   4.642  12.735 -1.8101 -0.9442 -0.5577
 5500TIP3   OH237990   0.749   4.093   5.212 -0.4087  0.1862  0.3565
 5500TIP3    H137991   0.762   4.094   5.117  0.0841  3.1681  0.4209
 5500TIP3    H237992   0.813   4.030   5.244  1.6256  1.4902 -1.0277
 5501TIP3   OH237993   6.679   1.228  12.736  0.1030 -0.1075 -0.4192
 5501TIP3    H137994   6.592   1.190  12.746 -0.3192  0.6103 -1.3814
 5501TIP3    H237995   6.713   1.232  12.825 -1.2487  0.5811  0.0721
 5502TIP3   OH237996   6.776   0.993  12.565  0.0523  0.3077  0.7834
 5502TIP3    H137997   6.726   1.074  12.554 -2.0326 -0.8165  1.7330
 5502TIP3    H237998   6.775   0.978  12.660  0.8675 -0.5698  0.6528
 5503TIP3   OH237999   6.060   5.650   0.610 -0.0841 -0.0103  0.5749
 5503TIP3    H138000   6.050   5.616   0.699  0.6707  0.2592  0.7693
 5503TIP3    H238001   6.098   5.577   0.561 -1.1543 -0.3934  0.2977
 5504TIP3   OH238002   3.393   4.237   0.561 -0.2791  0.4899  0.1246
 5504TIP3    H138003   3.457   4.183   0.514 -1.4040 -0.8735  0.1578
 5504TIP3    H238004   3.317   4.241   0.503 -1.0496  0.1856  1.1024
 5505TIP3   OH238005   6.276   2.907   5.245  1.1607  0.3726 -0.4623
 5505TIP3    H138006   6.222   2.985   5.231  3.2443  1.6278 -1.9417
 5505TIP3    H238007   6.347   2.937   5.301  0.6951 -1.0769  0.9113
 5506TIP3   OH238008   1.173   4.765   5.783 -0.0368  0.2202 -0.1708
 5506TIP3    H138009   1.173   4.696   5.849 -0.4911 -2.1896 -2.6291
 5506TIP3    H238010   1.252   4.816   5.802 -0.4652 -0.0104  2.5691
 5507TIP3   OH238011   0.407   5.226   1.627  0.0450 -0.3065 -0.3329
 5507TIP3    H138012   0.378   5.218   1.536  2.2170 -0.7152 -1.0242
 5507TIP3    H238013   0.492   5.182   1.628  0.3807  0.3630  1.7341
 5508TIP3   OH238014   6.652   4.497  14.680  0.8452  0.1000  0.4522
 5508TIP3    H138015   6.612   4.583  14.667 -2.2182 -1.1797  0.9740
 5508TIP3    H238016   6.703   4.482  14.600 -0.5448  1.3693 -0.7113
 5509TIP3   OH238017   2.381   6.206  15.940 -0.0559 -0.2681 -0.1991
 5509TIP3    H138018   2.444   6.234  15.873 -0.6600 -1.6100 -1.3729
 5509TIP3    H238019   2.435   6.174  16.012  0.6853 -2.6721 -1.7323
 5510TIP3   OH238020   3.824   4.639   4.285  0.4091  0.6699 -0.0971
 5510TIP3    H138021   3.893   4.699   4.311 -0.1042  0.9700  0.5848
 5510TIP3    H238022   3.754   4.653   4.349  1.0652 -2.0791  1.2878
 5511TIP3   OH238023   0.030   3.312   0.275 -0.4122 -0.1205  0.3044
 5511TIP3    H138024   0.076   3.247   0.221 -0.9788 -0.7695  0.5812
 5511TIP3    H238025   0.011   3.384   0.215  0.7322  0.0425  0.1298
 5512TIP3   OH238026   4.880   3.589  17.015  0.6663 -0.0753 -0.1514
 5512TIP3    H138027   4.821   3.597  17.091 -0.6768 -0.7131 -1.1139
 5512TIP3    H238028   4.958   3.547  17.050 -1.3894 -3.8231  0.1677
 5513TIP3   OH238029   2.337   1.289   0.609  0.4494  0.6678  0.7940
 5513TIP3    H138030   2.297   1.275   0.695 -0.9791  2.0943  0.3893
 5513TIP3    H238031   2.422   1.328   0.628  0.5475  0.0843  1.5882
 5514TIP3   OH238032   2.831   0.549   0.752 -0.4825 -0.4165 -0.2133
 5514TIP3    H138033   2.832   0.491   0.676  0.6929 -0.2598 -0.3215
 5514TIP3    H238034   2.738   0.563   0.770 -0.7707 -1.4617 -0.8506
 5515TIP3   OH238035   5.581   5.674   2.052 -0.3806  0.2746  0.6035
 5515TIP3    H138036   5.667   5.649   2.086 -1.0945 -1.2827  1.2923
 5515TIP3    H238037   5.560   5.606   1.988 -0.4613  1.4631 -0.6672
 5516TIP3   OH238038   1.592   6.498   4.913  0.3664  0.1192 -0.2064
 5516TIP3    H138039   1.677   6.462   4.939  0.0095  0.4643  1.5233
 5516TIP3    H238040   1.577   6.465   4.824  0.4030 -3.3692  1.0099
 5517TIP3   OH238041   2.857   2.080  15.947 -0.4070  0.2296  0.1286
 5517TIP3    H138042   2.778   2.039  15.913 -0.3741  0.5650 -0.3593
 5517TIP3    H238043   2.908   2.008  15.985 -1.4323  0.1593  1.4074
 5518TIP3   OH238044   1.047   5.275  16.734 -0.0451  0.8140 -0.2925
 5518TIP3    H138045   1.049   5.190  16.778  2.3200  1.7774  1.5803
 5518TIP3    H238046   0.969   5.318  16.770  0.0345  0.3287  0.4714
 5519TIP3   OH238047   2.215   2.804  12.929 -0.6428  0.4188  0.6540
 5519TIP3    H138048   2.176   2.824  13.015 -0.2198 -0.1157  0.9691
 5519TIP3    H238049   2.234   2.890  12.892 -0.9926  0.6587  1.0174
 5520TIP3   OH238050   4.549   1.713   6.136  0.0155  0.0200 -0.1740
 5520TIP3    H138051   4.514   1.702   6.047 -0.8272  0.1328  0.1334
 5520TIP3    H238052   4.582   1.627   6.159 -2.8926 -0.9381  0.6962
 5521TIP3   OH238053   0.279   0.534  14.626  0.2409  0.6332 -0.2894
 5521TIP3    H138054   0.262   0.509  14.535  0.1127 -0.3756  0.0106
 5521TIP3    H238055   0.345   0.603  14.620 -1.7436  2.5398 -1.3047
 5522TIP3   OH238056   5.083   4.413  13.065 -0.3080  0.2443  0.3570
 5522TIP3    H138057   5.143   4.344  13.091  1.6853  2.1974  1.1206
 5522TIP3    H238058   5.040   4.379  12.987  0.1038 -2.1192  1.1212
 5523TIP3   OH238059   1.545   0.371   4.486 -0.2399 -0.6527 -0.2797
 5523TIP3    H138060   1.561   0.316   4.409 -1.9827 -0.2000 -0.9930
 5523TIP3    H238061   1.589   0.453   4.466  1.9271 -1.5945  0.5594
 5524TIP3   OH238062   6.085   0.017  15.634 -0.1804 -0.0385 -0.1789
 5524TIP3    H138063   5.992   0.036  15.649  0.3474  0.7678  2.1833
 5524TIP3    H238064   6.104  -0.057  15.692  1.2733  1.4730  1.3308
 5525TIP3   OH238065   5.325   4.903   3.464  0.1799  0.0504  0.0434
 5525TIP3    H138066   5.371   4.960   3.402  1.1031  0.3299  0.9730
 5525TIP3    H238067   5.251   4.956   3.494 -1.2020 -0.6766 -2.0261
 5526TIP3   OH238068   0.978   0.580   5.462  0.5485 -0.1277 -0.0054
 5526TIP3    H138069   0.985   0.513   5.394  0.1296  0.7599 -0.9444
 5526TIP3    H238070   0.947   0.534   5.539  0.6249 -1.0761 -0.5397
 5527TIP3   OH238071   1.749   5.427  14.715  0.2078  0.7201 -0.0764
 5527TIP3    H138072   1.735   5.356  14.653  1.8566 -0.4815  0.8749
 5527TIP3    H238073   1.661   5.449  14.746 -0.3419 -0.8248 -0.4682
 5528TIP3   OH238074   6.049   2.609   4.981  0.2203 -0.2200  0.2430
 5528TIP3    H138075   6.010   2.697   4.987 -0.7643 -0.6717  0.5694
 5528TIP3    H238076   6.029   2.580   4.893 -1.8286 -1.1986  1.0038
 5529TIP3   OH238077   1.009   0.762  15.712  0.1889  0.4751  0.4944
 5529TIP3    H138078   0.978   0.810  15.636 -1.5878  1.7741  1.9724
 5529TIP3    H238079   1.000   0.670  15.688  1.6789  0.8492 -1.6166
 5530TIP3   OH238080   0.592   1.889  15.397  0.7724  0.1379 -0.3992
 5530TIP3    H138081   0.654   1.955  15.426  1.5061 -1.1370  1.0607
 5530TIP3    H238082   0.506   1.930  15.407  1.1962  0.7294  0.8795
 5531TIP3   OH238083   0.370   0.266   4.984  0.3168  0.0411  0.6800
 5531TIP3    H138084   0.428   0.229   4.918 -0.9996 -1.9855  0.6225
 5531TIP3    H238085   0.308   0.319   4.934 -1.3523 -2.3646  0.1274
 5532TIP3   OH238086   0.777   0.289   3.615 -0.0770 -0.2241  0.6142
 5532TIP3    H138087   0.818   0.212   3.652  2.1902 -0.1059 -1.4657
 5532TIP3    H238088   0.685   0.265   3.602  0.6482 -2.6694 -0.2213
 5533TIP3   OH238089   3.314   0.892   2.371 -0.3511 -0.5817  0.5629
 5533TIP3    H138090   3.302   0.807   2.328  0.8806 -0.1718 -0.6543
 5533TIP3    H238091   3.384   0.877   2.435  0.0073 -0.4513  0.2076
 5534TIP3   OH238092   5.132   0.393   5.223  0.5043  0.1152  0.1450
 5534TIP3    H138093   5.145   0.448   5.145  0.3505  1.9915  1.4034
 5534TIP3    H238094   5.195   0.426   5.286  0.8545 -1.6221  0.7247
 5535TIP3   OH238095   6.687   5.948  12.459 -0.3482 -0.2259 -0.8296
 5535TIP3    H138096   6.780   5.941  12.483  0.2503  0.9017 -2.6899
 5535TIP3    H238097   6.662   5.859  12.433 -0.0309 -0.7054  0.4704
 5536TIP3   OH238098   5.354   0.647   5.185  0.8910  0.6936 -0.3018
 5536TIP3    H138099   5.373   0.734   5.150 -0.4987  0.5228 -1.5093
 5536TIP3    H238100   5.434   0.596   5.166  1.3241  1.4274 -0.4680
 5537TIP3   OH238101   1.029   4.196   1.483 -0.0858  0.2386 -0.1113
 5537TIP3    H138102   1.091   4.236   1.421 -0.2219  0.3424 -0.1814
 5537TIP3    H238103   1.082   4.136   1.535 -0.1244 -0.4796 -0.8868
 5538TIP3   OH238104   0.917   4.502  12.451  0.3568  0.7377 -0.2593
 5538TIP3    H138105   0.964   4.585  12.452  1.9104 -0.1109 -0.1625
 5538TIP3    H238106   0.879   4.494  12.538  2.9823 -0.1611  0.8556
 5539TIP3   OH238107   0.045   3.718  15.518  0.1774 -0.1743  0.0730
 5539TIP3    H138108   0.127   3.668  15.520 -0.2427 -0.9099 -0.9661
 5539TIP3    H238109   0.005   3.696  15.434  0.2152  2.2702 -0.6240
 5540TIP3   OH238110   4.827   1.737  12.019 -0.2030  0.1820 -0.5332
 5540TIP3    H138111   4.758   1.690  12.065 -1.2160  0.4635 -1.7390
 5540TIP3    H238112   4.896   1.672  12.006 -1.1533 -0.7057 -1.2489
 5541TIP3   OH238113   4.603   1.804  17.068  0.2238 -0.1361  0.0334
 5541TIP3    H138114   4.653   1.833  17.144  0.4608 -1.2788  0.3228
 5541TIP3    H238115   4.659   1.738  17.026  1.6325  2.8964 -3.0856
 5542TIP3   OH238116   1.630   2.255  13.498 -0.0893  0.2695 -0.0839
 5542TIP3    H138117   1.550   2.214  13.533  0.1567 -0.6936 -0.6255
 5542TIP3    H238118   1.661   2.193  13.432  1.5471  0.2577  0.6802
 5543TIP3   OH238119   6.713   3.233   5.362  0.4521  0.2985 -0.0467
 5543TIP3    H138120   6.790   3.191   5.399 -0.1478 -1.4281 -0.6960
 5543TIP3    H238121   6.747   3.313   5.320  2.0636 -0.9873 -1.2617
 5544TIP3   OH238122   2.533   6.191   0.217  0.6160  0.2359  0.3116
 5544TIP3    H138123   2.466   6.254   0.242 -0.9017 -0.6020 -1.5523
 5544TIP3    H238124   2.506   6.109   0.259  0.7016 -0.0017 -0.0893
 5545TIP3   OH238125   4.031   2.030  15.778  0.0858 -0.4271 -0.1860
 5545TIP3    H138126   4.051   1.937  15.791  1.8644  0.1259  1.2637
 5545TIP3    H238127   4.100   2.060  15.718 -0.8836 -0.1853 -1.1910
 5546TIP3   OH238128   1.340   4.252   5.620  0.7312  0.2575 -0.6282
 5546TIP3    H138129   1.331   4.288   5.709 -1.2992  0.8108 -1.0212
 5546TIP3    H238130   1.426   4.211   5.619  0.5884 -0.1668  1.7535
 5547TIP3   OH238131   5.789   5.147  16.168  0.0027  0.3051  0.0915
 5547TIP3    H138132   5.882   5.133  16.150 -0.2643 -2.0164  0.3212
 5547TIP3    H238133   5.780   5.131  16.262 -0.8128 -0.6327 -0.1346
 5548TIP3   OH238134   4.550   6.510   4.323 -0.0856  0.2729  0.5765
 5548TIP3    H138135   4.550   6.424   4.364 -0.9258  0.2779  0.5952
 5548TIP3    H238136   4.604   6.564   4.381  1.3425 -0.5069 -0.0191
 5549TIP3   OH238137   1.987   1.837   1.761  0.0339  0.1322 -0.0236
 5549TIP3    H138138   1.903   1.876   1.786  2.2261  3.7631  2.0893
 5549TIP3    H238139   2.024   1.804   1.843  0.8666 -1.0826 -0.8714
 5550TIP3   OH238140   3.070   3.316   0.744 -0.4880 -0.4552 -0.2729
 5550TIP3    H138141   3.097   3.303   0.653  1.8528 -0.3367  0.3801
 5550TIP3    H238142   3.046   3.409   0.749  0.9019 -0.0812 -0.4041
 5551TIP3   OH238143   5.399   0.164   2.998 -0.5213 -0.1600  0.2261
 5551TIP3    H138144   5.472   0.160   2.936 -0.8331  0.0841 -0.1611
 5551TIP3    H238145   5.322   0.176   2.943 -0.7660  0.3918  0.6905
 5552TIP3   OH238146   0.369   2.730   3.122  0.0632  0.0853 -0.0799
 5552TIP3    H138147   0.285   2.699   3.090  0.6245  0.2837 -1.7565
 5552TIP3    H238148   0.348   2.807   3.175 -0.7056  0.8614 -1.4831
 5553TIP3   OH238149   3.626   1.763  12.323 -0.1808 -0.2091  0.0391
 5553TIP3    H138150   3.695   1.697  12.321  0.0334  0.0475 -1.4431
 5553TIP3    H238151   3.545   1.713  12.328 -0.0110 -0.5881 -0.9107
 5554TIP3   OH238152   6.360   2.829   4.416 -0.2486 -0.1292  0.2502
 5554TIP3    H138153   6.410   2.798   4.492 -0.0109 -0.7313 -0.1475
 5554TIP3    H238154   6.298   2.758   4.398  1.5833 -1.2453 -1.8615
 5555TIP3   OH238155   0.956   6.699  14.920  0.0520 -0.2242  0.0601
 5555TIP3    H138156   0.941   6.776  14.975 -0.3968 -0.5609  0.4126
 5555TIP3    H238157   0.880   6.643  14.936 -0.3437 -0.1045 -1.2871
 5556TIP3   OH238158   3.167   6.810   4.294 -0.2269 -0.0548 -0.2837
 5556TIP3    H138159   3.128   6.733   4.253  0.2042 -0.9450  0.9515
 5556TIP3    H238160   3.195   6.864   4.220 -1.6830 -0.4687 -1.1796
 5557TIP3   OH238161   4.510   1.481  15.770 -0.4568  0.0419  0.3680
 5557TIP3    H138162   4.604   1.469  15.783 -0.5962 -1.3063  0.2102
 5557TIP3    H238163   4.472   1.472  15.858 -0.5541 -0.5510  0.2629
 5558TIP3   OH238164   4.474   4.209  15.735  0.2786  0.0089 -0.1843
 5558TIP3    H138165   4.466   4.169  15.822  0.9072  0.8167  0.2466
 5558TIP3    H238166   4.560   4.250  15.735  0.3887 -0.2103 -1.2900
 5559TIP3   OH238167   5.307   3.119  11.509 -0.9009  0.3341 -0.3173
 5559TIP3    H138168   5.372   3.133  11.578 -0.6499 -1.1820 -0.2223
 5559TIP3    H238169   5.320   3.028  11.481 -0.4507  1.1659 -2.9521
 5560TIP3   OH238170   0.716   1.419   6.365  0.5480  0.2781  0.4773
 5560TIP3    H138171   0.668   1.458   6.439  0.1987  1.4922 -0.3757
 5560TIP3    H238172   0.759   1.342   6.402 -0.6825  0.1422  1.6554
 5561TIP3   OH238173   0.293   6.085  16.227  0.2521 -0.8832  0.3369
 5561TIP3    H138174   0.227   6.122  16.286 -1.6059 -0.0945 -2.1670
 5561TIP3    H238175   0.373   6.132  16.248 -0.6145  0.0833  1.5510
 5562TIP3   OH238176   0.385   0.304  15.205 -0.4119  0.3255  0.1340
 5562TIP3    H138177   0.428   0.370  15.150 -0.2306  1.3366  1.4617
 5562TIP3    H238178   0.292   0.315  15.188 -0.3567  0.6381  0.0280
 5563TIP3   OH238179   3.999   1.756  16.373 -0.4992 -0.5393 -0.1089
 5563TIP3    H138180   4.038   1.836  16.336 -1.2340  0.1474  0.5700
 5563TIP3    H238181   4.038   1.748  16.460  1.8045 -2.5792 -1.2824
 5564TIP3   OH238182   0.220   5.284   1.297  0.2624 -0.2146 -0.2228
 5564TIP3    H138183   0.315   5.268   1.302  0.2530 -0.3248 -0.3959
 5564TIP3    H238184   0.193   5.293   1.388  0.6217  0.9009 -0.2230
 5565TIP3   OH238185   3.759   6.786   1.461 -0.0517  0.5539 -0.2422
 5565TIP3    H138186   3.730   6.696   1.478 -0.2637  1.1163  2.6813
 5565TIP3    H238187   3.853   6.777   1.444 -0.2063 -0.2820 -0.7127
 5566TIP3   OH238188   0.297   4.744   1.841  0.2781 -0.0337 -0.6247
 5566TIP3    H138189   0.370   4.682   1.839  0.6516  0.4080 -0.5695
 5566TIP3    H238190   0.265   4.741   1.932  1.3028  1.0312 -0.2165
 5567TIP3   OH238191   0.305   5.255  13.499 -0.5382 -0.0549 -0.2492
 5567TIP3    H138192   0.304   5.229  13.407 -0.2576 -1.1685  0.0559
 5567TIP3    H238193   0.302   5.351  13.497  1.7334  0.0084 -1.4604
 5568TIP3   OH238194   2.029   1.268   5.501 -0.2289  0.4854 -0.1541
 5568TIP3    H138195   2.001   1.179   5.523  2.0681  0.0910  1.3886
 5568TIP3    H238196   2.091   1.256   5.430 -0.1023  0.8638 -0.1073
 5569TIP3   OH238197   5.442   3.628  13.258 -0.3052  0.4116  0.2329
 5569TIP3    H138198   5.373   3.597  13.200 -0.2225  2.8791 -1.2090
 5569TIP3    H238199   5.490   3.548  13.282  0.0596 -0.5993 -3.5636
 5570TIP3   OH238200   3.060   2.620  15.532  0.0572  0.8277 -0.3695
 5570TIP3    H138201   2.981   2.672  15.544 -0.6322 -0.4064  0.4530
 5570TIP3    H238202   3.071   2.572  15.614  1.8836  1.2740 -0.3212
 5571TIP3   OH238203   0.308   3.096  15.014  0.7439  0.0837  0.2379
 5571TIP3    H138204   0.389   3.114  14.965  1.1796 -0.1747  0.8582
 5571TIP3    H238205   0.336   3.093  15.105 -0.0874  0.6620  0.5156
 5572TIP3   OH238206   6.363   4.963   4.514  0.1204  0.8748 -0.1375
 5572TIP3    H138207   6.395   4.995   4.599 -0.8316 -1.3717  1.1179
 5572TIP3    H238208   6.268   4.971   4.520 -0.0333 -0.6723 -0.4157
 5573TIP3   OH238209   2.897   2.294   4.452 -0.4653  0.3797 -0.3124
 5573TIP3    H138210   2.924   2.289   4.360 -1.5542  0.7553 -0.6530
 5573TIP3    H238211   2.807   2.325   4.449 -0.6488 -0.0253  0.8676
 5574TIP3   OH238212   0.246   2.066   6.548 -0.4185 -0.1516 -0.2401
 5574TIP3    H138213   0.206   2.080   6.634 -0.6837  0.9747 -0.5432
 5574TIP3    H238214   0.180   2.096   6.485  0.7977  1.4620 -0.7572
 5575TIP3   OH238215   1.278   5.454   4.640  0.3478 -0.0032  0.1841
 5575TIP3    H138216   1.303   5.544   4.618 -0.6762  0.2451  0.0405
 5575TIP3    H238217   1.362   5.408   4.652  0.8848  0.6949 -0.8376
 5576TIP3   OH238218   5.763   3.226   3.671 -0.3256 -0.6089  0.2244
 5576TIP3    H138219   5.856   3.211   3.650 -0.5937  0.6255 -1.9637
 5576TIP3    H238220   5.726   3.139   3.677  0.8167 -1.0993  0.3900
 5577TIP3   OH238221   4.868   0.999   3.930  0.0049 -0.0606 -0.0116
 5577TIP3    H138222   4.806   0.974   3.998 -1.6308  1.8122 -0.7403
 5577TIP3    H238223   4.817   0.994   3.849  1.9122 -2.2400 -1.1437
 5578TIP3   OH238224   3.635   2.008   6.734  0.8276  0.4493 -0.3673
 5578TIP3    H138225   3.662   2.009   6.642 -0.8106 -2.7220 -0.9298
 5578TIP3    H238226   3.554   2.060   6.735 -0.5962 -1.6783 -1.2503
 5579TIP3   OH238227   6.233   3.085  12.189  0.2317  0.0889 -0.0707
 5579TIP3    H138228   6.281   3.109  12.269 -0.2704  0.7618  0.0286
 5579TIP3    H238229   6.253   2.992  12.177 -0.3119 -0.2190  1.2683
 5580TIP3   OH238230   2.421   2.738  15.800 -1.0558 -0.1551 -0.1486
 5580TIP3    H138231   2.491   2.688  15.841 -0.2880  0.9815 -0.0599
 5580TIP3    H238232   2.443   2.740  15.707 -1.4734 -0.5890 -0.2632
 5581TIP3   OH238233   0.320   1.657   3.196  0.0935  0.0012 -0.7464
 5581TIP3    H138234   0.228   1.674   3.174 -1.1029 -2.1705  2.2065
 5581TIP3    H238235   0.341   1.720   3.264 -0.3573 -1.7933  1.0975
 5582TIP3   OH238236   3.530   0.955  15.827  0.3759  0.4324 -0.4616
 5582TIP3    H138237   3.583   1.034  15.819 -1.5481  1.6232 -1.9274
 5582TIP3    H238238   3.581   0.887  15.783  1.6095  1.0633 -0.0295
 5583TIP3   OH238239   3.786   6.122   2.653 -0.0949 -0.1000 -0.5073
 5583TIP3    H138240   3.753   6.033   2.643 -1.3411  0.1837  0.8997
 5583TIP3    H238241   3.713   6.178   2.627  0.4865  0.5293 -0.8212
 5584TIP3   OH238242   4.154   0.996  11.348  0.7135 -0.8409 -0.1288
 5584TIP3    H138243   4.182   1.076  11.393 -1.8361 -0.6642  1.2427
 5584TIP3    H238244   4.174   1.011  11.256 -0.2603  1.6419  0.0312
 5585TIP3   OH238245   1.470   1.914  15.330  0.0221  0.7318  0.1764
 5585TIP3    H138246   1.493   1.928  15.422  0.9951  0.1101  0.0377
 5585TIP3    H238247   1.463   1.819  15.321 -1.8279  0.8761  0.0160
 5586TIP3   OH238248   5.151   2.334   2.168 -0.3160  0.2304  0.0481
 5586TIP3    H138249   5.155   2.396   2.241 -1.8719 -0.0482  0.3931
 5586TIP3    H238250   5.114   2.383   2.095 -2.4495 -0.4912  0.5925
 5587TIP3   OH238251   6.487   2.526  14.978 -0.4488 -0.1944  0.0555
 5587TIP3    H138252   6.561   2.480  15.016 -0.3642 -0.8001 -0.8235
 5587TIP3    H238253   6.444   2.569  15.052 -0.5750 -1.7419  0.8870
 5588TIP3   OH238254   2.470   5.662  12.355 -0.4666 -0.3939  0.2898
 5588TIP3    H138255   2.541   5.598  12.362  0.8908  1.0437 -0.0496
 5588TIP3    H238256   2.488   5.725  12.425 -0.5911  0.7574 -0.7035
 5589TIP3   OH238257   0.986   5.583   1.226 -0.1658 -0.5775 -0.4472
 5589TIP3    H138258   0.952   5.587   1.136  0.8340 -1.0023 -0.8488
 5589TIP3    H238259   0.984   5.490   1.248 -1.5393 -0.3574  0.4209
 5590TIP3   OH238260   1.854   1.300   0.498  0.6360 -0.1241  0.0104
 5590TIP3    H138261   1.883   1.332   0.413 -0.4001 -2.2953 -1.2032
 5590TIP3    H238262   1.935   1.289   0.548  1.0536  4.2532  0.5284
 5591TIP3   OH238263   3.081   3.377   4.551 -0.3929  0.2750  0.1323
 5591TIP3    H138264   3.125   3.462   4.560  0.4443 -0.1352 -0.0531
 5591TIP3    H238265   3.113   3.326   4.625  0.4991 -0.4924 -0.7848
 5592TIP3   OH238266   4.579   5.457   5.065 -0.0810 -0.0132 -0.2953
 5592TIP3    H138267   4.500   5.445   5.118 -0.1700  0.2404 -0.3731
 5592TIP3    H238268   4.642   5.495   5.125  0.3311 -1.2337  0.0584
 5593TIP3   OH238269   3.966   4.775   2.731 -0.9250 -0.1509 -0.1012
 5593TIP3    H138270   3.949   4.681   2.730  0.6835 -0.4782  0.7150
 5593TIP3    H238271   4.034   4.789   2.665 -0.1946  0.2208  0.7116
 5594TIP3   OH238272   2.865   3.576   0.462 -0.6335 -0.0702  0.1958
 5594TIP3    H138273   2.867   3.554   0.555 -2.2518 -1.6920 -0.1153
 5594TIP3    H238274   2.843   3.669   0.460  2.4556  0.7541  1.4659
 5595TIP3   OH238275   2.204   3.345   1.726 -0.1169 -0.3219  0.0356
 5595TIP3    H138276   2.254   3.425   1.711 -1.3480  0.4224 -0.1497
 5595TIP3    H238277   2.196   3.305   1.639  0.5124 -0.6627  0.1310
 5596TIP3   OH238278   6.743   0.936  14.293 -0.5976 -0.0923  0.3354
 5596TIP3    H138279   6.811   0.935  14.226 -1.5140  1.7377 -0.6735
 5596TIP3    H238280   6.787   0.968  14.372  0.2950 -1.4454  0.3935
 5597TIP3   OH238281   4.089   0.176   4.659  0.1080  0.5994 -0.2410
 5597TIP3    H138282   4.016   0.136   4.612 -1.0348  4.5271 -2.0393
 5597TIP3    H238283   4.048   0.237   4.721  1.7797  0.3990  1.1055
 5598TIP3   OH238284   3.402   4.813   1.265 -0.0521 -0.6384  0.6265
 5598TIP3    H138285   3.322   4.801   1.316 -1.7543 -1.1331 -2.0436
 5598TIP3    H238286   3.439   4.896   1.295 -1.4077 -0.5615  2.0913
 5599TIP3   OH238287   4.723   0.224  16.888 -0.5403  0.7604 -0.5092
 5599TIP3    H138288   4.677   0.306  16.870 -0.5726  0.6099 -1.1194
 5599TIP3    H238289   4.676   0.186  16.963 -0.1628  1.5805  0.1611
 5600TIP3   OH238290   6.761   1.971  14.394 -0.1004  0.4132  0.0060
 5600TIP3    H138291   6.761   1.932  14.307 -0.0088 -0.0235  0.2026
 5600TIP3    H238292   6.788   2.062  14.379  0.0596  0.2987 -0.4015
 5601TIP3   OH238293   3.681   1.030   4.368  0.1783  0.5720 -0.4648
 5601TIP3    H138294   3.753   1.074   4.325  0.3274  1.7438  0.9339
 5601TIP3    H238295   3.639   1.098   4.421 -2.0608 -0.0337 -1.3797
 5602TIP3   OH238296   4.376   6.298  15.850  0.5562 -0.1461 -0.2348
 5602TIP3    H138297   4.363   6.391  15.869  0.8591 -0.2597  0.5303
 5602TIP3    H238298   4.436   6.296  15.775 -1.4533  0.3260 -1.8974
 5603TIP3   OH238299   4.600   6.095   2.148 -0.0602 -0.1643 -0.1777
 5603TIP3    H138300   4.646   6.179   2.148 -0.9783  0.3532  0.8195
 5603TIP3    H238301   4.548   6.097   2.068  0.6699 -0.2071 -0.6570
 5604TIP3   OH238302   2.674   6.240   2.957 -1.0313  0.5460 -0.2187
 5604TIP3    H138303   2.590   6.285   2.948 -0.7764  0.7094 -2.0060
 5604TIP3    H238304   2.669   6.168   2.894 -1.3746 -1.8755  2.4700
 5605TIP3   OH238305   3.193   5.755   1.860  0.2072  0.6129  0.3220
 5605TIP3    H138306   3.218   5.676   1.908 -0.2360 -0.2373 -0.8205
 5605TIP3    H238307   3.270   5.812   1.867  0.4706  0.1479  1.2917
 5606TIP3   OH238308   1.847   0.254   1.758  0.3850 -0.4737 -0.3239
 5606TIP3    H138309   1.786   0.227   1.689  0.9739  0.1292 -1.0895
 5606TIP3    H238310   1.803   0.229   1.839  0.2269 -2.3170 -0.9500
 5607TIP3   OH238311   6.407   3.438  11.227 -0.4092 -0.7015 -0.5740
 5607TIP3    H138312   6.315   3.452  11.204 -0.3695 -2.3152 -1.8476
 5607TIP3    H238313   6.455   3.460  11.147  0.3240  0.2092  0.1112
 5608TIP3   OH238314   4.754   6.744  11.489  0.4117  0.0268 -0.0511
 5608TIP3    H138315   4.823   6.744  11.423  1.1723  0.2179  0.7361
 5608TIP3    H238316   4.783   6.807  11.555 -0.9477  0.7798 -0.1532
 5609TIP3   OH238317   6.123   0.801  16.014  0.4370  0.3811  0.3938
 5609TIP3    H138318   6.060   0.802  15.943  1.2079 -0.4118 -0.2977
 5609TIP3    H238319   6.206   0.826  15.974  0.6574  1.0362  1.2239
 5610TIP3   OH238320   5.897   1.992   4.540 -0.6318 -0.3949 -0.1424
 5610TIP3    H138321   5.827   2.049   4.574 -0.3030 -0.4495  0.6371
 5610TIP3    H238322   5.978   2.030   4.576 -0.2601 -0.3534 -1.0087
 5611TIP3   OH238323   3.824   1.403   2.996  0.0915 -0.3054  0.1909
 5611TIP3    H138324   3.812   1.497   2.977  0.0122 -0.5858 -1.2365
 5611TIP3    H238325   3.919   1.391   3.001  0.3188 -0.8431 -3.6183
 5612TIP3   OH238326   0.199   0.453   5.204 -0.1611  0.6955  0.5147
 5612TIP3    H138327   0.236   0.366   5.192 -2.4563 -0.1581 -0.7207
 5612TIP3    H238328   0.108   0.437   5.229 -1.1490  2.7483 -1.6289
 5613TIP3   OH238329   2.910   6.395   4.301  0.4911  0.4954 -0.2576
 5613TIP3    H138330   2.816   6.408   4.287  0.2382 -0.6306  0.3533
 5613TIP3    H238331   2.952   6.447   4.232 -0.5992  0.1038 -1.2220
 5614TIP3   OH238332   2.584   3.129   2.697  0.0938  0.8033 -0.2224
 5614TIP3    H138333   2.521   3.057   2.702  1.4851 -0.7146 -2.9588
 5614TIP3    H238334   2.625   3.132   2.783 -0.8827 -0.8819  0.3139
 5615TIP3   OH238335   0.709   2.779  11.493  0.1789 -0.9498 -0.2166
 5615TIP3    H138336   0.792   2.746  11.527 -0.3352 -0.2049  1.8111
 5615TIP3    H238337   0.735   2.841  11.424  1.3779  0.3261  1.3252
 5616TIP3   OH238338   6.088   4.492   3.360  0.4765  0.2730  0.1049
 5616TIP3    H138339   6.178   4.524   3.363  0.5539  0.6036 -3.6697
 5616TIP3    H238340   6.060   4.507   3.270 -2.9766 -0.9156  0.9025
 5617TIP3   OH238341   2.980   0.127  16.748 -0.5817 -0.1646  0.6122
 5617TIP3    H138342   2.912   0.060  16.754 -1.1115  0.1373 -1.5973
 5617TIP3    H238343   2.998   0.152  16.839 -1.6148 -2.0522  1.3502
 5618TIP3   OH238344   0.306   1.235   3.579 -0.4214  0.0143 -0.0616
 5618TIP3    H138345   0.300   1.247   3.674 -0.4553  0.5686 -0.1328
 5618TIP3    H238346   0.395   1.204   3.564 -0.3206  0.2156  0.1217
 5619TIP3   OH238347   4.596   3.590   5.568 -0.2845 -0.2596 -0.4197
 5619TIP3    H138348   4.604   3.497   5.546 -0.4879 -0.3064 -0.3086
 5619TIP3    H238349   4.548   3.628   5.495 -0.9881 -0.4210 -0.0512
 5620TIP3   OH238350   5.194   0.966   2.853  0.2736 -0.1995 -0.7595
 5620TIP3    H138351   5.104   0.996   2.845  0.3511  0.2350 -0.0745
 5620TIP3    H238352   5.247   1.046   2.846  0.5097 -0.2333  0.5381
 5621TIP3   OH238353   2.932   4.124  12.172 -0.1915 -0.6394 -0.3364
 5621TIP3    H138354   2.992   4.052  12.189  2.1293  1.0793 -0.9384
 5621TIP3    H238355   2.941   4.143  12.079 -2.1084 -0.7134 -0.5616
 5622TIP3   OH238356   3.564   2.603  11.982  0.4984  0.1122 -0.5665
 5622TIP3    H138357   3.587   2.516  11.948  0.4746  0.2736 -1.0010
 5622TIP3    H238358   3.624   2.617  12.055  0.5070 -0.2683 -0.4995
 5623TIP3   OH238359   1.816   1.873   5.191 -0.5985 -0.2999  0.1448
 5623TIP3    H138360   1.763   1.827   5.257 -1.8193  1.8528  0.7299
 5623TIP3    H238361   1.752   1.919   5.137  0.5680  0.6068 -0.4836
 5624TIP3   OH238362   3.944   5.549   6.347 -0.2072 -0.0111 -0.0638
 5624TIP3    H138363   3.924   5.641   6.329  0.1442  0.2078  0.6602
 5624TIP3    H238364   3.861   5.503   6.332  0.3100 -0.0254 -3.4284
 5625TIP3   OH238365   5.955   5.464   3.868  0.5748 -0.5712 -0.2767
 5625TIP3    H138366   5.911   5.388   3.905  0.1172 -0.1266  0.1087
 5625TIP3    H238367   5.887   5.510   3.818  1.5033 -1.8863 -2.8454
 5626TIP3   OH238368   1.586   2.741   2.438 -0.1999  0.1145  0.0140
 5626TIP3    H138369   1.519   2.809   2.435 -0.0759  0.2651  0.6392
 5626TIP3    H238370   1.634   2.758   2.519 -0.9211 -1.4393  0.7860
 5627TIP3   OH238371   2.968   5.576   5.109  0.6976  0.1683  0.7564
 5627TIP3    H138372   2.888   5.544   5.150  0.5972 -0.5177  0.0248
 5627TIP3    H238373   3.016   5.497   5.083  1.0616  0.5889  0.1282
 5628TIP3   OH238374   5.283   1.156  11.757  0.1364  0.1303 -0.2776
 5628TIP3    H138375   5.318   1.140  11.844 -0.8355 -2.2350 -0.2925
 5628TIP3    H238376   5.259   1.070  11.724 -2.0461  1.2829 -1.8217
 5629TIP3   OH238377   5.309   1.320  12.746 -0.0050  0.2225  0.0623
 5629TIP3    H138378   5.267   1.235  12.760 -0.3978  0.6686  1.7758
 5629TIP3    H238379   5.250   1.383  12.788  1.0660  1.1640  0.1793
 5630TIP3   OH238380   0.670   4.484  12.034  0.3505 -0.8457  0.2342
 5630TIP3    H138381   0.710   4.531  12.107  0.0495  1.1488 -0.8449
 5630TIP3    H238382   0.678   4.544  11.960 -1.4598 -1.8647 -0.8147
 5631TIP3   OH238383   1.060   2.945   6.100 -0.5291  0.2295 -0.3137
 5631TIP3    H138384   1.042   3.017   6.161 -2.9378  1.2731 -2.1764
 5631TIP3    H238385   1.005   2.874   6.130 -1.2723  0.5504 -0.8978
 5632TIP3   OH238386   1.887   6.658  11.637 -0.4214  0.5535  0.0737
 5632TIP3    H138387   1.798   6.666  11.671 -0.8342 -0.2642 -0.7953
 5632TIP3    H238388   1.879   6.680  11.544  0.4018  1.1166  0.1298
 5633TIP3   OH238389   2.087   0.779   4.884 -0.1862  0.3983  0.5289
 5633TIP3    H138390   2.033   0.852   4.853 -0.5705 -0.5814 -1.1522
 5633TIP3    H238391   2.090   0.791   4.979 -0.4762  2.4408  0.3056
 5634TIP3   OH238392   4.541   3.779  15.064  0.0498 -0.0270  0.5265
 5634TIP3    H138393   4.582   3.793  15.149  0.3204  1.3564  0.1784
 5634TIP3    H238394   4.472   3.846  15.060 -1.5263 -1.5904  0.6373
 5635TIP3   OH238395   1.168   0.025  13.217 -0.0107 -0.1593  0.2702
 5635TIP3    H138396   1.171   0.057  13.127 -0.9961  2.0851  1.0111
 5635TIP3    H238397   1.223   0.086  13.267  0.3091 -1.2162  1.2404
 5636TIP3   OH238398   3.787   5.635   3.053 -0.2916  0.1579  0.3832
 5636TIP3    H138399   3.773   5.691   2.977 -0.3562  1.7786  1.5527
 5636TIP3    H238400   3.875   5.659   3.085 -0.1233 -0.7437  0.6285
 5637TIP3   OH238401   6.280   6.298  13.791 -0.2177 -0.4675 -0.5115
 5637TIP3    H138402   6.333   6.373  13.763 -1.5267  0.5895 -0.2015
 5637TIP3    H238403   6.220   6.283  13.718 -2.4929  1.2068  0.9425
 5638TIP3   OH238404   0.076   2.563  12.650  0.4080 -0.2587  0.3968
 5638TIP3    H138405   0.029   2.623  12.708 -0.7959 -1.6202  0.8543
 5638TIP3    H238406   0.142   2.618  12.607 -1.1604  1.5382  0.2262
 5639TIP3   OH238407   2.953   6.812   0.238  0.6914  0.0479  0.7009
 5639TIP3    H138408   3.012   6.739   0.218 -0.4296 -0.2285 -1.6591
 5639TIP3    H238409   2.946   6.811   0.334  0.9688 -2.7136  0.7288
 5640TIP3   OH238410   5.117   0.952   0.760  0.2125  0.5550  0.1116
 5640TIP3    H138411   5.088   0.947   0.851 -0.1796 -2.4847 -0.1341
 5640TIP3    H238412   5.038   0.975   0.711 -0.0523  0.1076  0.3212
 5641TIP3   OH238413   0.915   6.689   2.383 -0.1133  0.4938  0.9048
 5641TIP3    H138414   0.911   6.607   2.433 -2.5425 -1.0137 -1.5674
 5641TIP3    H238415   0.841   6.741   2.416  1.0276  1.4487  2.0078
 5642TIP3   OH238416   3.660   4.932  13.186 -0.0061  0.1479 -0.7020
 5642TIP3    H138417   3.649   4.982  13.106 -0.5695 -1.6711 -1.7756
 5642TIP3    H238418   3.676   4.843  13.157  3.9435  0.1509  1.0794
 5643TIP3   OH238419   0.866   1.780  17.103  0.3037  0.3077  0.9587
 5643TIP3    H138420   0.896   1.824  17.023  0.1823  0.9068  1.2439
 5643TIP3    H238421   0.931   1.710  17.117  0.3918  0.2744  0.4066
 5644TIP3   OH238422   5.700   0.741   1.389 -0.3005  0.2974 -0.2355
 5644TIP3    H138423   5.790   0.719   1.366 -0.2241 -0.5097  0.7509
 5644TIP3    H238424   5.665   0.661   1.429 -0.9636  1.0687  0.7790
 5645TIP3   OH238425   3.313   3.396  12.331 -0.2392 -0.3316 -0.1981
 5645TIP3    H138426   3.324   3.490  12.314  2.6909 -0.9102 -1.9574
 5645TIP3    H238427   3.277   3.361  12.250  1.1049 -1.0947 -0.4760
 5646TIP3   OH238428   1.149   4.603   6.000  0.1674  0.0750 -0.1891
 5646TIP3    H138429   1.197   4.594   6.082  0.7560  2.8760 -0.1522
 5646TIP3    H238430   1.071   4.653   6.023 -0.5488 -0.6369 -1.0416
 5647TIP3   OH238431   3.411   2.823   4.549 -0.4737  0.1950 -0.5025
 5647TIP3    H138432   3.465   2.758   4.595 -0.5456  1.7779  1.9236
 5647TIP3    H238433   3.326   2.819   4.593 -1.6467 -0.6048 -2.7548
 5648TIP3   OH238434   0.976   2.913   2.445  0.0505  0.2924  0.5529
 5648TIP3    H138435   0.956   2.826   2.477 -0.0251 -0.1640 -0.7248
 5648TIP3    H238436   0.974   2.968   2.523 -0.1696 -0.7946  1.3221
 5649TIP3   OH238437   4.716   1.767   2.864 -0.4326  0.9201 -0.3402
 5649TIP3    H138438   4.790   1.827   2.852  0.1772  0.4548  1.0212
 5649TIP3    H238439   4.690   1.780   2.955 -0.2948 -0.8907 -0.0373
 5650TIP3   OH238440   5.158   0.877  11.716 -0.2398  0.3575  0.4356
 5650TIP3    H138441   5.208   0.835  11.646  0.3538 -0.1413  1.1490
 5650TIP3    H238442   5.076   0.904  11.675 -0.3827 -0.9771 -0.1724
 5651TIP3   OH238443   4.060   1.845  12.380  0.6485  0.0458 -0.3621
 5651TIP3    H138444   4.025   1.934  12.379  0.8796  0.1446 -0.0302
 5651TIP3    H238445   4.053   1.818  12.472  1.4393  0.0710 -0.2858
 5652TIP3   OH238446   4.205   5.854   2.053  0.0625 -0.2199 -0.4138
 5652TIP3    H138447   4.228   5.929   2.107 -2.2021  0.4503 -0.2958
 5652TIP3    H238448   4.216   5.884   1.963  4.3378 -1.5013 -0.4095
 5653TIP3   OH238449   0.921   4.866   2.878 -0.1841 -0.2010  0.0742
 5653TIP3    H138450   0.928   4.945   2.932  0.5813 -0.1828 -0.0441
 5653TIP3    H238451   1.006   4.861   2.833 -0.0179 -1.3958  0.5104
 5654TIP3   OH238452   4.371   0.825   1.278 -0.4027 -0.3792  0.3917
 5654TIP3    H138453   4.411   0.738   1.276  0.0881 -0.1469 -0.8689
 5654TIP3    H238454   4.435   0.880   1.323 -0.1619 -0.4284  0.1158
 5655TIP3   OH238455   0.924   3.545   5.202 -0.8017  0.4167 -0.2216
 5655TIP3    H138456   0.863   3.484   5.160  0.9399 -1.5646  0.0507
 5655TIP3    H238457   0.948   3.606   5.132  0.0432 -1.2742 -1.4284
 5656TIP3   OH238458   5.159   5.038  11.327  0.0650 -0.0221  0.5102
 5656TIP3    H138459   5.175   5.109  11.390 -0.0155  1.0249 -0.6267
 5656TIP3    H238460   5.233   4.978  11.339  0.9008  0.9842  0.4932
 5657TIP3   OH238461   1.974   1.681   5.452 -0.2351 -0.3810  0.3362
 5657TIP3    H138462   1.919   1.734   5.394  0.7826 -1.0298 -1.2315
 5657TIP3    H238463   2.046   1.651   5.397  1.0467 -0.5672  2.0645
 5658TIP3   OH238464   3.525   3.506   4.444  0.0872 -0.1641  0.4451
 5658TIP3    H138465   3.443   3.549   4.419 -0.6528 -1.1262  1.1450
 5658TIP3    H238466   3.568   3.568   4.503 -0.3374  0.1735  0.4016
 5659TIP3   OH238467   4.144   1.945  15.066 -0.0635 -0.0353 -0.6439
 5659TIP3    H138468   4.166   1.861  15.026 -0.4286  0.0408 -1.0014
 5659TIP3    H238469   4.058   1.932  15.106  1.0384 -0.6284  1.6231
 5660TIP3   OH238470   1.379   0.169  15.852  0.4602 -0.1611  0.2335
 5660TIP3    H138471   1.388   0.125  15.936  1.4528  0.3055  0.3764
 5660TIP3    H238472   1.329   0.248  15.871  2.3860  0.9771  0.7743
 5661TIP3   OH238473   4.315   0.577  14.080  0.2191  0.4533  0.2663
 5661TIP3    H138474   4.243   0.618  14.129  0.4743  0.8552  0.2992
 5661TIP3    H238475   4.279   0.493  14.052 -0.4463  0.8862 -0.1847
 5662TIP3   OH238476   6.181   6.417  16.989  0.0317  0.9088  0.0945
 5662TIP3    H138477   6.151   6.442  16.902  1.0205 -0.7618 -0.7594
 5662TIP3    H238478   6.146   6.329  17.002  3.7249 -0.7840 -0.6215
 5663TIP3   OH238479   6.076   1.658  16.080 -0.0397  0.1255  0.0618
 5663TIP3    H138480   6.049   1.630  16.167 -1.5203  1.5677  0.1086
 5663TIP3    H238481   6.171   1.651  16.080 -0.0772 -0.5574  1.5445
 5664TIP3   OH238482   2.117   3.973   2.126  0.3363  0.4590 -0.0732
 5664TIP3    H138483   2.070   4.013   2.053 -0.8882  0.3689  0.6619
 5664TIP3    H238484   2.116   3.879   2.106 -1.2742  0.2850  0.7853
 5665TIP3   OH238485   4.602   5.914   4.644 -0.0729 -0.1875 -0.2735
 5665TIP3    H138486   4.578   5.977   4.577  2.1671  2.3104  1.2009
 5665TIP3    H238487   4.680   5.870   4.610 -0.4414 -0.7590 -0.3999
 5666TIP3   OH238488   2.762   5.733   2.124  0.3963  0.7675  0.3627
 5666TIP3    H138489   2.824   5.664   2.147  2.2193  1.3970 -2.4646
 5666TIP3    H238490   2.692   5.688   2.076  2.2778  1.0109 -2.7076
 5667TIP3   OH238491   5.386   3.517   3.276 -0.0373 -0.8190 -0.4728
 5667TIP3    H138492   5.434   3.589   3.234  0.5516 -0.4769  0.7846
 5667TIP3    H238493   5.411   3.439   3.226  1.0574 -0.4914 -0.4481
 5668TIP3   OH238494   6.719   0.896   1.725 -0.0506 -0.5673 -0.2020
 5668TIP3    H138495   6.652   0.958   1.697  1.1672  1.1529  0.5809
 5668TIP3    H238496   6.685   0.857   1.805 -1.0326 -1.2723 -0.9569
 5669TIP3   OH238497   0.553   2.302   0.346  0.7478  0.2237 -0.0163
 5669TIP3    H138498   0.626   2.304   0.408 -1.0164 -2.1813  2.2705
 5669TIP3    H238499   0.564   2.218   0.300 -1.7386 -1.1980  1.8929
 5670TIP3   OH238500   5.765   2.904   3.386  0.1304 -1.1096 -0.4444
 5670TIP3    H138501   5.689   2.933   3.436  0.4034 -0.0839 -0.6125
 5670TIP3    H238502   5.840   2.933   3.438  0.4135 -0.3913 -1.2355
 5671TIP3   OH238503   4.455   1.332   0.713  0.4366  0.0347  0.1560
 5671TIP3    H138504   4.452   1.415   0.760  1.3186 -0.5793  1.3045
 5671TIP3    H238505   4.389   1.342   0.644  0.3870  1.6042  0.4055
 5672TIP3   OH238506   5.896   3.803  11.385  0.9373 -0.0290  0.4770
 5672TIP3    H138507   5.984   3.770  11.406  0.8736  1.1624  2.7531
 5672TIP3    H238508   5.906   3.898  11.385 -0.4326  0.1265  1.1737
 5673TIP3   OH238509   0.388   4.120   3.077  0.6638  0.1589 -0.7661
 5673TIP3    H138510   0.426   4.047   3.125 -2.5072  0.8898  3.0977
 5673TIP3    H238511   0.441   4.196   3.102 -0.7021  0.4564  1.3676
 5674TIP3   OH238512   3.638   5.061  11.506 -0.2175  0.3585  0.3571
 5674TIP3    H138513   3.649   4.976  11.548  1.6850  0.2177 -0.3784
 5674TIP3    H238514   3.683   5.122  11.563  0.0628  0.5715 -0.0880
 5675TIP3   OH238515   2.931   1.427   5.344  0.1306  0.0014 -0.1115
 5675TIP3    H138516   2.952   1.447   5.436  1.6791  0.2325 -0.4958
 5675TIP3    H238517   2.968   1.501   5.296  0.7878 -0.9376 -1.0610
 5676TIP3   OH238518   1.126   0.011  15.843 -0.1085  0.4697  0.4196
 5676TIP3    H138519   1.045   0.053  15.815 -0.8801 -2.1095 -1.3909
 5676TIP3    H238520   1.100  -0.046  15.915  0.0956 -0.2969 -0.1061
 5677TIP3   OH238521   0.851   2.853   3.870 -0.2504  0.0665  0.3231
 5677TIP3    H138522   0.801   2.847   3.952 -1.3700  1.8771 -0.2022
 5677TIP3    H238523   0.842   2.944   3.843  0.0933 -0.5198 -1.8477
 5678TIP3   OH238524   2.857   0.639   2.975  0.4963  0.2121 -0.0129
 5678TIP3    H138525   2.897   0.553   2.962  0.2071  0.2941 -1.4983
 5678TIP3    H238526   2.801   0.652   2.899  0.4086  1.6425  0.2700
 5679TIP3   OH238527   1.098   5.375   4.210  0.0932 -0.5411 -0.2260
 5679TIP3    H138528   1.038   5.388   4.284 -0.2226  1.5103 -0.7985
 5679TIP3    H238529   1.185   5.391   4.246  0.0697 -1.0611  0.0551
 5680TIP3   OH238530   3.020   2.498  12.323  0.4002  0.1170  0.5616
 5680TIP3    H138531   2.997   2.451  12.243  0.7846  1.4745 -0.3530
 5680TIP3    H238532   3.047   2.429  12.384 -2.4393 -1.2016  0.4261
 5681TIP3   OH238533   5.142   5.298   1.529 -0.5840  0.1511 -0.0140
 5681TIP3    H138534   5.050   5.308   1.503 -0.3403  0.5256 -0.7738
 5681TIP3    H238535   5.156   5.204   1.533 -0.9845  0.0930  0.0333
 5682TIP3   OH238536   4.472   2.437  11.970  0.0277 -0.0139 -0.2902
 5682TIP3    H138537   4.455   2.372  11.902  2.0059  0.5921 -1.3943
 5682TIP3    H238538   4.468   2.387  12.052  0.6264 -1.3618 -1.0635
 5683TIP3   OH238539   5.756   3.016  13.894  0.1796  0.7658  0.2361
 5683TIP3    H138540   5.852   3.011  13.887 -0.1366 -1.6956 -3.8991
 5683TIP3    H238541   5.737   2.981  13.981  2.8502 -3.1201 -0.5964
 5684TIP3   OH238542   2.336   4.451  13.451  0.3229 -0.1909  0.4873
 5684TIP3    H138543   2.251   4.458  13.495  1.0001  3.0696  1.3598
 5684TIP3    H238544   2.327   4.505  13.373  0.4220 -2.8464 -1.4312
 5685TIP3   OH238545   5.428   3.424  11.355 -0.2445  0.7455 -0.0543
 5685TIP3    H138546   5.349   3.408  11.407  0.0623  0.4511  0.3352
 5685TIP3    H238547   5.396   3.457  11.272 -0.8233 -0.1530 -0.2005
 5686TIP3   OH238548   5.087   2.990  14.470 -0.1822 -0.1595 -0.3442
 5686TIP3    H138549   5.064   2.928  14.401 -0.3128 -0.8643  0.3207
 5686TIP3    H238550   5.072   2.942  14.552  0.4003  0.5104  0.1698
 5687TIP3   OH238551   2.134   3.100  14.475  0.0904  0.0415  0.1485
 5687TIP3    H138552   2.107   3.146  14.397  1.8155  1.4616  0.3488
 5687TIP3    H238553   2.085   3.018  14.474  0.0939  0.0586 -2.3992
 5688TIP3   OH238554   6.705   6.550  12.065 -0.0624  0.3427  0.1246
 5688TIP3    H138555   6.659   6.519  11.987 -0.4197  1.2059 -0.0100
 5688TIP3    H238556   6.732   6.470  12.110  0.1186 -0.1563 -0.8673
 5689TIP3   OH238557   2.422   5.542  14.880  0.2650  0.0895 -0.4171
 5689TIP3    H138558   2.473   5.550  14.800  0.2130  0.5642 -0.4044
 5689TIP3    H238559   2.484   5.558  14.951 -0.0381  1.4065 -0.4257
 5690TIP3   OH238560   2.810   3.930   4.602  0.2109  0.0719  0.8311
 5690TIP3    H138561   2.851   3.869   4.664  1.1504 -0.2667 -0.1113
 5690TIP3    H238562   2.815   4.015   4.646  1.1930 -0.1036  1.0778
 5691TIP3   OH238563   3.897   3.110  12.055  0.6236 -0.3107 -0.2477
 5691TIP3    H138564   3.992   3.120  12.061  0.2476  2.4398  1.5665
 5691TIP3    H238565   3.867   3.106  12.145 -1.1471  0.4347 -0.7847
 5692TIP3   OH238566   6.609   5.929  15.060  0.2860 -0.2218 -0.4559
 5692TIP3    H138567   6.541   5.948  15.124  1.2652 -0.3722  0.6350
 5692TIP3    H238568   6.612   5.833  15.056 -0.1127 -0.2134 -1.1048
 5693TIP3   OH238569   1.164   0.496  12.821  0.1309  0.0924  0.6623
 5693TIP3    H138570   1.139   0.477  12.911  0.5435 -0.5115  0.6530
 5693TIP3    H238571   1.204   0.583  12.824  1.5668 -0.5759  1.3240
 5694TIP3   OH238572   3.562   6.771  15.323 -0.3610  0.3716 -0.2259
 5694TIP3    H138573   3.625   6.784  15.394 -1.8772 -2.3541  1.7115
 5694TIP3    H238574   3.615   6.751  15.247  1.2141  0.3637  0.8527
 5695TIP3   OH238575   4.416   5.530   5.709 -0.9207 -0.6871  0.4079
 5695TIP3    H138576   4.377   5.612   5.679 -0.6454 -0.7019  0.0095
 5695TIP3    H238577   4.511   5.542   5.698 -0.8314 -0.7785  1.0486
 5696TIP3   OH238578   5.844   5.694   5.013 -0.8090 -0.2087 -0.4096
 5696TIP3    H138579   5.889   5.683   5.096 -1.2544 -2.4689 -0.4377
 5696TIP3    H238580   5.753   5.713   5.036 -0.6851  0.3139 -0.3645
 5697TIP3   OH238581   5.003   1.312   3.033 -0.4769  0.3293  0.2472
 5697TIP3    H138582   5.060   1.389   3.039 -0.3854  0.6295 -3.3203
 5697TIP3    H238583   4.916   1.345   3.054  0.1564  0.4618  2.8974
 5698TIP3   OH238584   3.465   5.107  15.096 -0.0804  0.5969  0.5965
 5698TIP3    H138585   3.389   5.115  15.153  1.0671 -0.7519  2.3629
 5698TIP3    H238586   3.475   5.013  15.080  1.2393  0.7447  0.4276
 5699TIP3   OH238587   2.556   6.180  15.437 -0.0282  0.3325 -0.5264
 5699TIP3    H138588   2.503   6.257  15.457 -0.0307  0.2927 -0.3784
 5699TIP3    H238589   2.503   6.106  15.466  0.1178  0.2941 -0.3532
 5700TIP3   OH238590   3.286   3.651  15.124 -0.3633  0.7910  0.3784
 5700TIP3    H138591   3.326   3.654  15.037 -0.7712  0.3401  0.1736
 5700TIP3    H238592   3.246   3.737  15.135  0.1470  1.0364  0.3409
 5701TIP3   OH238593   3.523   0.653   3.154 -0.1208 -0.4739 -0.0800
 5701TIP3    H138594   3.533   0.703   3.073 -3.4800  1.2083  0.4306
 5701TIP3    H238595   3.550   0.714   3.223 -4.9290  1.0625  0.6047
 5702TIP3   OH238596   4.003   4.278   5.611 -0.4729 -0.2523 -0.1255
 5702TIP3    H138597   4.021   4.231   5.693  0.9176  1.0831  0.3639
 5702TIP3    H238598   4.085   4.271   5.562 -0.7112  0.4871 -0.6258
 5703TIP3   OH238599   0.291   4.806  11.304 -0.4517 -0.5380  0.1600
 5703TIP3    H138600   0.328   4.737  11.359 -0.3353 -0.2502  0.4405
 5703TIP3    H238601   0.209   4.830  11.347 -0.1068  0.0500  0.4904
 5704TIP3   OH238602   0.312   3.670   6.498  0.2484 -0.2587  0.4937
 5704TIP3    H138603   0.332   3.579   6.519  0.3492 -0.5631 -0.8871
 5704TIP3    H238604   0.338   3.719   6.576  0.7652 -1.3324  1.0049
 5705TIP3   OH238605   5.094   5.853  16.463  0.0377 -0.6379 -1.2281
 5705TIP3    H138606   5.167   5.812  16.510 -1.2785 -1.4202  0.2179
 5705TIP3    H238607   5.129   5.936  16.432  0.3926  0.9892  3.1509
 5706TIP3   OH238608   2.092   3.990  14.262 -0.0052 -0.2578  0.2877
 5706TIP3    H138609   2.130   3.971  14.176  0.4337  2.1164 -0.0810
 5706TIP3    H238610   2.013   4.040  14.243 -2.5474 -3.7266  1.1243
 5707TIP3   OH238611   5.708   2.833   1.759 -0.1768  0.4528 -0.2622
 5707TIP3    H138612   5.686   2.860   1.670 -2.2166  1.2433  0.4608
 5707TIP3    H238613   5.647   2.881   1.815 -0.8044 -2.1420  1.3627
 5708TIP3   OH238614   6.805   1.914   4.253 -0.1664  0.0700  0.2360
 5708TIP3    H138615   6.768   1.826   4.250 -0.4937  0.2097  0.2445
 5708TIP3    H238616   6.832   1.931   4.163  0.1360 -0.1389  0.2831
 5709TIP3   OH238617   5.068   0.520  15.107  0.6703  0.3357 -0.1139
 5709TIP3    H138618   4.993   0.557  15.153 -2.5421 -2.2262 -2.9859
 5709TIP3    H238619   5.104   0.593  15.056 -0.4418  1.3572  0.5451
 5710TIP3   OH238620   0.563   2.869  15.875  0.2663  0.1055  0.6261
 5710TIP3    H138621   0.614   2.789  15.876 -0.4163 -0.3203  2.9666
 5710TIP3    H238622   0.626   2.938  15.854  1.8507 -0.3894  3.5794
 5711TIP3   OH238623   3.168   5.966   0.914  0.0288  0.5065  0.3171
 5711TIP3    H138624   3.077   5.988   0.898 -0.1152 -0.0115  0.4289
 5711TIP3    H238625   3.208   5.961   0.827 -0.1743  0.2035  0.2390
 5712TIP3   OH238626   2.038   6.254   1.636 -0.3558  0.7842  0.5797
 5712TIP3    H138627   2.117   6.237   1.686 -1.1526 -1.0075  1.2552
 5712TIP3    H238628   2.059   6.226   1.547 -0.2663  0.2298  0.7776
 5713TIP3   OH238629   0.581   5.745   2.036 -0.6208 -0.1198  0.2091
 5713TIP3    H138630   0.648   5.765   1.970 -1.1424  1.8998  0.2539
 5713TIP3    H238631   0.569   5.651   2.030 -1.5966  0.1701 -3.4805
 5714TIP3   OH238632   6.544   1.887   4.846 -0.5087 -0.2603  0.0580
 5714TIP3    H138633   6.609   1.914   4.781 -2.7086 -0.2667 -2.2135
 5714TIP3    H238634   6.563   1.794   4.861  2.5559  0.6742  2.5416
 5715TIP3   OH238635   4.327   4.795  16.192  0.7253  0.0826 -0.2220
 5715TIP3    H138636   4.326   4.721  16.131 -0.1659 -0.2054  0.1283
 5715TIP3    H238637   4.419   4.819  16.199  1.0239 -0.9831 -0.3596
 5716TIP3   OH238638   4.687   4.323  15.479 -0.0877  0.5228  0.5750
 5716TIP3    H138639   4.696   4.352  15.388 -0.5074  1.0867  0.7106
 5716TIP3    H238640   4.646   4.237  15.472  1.0532 -0.0069  0.1768
 5717TIP3   OH238641   4.820   2.340   2.150 -0.7805 -0.2174  0.4592
 5717TIP3    H138642   4.791   2.262   2.104 -2.6744  0.3665  0.6327
 5717TIP3    H238643   4.755   2.407   2.128  0.0468  0.9269  1.4253
 5718TIP3   OH238644   5.951   2.054   0.000  0.6253  0.1942 -0.4472
 5718TIP3    H138645   6.003   2.125   0.038 -0.4773  0.5834  0.3530
 5718TIP3    H238646   5.970   2.059  -0.094  1.1336  1.0709 -0.3085
 5719TIP3   OH238647   0.261   6.040  10.920  0.0451 -0.3934  0.6392
 5719TIP3    H138648   0.305   6.111  10.968  0.7734 -0.7507  0.5135
 5719TIP3    H238649   0.174   6.075  10.900  1.0608  1.2224 -1.1130
 5720TIP3   OH238650   3.692   0.702  15.850  0.7322  0.1609  0.0133
 5720TIP3    H138651   3.784   0.704  15.823  0.5008 -0.3988 -0.8243
 5720TIP3    H238652   3.642   0.716  15.769  0.0452 -1.3968  0.1398
 5721TIP3   OH238653   5.070   0.551   0.070  0.3421 -0.2618 -0.1364
 5721TIP3    H138654   5.163   0.574   0.077 -0.4597  2.2084  3.4568
 5721TIP3    H238655   5.035   0.610   0.003  1.1786 -0.7176 -0.9895
 5722TIP3   OH238656   1.249   3.819  13.518  0.1680 -0.1988 -0.7089
 5722TIP3    H138657   1.256   3.867  13.601  3.0026 -0.0643 -0.9504
 5722TIP3    H238658   1.164   3.843  13.483 -0.2245  1.3381  1.1999
 5723TIP3   OH238659   5.009   5.807  11.080  0.7516  0.6854  0.0380
 5723TIP3    H138660   5.016   5.774  10.990  1.3041  1.6810 -0.2904
 5723TIP3    H238661   5.033   5.899  11.073  0.7560  0.7732  1.2103
 5724TIP3   OH238662   3.824   6.459   0.071  0.2167  0.3175  0.1654
 5724TIP3    H138663   3.820   6.552   0.092  0.7791  0.1303  1.1563
 5724TIP3    H238664   3.734   6.428   0.084  0.2291  0.5320  0.7988
 5725TIP3   OH238665   2.625   3.158  15.552 -0.1318 -0.3121  0.5081
 5725TIP3    H138666   2.641   3.085  15.612 -0.3487 -2.1921 -1.6700
 5725TIP3    H238667   2.698   3.154  15.491  0.2731  1.8113  0.8270
 5726TIP3   OH238668   1.924   3.929  17.041 -0.8301 -0.1124 -0.5952
 5726TIP3    H138669   2.018   3.918  17.025 -0.6330  0.7163 -0.1027
 5726TIP3    H238670   1.913   4.024  17.046 -1.4835 -0.2390  0.5197
 5727TIP3   OH238671   5.091   6.320   0.675  0.0181 -0.1937 -0.0449
 5727TIP3    H138672   5.064   6.237   0.635 -0.0405 -0.7130  1.0514
 5727TIP3    H238673   5.030   6.332   0.748  0.4455  0.4768  0.2021
 5728TIP3   OH238674   6.404   5.527   1.337 -0.7312 -0.6403  0.0748
 5728TIP3    H138675   6.388   5.433   1.342  0.0032 -0.7551  0.2831
 5728TIP3    H238676   6.326   5.567   1.377 -0.7835 -1.1689  0.5016
 5729TIP3   OH238677   5.604   3.507  10.803 -0.4482 -0.5504  0.1390
 5729TIP3    H138678   5.639   3.499  10.892 -1.5092 -2.0066  0.4319
 5729TIP3    H238679   5.559   3.424  10.787 -0.5223 -0.1877 -1.6554
 5730TIP3   OH238680   2.789   2.931   0.844 -0.4276 -0.3644 -0.3816
 5730TIP3    H138681   2.881   2.952   0.861 -0.4280 -0.6964  0.0521
 5730TIP3    H238682   2.740   3.002   0.886 -0.3439  0.4322 -1.5912
 5731TIP3   OH238683   5.879   3.137   5.395  0.3403 -0.0826  0.2812
 5731TIP3    H138684   5.885   3.216   5.450 -0.3751  0.5812 -0.5730
 5731TIP3    H238685   5.817   3.161   5.326  1.7644 -0.6623 -1.2326
 5732TIP3   OH238686   3.520   5.298  12.021 -0.1008  0.3636  0.2474
 5732TIP3    H138687   3.464   5.335  11.953  1.0016  2.0873  0.2504
 5732TIP3    H238688   3.552   5.216  11.984 -2.5172 -0.6168  0.2093
 5733TIP3   OH238689   2.396   2.619  13.375 -0.1877  0.0202  0.2426
 5733TIP3    H138690   2.483   2.618  13.415 -0.0775  1.9872  0.1220
 5733TIP3    H238691   2.412   2.610  13.281 -0.0336  1.1885  0.1431
 5734TIP3   OH238692   6.712   2.866  14.192 -0.1561 -0.0178  0.3298
 5734TIP3    H138693   6.728   2.782  14.150  0.0465  1.2184 -2.1397
 5734TIP3    H238694   6.791   2.882  14.244  0.7859 -0.3202 -0.9822
 5735TIP3   OH238695   5.500   6.313  15.230  0.2963  0.4229 -0.3494
 5735TIP3    H138696   5.594   6.328  15.240  0.6722 -0.7006 -1.8738
 5735TIP3    H238697   5.494   6.224  15.193 -1.3942  0.1986  0.4022
 5736TIP3   OH238698   0.143   0.187   3.508  0.2396 -0.1225  0.5267
 5736TIP3    H138699   0.047   0.197   3.510  0.3778  1.0059  1.6339
 5736TIP3    H238700   0.164   0.184   3.414 -0.8957 -0.5537  0.2756
 5737TIP3   OH238701   5.503   1.401   2.433  0.2780  0.3913  0.2112
 5737TIP3    H138702   5.531   1.329   2.376 -2.4973 -1.0434  0.5924
 5737TIP3    H238703   5.507   1.478   2.377  3.8140  0.1144 -0.0568
 5738TIP3   OH238704   5.401   2.714   3.827  0.2256  0.0698  0.2921
 5738TIP3    H138705   5.328   2.671   3.782 -2.5342  1.7596  2.9458
 5738TIP3    H238706   5.425   2.787   3.770 -0.4399 -0.2670 -0.4335
 5739TIP3   OH238707   2.841   3.540  10.790  0.4378 -0.0640 -0.3955
 5739TIP3    H138708   2.934   3.548  10.814  0.3872 -0.2887 -0.1232
 5739TIP3    H238709   2.840   3.479  10.717  0.5682  0.4260 -0.8137
 5740TIP3   OH238710   0.464   3.514  15.049  0.2407 -0.7288  0.0726
 5740TIP3    H138711   0.558   3.496  15.044  0.2981 -0.6713  0.8486
 5740TIP3    H238712   0.449   3.583  14.985  0.6006 -1.2606 -0.5822
 5741TIP3   OH238713   2.880   1.395   2.044 -0.1811 -0.0713  0.3103
 5741TIP3    H138714   2.861   1.302   2.050  0.1576 -0.2432 -1.0676
 5741TIP3    H238715   2.964   1.406   2.089  0.1932 -0.5779 -0.2548
 5742TIP3   OH238716   5.186   4.334  14.093 -0.3632 -0.6443  0.0115
 5742TIP3    H138717   5.144   4.383  14.022 -0.9126 -0.3537  0.5320
 5742TIP3    H238718   5.121   4.269  14.119 -0.8501  0.3507  1.3828
 5743TIP3   OH238719   1.544   3.955  13.654 -0.5998 -0.0049 -0.0501
 5743TIP3    H138720   1.544   3.860  13.666 -1.3524  0.1673  1.4177
 5743TIP3    H238721   1.461   3.984  13.692 -0.2478  1.2684 -0.2325
 5744TIP3   OH238722   3.339   3.439   6.398  0.1183 -0.1724  0.0124
 5744TIP3    H138723   3.280   3.399   6.461  0.3144  2.1123  1.7112
 5744TIP3    H238724   3.301   3.526   6.382  0.4721 -0.4333 -2.4634
 5745TIP3   OH238725   1.998   4.552   1.408 -0.1295 -0.8173 -0.0547
 5745TIP3    H138726   2.027   4.467   1.373  3.3915  0.2769 -0.0159
 5745TIP3    H238727   2.030   4.615   1.343  1.3804  0.7934  2.1908
 5746TIP3   OH238728   0.683   3.444   2.654  0.4001 -0.0489 -0.3441
 5746TIP3    H138729   0.666   3.373   2.716 -0.6286  1.2226  0.8672
 5746TIP3    H238730   0.684   3.523   2.708  0.1648  1.0127 -1.8678
 5747TIP3   OH238731   3.292   3.571   4.321 -0.0509 -0.0243  0.2067
 5747TIP3    H138732   3.226   3.602   4.383  0.2890  0.6326  0.2460
 5747TIP3    H238733   3.245   3.564   4.238 -0.0565  0.9327  0.1203
 5748TIP3   OH238734   2.375   3.456  12.799  0.0541  0.0115 -0.1119
 5748TIP3    H138735   2.443   3.390  12.784  0.6775  0.9970 -1.8211
 5748TIP3    H238736   2.309   3.411  12.852  1.0836 -1.5769 -0.1427
 5749TIP3   OH238737   5.472   0.159   6.563  0.4636  0.1584  0.3623
 5749TIP3    H138738   5.399   0.144   6.503  0.6463 -0.9586  0.4087
 5749TIP3    H238739   5.447   0.237   6.612  0.0601  0.7442 -0.7707
 5750TIP3   OH238740   4.546   6.514  15.032  0.1531 -0.3427  0.7386
 5750TIP3    H138741   4.641   6.507  15.022  0.0473  0.4182 -0.8386
 5750TIP3    H238742   4.533   6.583  15.096  0.6404  0.2593  0.1881
 5751TIP3   OH238743   1.745   6.601  12.823  0.0199 -0.0785 -0.4086
 5751TIP3    H138744   1.663   6.630  12.864  0.5806  1.6721 -0.4749
 5751TIP3    H238745   1.741   6.635  12.734  1.0068  0.3956 -0.2784
 5752TIP3   OH238746   3.121   3.827   2.532 -0.1025  0.2574 -0.6181
 5752TIP3    H138747   3.158   3.821   2.619 -1.7621  1.6507  0.2116
 5752TIP3    H238748   3.041   3.775   2.536 -1.0439  1.6477 -0.7996
 5753TIP3   OH238749   3.881   6.718  14.293  0.2344  0.6612  0.1769
 5753TIP3    H138750   3.899   6.656  14.221  0.0059  0.4618  0.2904
 5753TIP3    H238751   3.967   6.756  14.313  0.7596 -1.1977  1.5630
 5754TIP3   OH238752   4.892   2.096   1.281  0.1864  0.3885  0.3028
 5754TIP3    H138753   4.918   2.060   1.197  0.4743 -0.3879  0.7187
 5754TIP3    H238754   4.969   2.144   1.311  0.7499 -0.9137  0.9851
 5755TIP3   OH238755   2.165   0.272  14.538 -0.1470 -0.6309 -0.2608
 5755TIP3    H138756   2.245   0.316  14.509  0.1182 -1.1652 -0.3443
 5755TIP3    H238757   2.130   0.330  14.606 -0.5145  0.3775 -1.3034
 5756TIP3   OH238758   4.552   6.474   3.989 -0.3757  0.1617  0.8967
 5756TIP3    H138759   4.545   6.484   3.894 -0.7740  4.3910  1.2678
 5756TIP3    H238760   4.617   6.405   4.001 -1.2326 -1.3303 -2.4198
 5757TIP3   OH238761   3.833   4.359   0.879 -0.0002 -0.3265  0.6485
 5757TIP3    H138762   3.755   4.349   0.932 -1.4581  0.7391 -1.2311
 5757TIP3    H238763   3.845   4.274   0.836 -1.6469  0.2814 -1.0561
 5758TIP3   OH238764   4.927   6.209   4.966 -0.0916  0.0965 -0.2160
 5758TIP3    H138765   4.977   6.191   5.046  1.1752  1.2683 -0.7345
 5758TIP3    H238766   4.993   6.230   4.900 -1.2549  1.7298 -0.8951
 5759TIP3   OH238767   0.669   5.741   5.247  0.0378  0.5802 -0.3863
 5759TIP3    H138768   0.762   5.726   5.260  0.0876  0.5960 -0.7177
 5759TIP3    H238769   0.626   5.676   5.302  0.2351  1.4370  0.8143
 5760TIP3   OH238770   2.379   2.787  16.149  0.0701  0.5384 -0.2526
 5760TIP3    H138771   2.327   2.819  16.223 -0.9364 -2.7058  0.5667
 5760TIP3    H238772   2.445   2.731  16.189 -1.8904 -3.0957 -1.8097
 5761TIP3   OH238773   6.132   4.243  16.350 -0.2542  0.2282 -0.0329
 5761TIP3    H138774   6.184   4.168  16.379  1.2298  2.0812  2.3127
 5761TIP3    H238775   6.180   4.276  16.274  1.1708  0.9810  1.1658
 5762TIP3   OH238776   0.464   0.024  15.974  0.2431  0.0580 -0.7191
 5762TIP3    H138777   0.415  -0.049  16.014 -1.7981  1.2918 -0.9075
 5762TIP3    H238778   0.471   0.000  15.881  0.0878 -0.1627 -0.6745
 5763TIP3   OH238779   4.694   5.984   2.455  0.2383  0.2286  0.2171
 5763TIP3    H138780   4.714   5.939   2.537  0.7197 -0.2903 -0.1803
 5763TIP3    H238781   4.666   6.071   2.482  2.8416  0.9172  0.7960
 5764TIP3   OH238782   5.008   1.676  16.333  0.3876 -0.1250 -0.0048
 5764TIP3    H138783   5.013   1.613  16.405  1.2853 -0.7271 -0.5952
 5764TIP3    H238784   5.092   1.721  16.335 -0.1617  0.9183  0.2672
 5765TIP3   OH238785   3.202   5.974  11.184 -0.1643 -0.5357 -0.3156
 5765TIP3    H138786   3.197   5.902  11.122 -1.1260  0.4252 -1.3833
 5765TIP3    H238787   3.260   6.038  11.142  1.5390 -1.1153  1.0903
 5766TIP3   OH238788   6.219   4.244   0.282 -0.1026 -0.9704 -0.1327
 5766TIP3    H138789   6.221   4.163   0.333 -0.0298 -0.4632  0.6723
 5766TIP3    H238790   6.218   4.214   0.191 -1.7083 -1.8963  0.1754
 5767TIP3   OH238791   3.091   0.681   6.039  0.4184  0.3287 -0.5603
 5767TIP3    H138792   3.163   0.652   5.983 -0.0074 -1.5848 -0.1653
 5767TIP3    H238793   3.133   0.721   6.114  1.1511 -2.2448  0.4582
 5768TIP3   OH238794   3.224   6.028  16.993 -0.3066 -0.0838 -0.1009
 5768TIP3    H138795   3.198   6.083  17.068 -0.9706  0.1960 -0.5216
 5768TIP3    H238796   3.296   6.076  16.952 -0.4124  0.1185 -0.0519
 5769TIP3   OH238797   0.137   1.758   1.878 -0.3584 -0.1445  0.8842
 5769TIP3    H138798   0.075   1.720   1.817  0.9049 -0.6622 -0.1052
 5769TIP3    H238799   0.134   1.701   1.955 -1.2865 -0.0182  0.9390
 5770TIP3   OH238800   3.102   4.640   2.684 -0.1369  0.3782 -0.5344
 5770TIP3    H138801   3.044   4.607   2.615 -1.3844  0.8318  0.2680
 5770TIP3    H238802   3.070   4.728   2.703  1.7711  1.2182 -1.0966
 5771TIP3   OH238803   6.444   6.639  17.013 -0.0761 -0.1853  0.2649
 5771TIP3    H138804   6.482   6.724  17.036  0.3713 -0.4563  0.5413
 5771TIP3    H238805   6.447   6.637  16.917 -0.1727  0.1479  0.2553
 5772TIP3   OH238806   6.296   3.426  12.216 -0.0426  0.8637  0.0096
 5772TIP3    H138807   6.274   3.511  12.253  0.5938  0.5551  1.0982
 5772TIP3    H238808   6.238   3.418  12.139  0.7527  2.7946 -0.8208
 5773TIP3   OH238809   2.713   0.722  11.481  0.4155  0.3738  0.0055
 5773TIP3    H138810   2.632   0.744  11.526 -0.7573 -1.3872 -1.1660
 5773TIP3    H238811   2.685   0.690  11.395  2.3352 -0.2654 -0.4156
 5774TIP3   OH238812   6.130   5.000  14.356 -0.0041 -0.4555 -0.0788
 5774TIP3    H138813   6.067   4.931  14.333 -0.3153 -0.7572  1.5440
 5774TIP3    H238814   6.178   4.963  14.431  2.6122 -0.5163 -1.7385
 5775TIP3   OH238815   1.173   5.147   1.398  0.2353 -0.0851  0.1365
 5775TIP3    H138816   1.196   5.186   1.313  0.3693  0.9918  0.6641
 5775TIP3    H238817   1.106   5.082   1.377  0.4202  0.0291 -0.8255
 5776TIP3   OH238818   1.031   3.670   1.423  0.2438  0.3036  0.3396
 5776TIP3    H138819   1.035   3.594   1.481  1.8261  0.4250  0.4107
 5776TIP3    H238820   1.034   3.745   1.483 -2.1793  0.4432  0.3236
 5777TIP3   OH238821   2.147   0.458  14.767  0.1477  0.7430 -0.7591
 5777TIP3    H138822   2.150   0.506  14.685  1.8494  1.6223 -0.2025
 5777TIP3    H238823   2.218   0.395  14.760 -0.0429  0.4640 -0.1761
 5778TIP3   OH238824   6.460   2.642   0.738 -0.6551 -0.0400 -0.0281
 5778TIP3    H138825   6.386   2.657   0.797 -0.7005  1.8427 -0.5272
 5778TIP3    H238826   6.420   2.636   0.651 -0.2093  1.4479 -0.3563
 5779TIP3   OH238827   5.592   4.330  16.058 -0.1919  0.3615  0.2602
 5779TIP3    H138828   5.584   4.383  15.979  0.3818  0.4877  0.2834
 5779TIP3    H238829   5.563   4.387  16.129 -0.2019  0.4262  0.2043
 5780TIP3   OH238830   4.448   2.407  15.663 -0.8041  0.4431 -0.0504
 5780TIP3    H138831   4.386   2.359  15.609  0.9616 -2.5435  0.4852
 5780TIP3    H238832   4.416   2.394  15.753 -1.2454  1.6791 -0.0208
 5781TIP3   OH238833   3.261   5.643  16.331  0.3067 -0.3529 -0.4113
 5781TIP3    H138834   3.284   5.628  16.423 -1.0510 -2.0182 -0.3135
 5781TIP3    H238835   3.197   5.714  16.334  0.7190  0.0050 -0.1148
 5782TIP3   OH238836   3.801   4.536   2.880  0.4795  0.3036 -0.3721
 5782TIP3    H138837   3.810   4.442   2.891  0.3520  0.3332 -0.0228
 5782TIP3    H238838   3.885   4.572   2.911  0.8092  0.2496 -1.1961
 5783TIP3   OH238839   0.840   4.670  13.942  0.3908  0.3210 -0.0673
 5783TIP3    H138840   0.752   4.704  13.958  0.3836  0.5695 -0.6107
 5783TIP3    H238841   0.835   4.635  13.852  0.4453 -0.9448  0.4049
 5784TIP3   OH238842   4.282   6.809  13.776 -0.6094  0.2561  0.3271
 5784TIP3    H138843   4.242   6.737  13.727 -1.3520  1.1480 -0.4156
 5784TIP3    H238844   4.361   6.831  13.726  0.1713 -0.7249  1.1311
 5785TIP3   OH238845   6.222   5.059  15.388 -0.1101 -0.2525 -0.8325
 5785TIP3    H138846   6.172   5.126  15.341 -1.1219 -1.2750 -1.2341
 5785TIP3    H238847   6.155   4.998  15.421  0.5769  0.3664  1.8186
 5786TIP3   OH238848   0.820   6.701   5.791 -0.2532 -0.0572 -0.5560
 5786TIP3    H138849   0.773   6.621   5.816 -0.4274  0.0390 -0.5737
 5786TIP3    H238850   0.822   6.753   5.871 -1.3855  0.5331 -0.9005
 5787TIP3   OH238851   2.884   2.100  10.918  0.5719 -0.3297 -0.5899
 5787TIP3    H138852   2.915   2.010  10.913 -0.2457 -0.5883 -0.9698
 5787TIP3    H238853   2.939   2.147  10.855 -0.0353 -0.8648 -1.5461
 5788TIP3   OH238854   6.619   3.667   2.441 -0.5207 -0.2537 -0.4111
 5788TIP3    H138855   6.698   3.721   2.438 -2.1401  2.1039 -2.3615
 5788TIP3    H238856   6.644   3.586   2.396  1.0076  0.1474 -0.3138
 5789TIP3   OH238857   4.147   2.108   6.297  0.2383  0.2372  0.6475
 5789TIP3    H138858   4.101   2.192   6.296  0.1243  0.1772 -1.2205
 5789TIP3    H238859   4.077   2.043   6.307  0.3043  0.3438  1.8503
 5790TIP3   OH238860   0.068   5.571  13.909  0.5579  0.4976  0.2842
 5790TIP3    H138861   0.117   5.597  13.830  0.0986 -0.4246 -0.3104
 5790TIP3    H238862  -0.023   5.591  13.888  0.5471  1.1779  0.9690
 5791TIP3   OH238863   1.070   4.557  12.756  0.0930 -0.2468 -0.6086
 5791TIP3    H138864   1.133   4.535  12.825  1.9194  1.7785 -1.5848
 5791TIP3    H238865   1.117   4.540  12.675 -0.8853  0.6447 -1.3652
 5792TIP3   OH238866   4.652   5.145  16.816  0.5074 -0.0579  0.4411
 5792TIP3    H138867   4.644   5.201  16.894 -2.7403 -0.8629  0.7725
 5792TIP3    H238868   4.681   5.060  16.850 -0.2276 -0.2119  0.6934
 5793TIP3   OH238869   4.643   4.092  17.157 -0.0113 -0.4440 -0.3436
 5793TIP3    H138870   4.569   4.132  17.111  0.8540 -1.4030 -2.6789
 5793TIP3    H238871   4.646   4.136  17.242 -1.3340  1.7924 -1.4156
 5794TIP3   OH238872   5.674   3.903   0.304  0.1235 -0.3688  0.5786
 5794TIP3    H138873   5.732   3.969   0.343  0.5769 -0.1788 -0.3955
 5794TIP3    H238874   5.733   3.847   0.253 -0.6033  0.1442 -0.8593
 5795TIP3   OH238875   1.529   4.205   4.943 -0.2404 -0.1692 -0.6343
 5795TIP3    H138876   1.486   4.221   4.859 -1.1628  0.0711 -0.1147
 5795TIP3    H238877   1.464   4.159   4.996  0.3750 -0.4129 -0.0831
 5796TIP3   OH238878   6.496   6.530  12.815 -1.0166  0.3713 -0.1058
 5796TIP3    H138879   6.557   6.527  12.741 -0.8540  1.1155 -0.0007
 5796TIP3    H238880   6.492   6.439  12.846  0.2185  0.3524  0.0305
 5797TIP3   OH238881   3.350   4.131  12.241  0.0238 -0.4120 -0.2576
 5797TIP3    H138882   3.294   4.207  12.228  1.5653  0.3626 -2.6121
 5797TIP3    H238883   3.289   4.059  12.258 -1.6879  0.4671 -2.4948
 5798TIP3   OH238884   3.235   5.116  17.138  0.1361  0.0354 -0.2559
 5798TIP3    H138885   3.215   5.138  17.047 -0.7365  0.8090  0.1212
 5798TIP3    H238886   3.201   5.189  17.188  0.0121 -0.7140  0.7567
 5799TIP3   OH238887   2.570   4.744  13.594 -0.4123 -0.4014 -0.2712
 5799TIP3    H138888   2.550   4.760  13.686 -2.2963 -0.6491 -0.6156
 5799TIP3    H238889   2.505   4.795  13.545 -0.5840 -1.6874 -1.4362
 5800TIP3   OH238890   3.953   5.465  13.695 -0.8786  0.3790  0.1557
 5800TIP3    H138891   4.006   5.385  13.690 -0.5974  0.5217  0.8001
 5800TIP3    H238892   4.004   5.531  13.648 -0.5753  0.4646  0.6026
 5801TIP3   OH238893   2.847   4.252   5.700 -0.3741  0.0444  0.1594
 5801TIP3    H138894   2.911   4.268   5.769 -0.0167  1.9807 -0.5673
 5801TIP3    H238895   2.802   4.172   5.726 -0.1787  0.6894  2.5920
 5802TIP3   OH238896   6.664   3.112   2.832  0.3788  0.1313 -0.2651
 5802TIP3    H138897   6.750   3.139   2.798  0.4934 -0.1195 -0.1754
 5802TIP3    H238898   6.602   3.163   2.780  0.6265  1.6249  0.8544
 5803TIP3   OH238899   2.146   5.358  16.645 -0.1217  0.3795  0.0836
 5803TIP3    H138900   2.073   5.358  16.583 -0.9783  1.4452  1.0536
 5803TIP3    H238901   2.150   5.268  16.678 -2.1217  0.6757  1.2732
 5804TIP3   OH238902   1.945   6.648   2.750 -0.3281  0.0202  0.2856
 5804TIP3    H138903   1.913   6.628   2.838  1.8789 -0.9039  0.9143
 5804TIP3    H238904   1.888   6.599   2.692 -0.8118 -0.6243  1.2942
 5805TIP3   OH238905   2.729   5.127  15.008 -0.0626 -0.1937  0.1817
 5805TIP3    H138906   2.755   5.039  14.980  0.9916  0.3977 -0.6923
 5805TIP3    H238907   2.726   5.121  15.104  0.4295 -1.0658  0.1514
 5806TIP3   OH238908   3.006   5.354   5.733  0.5354 -0.0360 -0.0390
 5806TIP3    H138909   2.953   5.280   5.701 -0.1533  0.1376  0.6913
 5806TIP3    H238910   2.988   5.357   5.827 -1.5502  2.7384 -0.4530
 5807TIP3   OH238911   6.385   4.634  11.127 -0.4615  0.1262  0.0530
 5807TIP3    H138912   6.426   4.707  11.173 -1.5721 -0.0391  1.3482
 5807TIP3    H238913   6.417   4.641  11.037  0.9339  1.0676  0.6064
 5808TIP3   OH238914   2.406   6.284   3.573 -0.3708 -0.6608  0.5386
 5808TIP3    H138915   2.440   6.350   3.633  0.2934 -0.5703  0.0655
 5808TIP3    H238916   2.437   6.311   3.487  0.7271 -2.1051  0.4563
 5809TIP3   OH238917   0.769   2.445   5.654 -0.2385 -0.1736  0.4805
 5809TIP3    H138918   0.860   2.438   5.625  0.0552  1.1077  1.0818
 5809TIP3    H238919   0.760   2.378   5.722  0.7209  0.8100  1.5905
 5810TIP3   OH238920   5.930   0.356  15.700  0.3796  1.0302  0.4559
 5810TIP3    H138921   5.940   0.359  15.605  1.8386  0.9406  0.5985
 5810TIP3    H238922   5.905   0.266  15.719  0.7379  0.8804  0.2133
 5811TIP3   OH238923   3.005   6.504   4.937 -0.5525  0.4679 -0.1606
 5811TIP3    H138924   3.072   6.437   4.925  0.8628  1.8648 -0.2491
 5811TIP3    H238925   2.933   6.458   4.981  0.3286 -1.1317 -0.3512
 5812TIP3   OH238926   2.371   2.090  16.378  0.5401 -0.4726 -0.2910
 5812TIP3    H138927   2.330   2.104  16.464  0.3223 -0.1465 -0.4431
 5812TIP3    H238928   2.298   2.066  16.321  0.8394 -1.7405 -0.1564
 5813TIP3   OH238929   0.957   5.145   0.494  0.0540 -0.8761 -0.2687
 5813TIP3    H138930   0.879   5.091   0.500 -0.7378  0.2935  0.0146
 5813TIP3    H238931   0.998   5.139   0.580 -0.7580  0.0447  0.1940
 5814TIP3   OH238932   4.847   2.333   4.847 -0.2496  0.1702  0.6926
 5814TIP3    H138933   4.894   2.409   4.812 -0.4822 -0.9091 -2.0997
 5814TIP3    H238934   4.914   2.284   4.895  0.5717  0.6371  0.0379
 5815TIP3   OH238935   2.713   4.018  15.414  0.0996  0.9369 -0.1674
 5815TIP3    H138936   2.780   3.949  15.414 -0.4245  0.4180 -0.2189
 5815TIP3    H238937   2.720   4.058  15.500  0.3393  0.7452 -0.0964
 5816TIP3   OH238938   3.047   3.796  17.259 -0.7102 -0.3323 -0.1518
 5816TIP3    H138939   2.990   3.868  17.285 -1.0623 -0.4692 -0.5290
 5816TIP3    H238940   3.074   3.818  17.170  0.1742 -0.0564  0.1800
 5817TIP3   OH238941   1.953   3.219  14.783 -0.3038 -0.4917 -0.0225
 5817TIP3    H138942   1.954   3.312  14.806  0.5980 -0.6529  0.6202
 5817TIP3    H238943   1.912   3.177  14.858 -0.9687 -0.5794 -0.4367
 5818TIP3   OH238944   5.084   3.550  14.066  0.3982  0.3686  0.2885
 5818TIP3    H138945   5.108   3.632  14.022  1.9262 -1.4022 -2.3759
 5818TIP3    H238946   5.165   3.522  14.110 -0.8325  1.5676  3.4238
 5819TIP3   OH238947   1.831   1.693  11.829  0.3877 -0.4093  0.0514
 5819TIP3    H138948   1.796   1.763  11.774  1.5216  0.8561  0.8993
 5819TIP3    H238949   1.753   1.645  11.859 -0.5055  1.1621  0.3314
 5820TIP3   OH238950   2.369   6.676  12.090 -0.1755 -0.2109  0.0753
 5820TIP3    H138951   2.316   6.608  12.048  0.5596 -0.4985 -0.4056
 5820TIP3    H238952   2.328   6.689  12.175  0.6460 -2.4602  0.8575
 5821TIP3   OH238953   0.605   3.298  11.982  0.1585  0.3716 -0.3196
 5821TIP3    H138954   0.614   3.203  11.981 -0.5593  0.2671  1.3044
 5821TIP3    H238955   0.675   3.328  12.040  0.0140  0.7839 -0.3578
 5822TIP3   OH238956   3.626   3.668   4.625  0.4078 -0.5870 -0.2341
 5822TIP3    H138957   3.604   3.732   4.693 -0.7467 -2.2932  1.0631
 5822TIP3    H238958   3.697   3.616   4.663 -0.5950 -1.8839 -0.0871
 5823TIP3   OH238959   2.191   1.106  13.207  0.0403  0.4101 -0.2024
 5823TIP3    H138960   2.130   1.099  13.133  1.8426 -1.1782 -1.6055
 5823TIP3    H238961   2.208   1.200  13.215 -0.7120  0.6556 -1.3870
 5824TIP3   OH238962   1.369   5.104   0.974 -0.0385 -0.3688 -0.2504
 5824TIP3    H138963   1.379   5.153   0.892 -0.2469 -0.1091 -0.1204
 5824TIP3    H238964   1.344   5.016   0.946 -1.1864  0.0019 -0.4296
 5825TIP3   OH238965   6.734   0.013  14.614 -1.2320 -0.3339 -0.5860
 5825TIP3    H138966   6.651   0.050  14.643 -0.9352  0.2436 -0.4655
 5825TIP3    H238967   6.800   0.054  14.670 -0.7763 -0.1135 -1.2708
 5826TIP3   OH238968   3.703   1.159  15.813  0.4272  0.7002 -0.2681
 5826TIP3    H138969   3.693   1.170  15.908 -0.2131  1.1920 -0.3893
 5826TIP3    H238970   3.797   1.148  15.800  0.2079 -3.8539  0.9268
 5827TIP3   OH238971   0.354   3.754  15.992 -0.3827  0.6187  0.3662
 5827TIP3    H138972   0.410   3.735  16.068 -0.4204  0.2595  0.3046
 5827TIP3    H238973   0.312   3.838  16.014 -0.7723  0.2752  0.9552
 5828TIP3   OH238974   0.290   1.949  16.460  0.3060  0.0892  0.1188
 5828TIP3    H138975   0.257   1.883  16.521  0.8789  0.6402  1.0451
 5828TIP3    H238976   0.211   1.995  16.430 -0.0492 -0.7052 -0.1740
 5829TIP3   OH238977   5.944   0.630   4.379 -0.6773 -0.6013  0.3929
 5829TIP3    H138978   5.871   0.651   4.321  0.2798  0.9225 -0.2919
 5829TIP3    H238979   5.954   0.707   4.435 -0.3309 -1.2628  1.2572
 5830TIP3   OH238980   5.046   1.583  13.824  0.3165 -0.4069  0.0645
 5830TIP3    H138981   4.981   1.527  13.781  0.9266 -0.4261 -0.8420
 5830TIP3    H238982   5.119   1.525  13.843  1.0196  0.0997 -1.0238
 5831TIP3   OH238983   4.523   2.102   1.834 -0.8149  0.2328  0.3087
 5831TIP3    H138984   4.432   2.111   1.806 -0.2982 -0.0042 -1.4947
 5831TIP3    H238985   4.557   2.030   1.782  0.5336  0.6166  0.6503
 5832TIP3   OH238986   6.491   2.893  16.648  0.3659 -0.1685  0.3625
 5832TIP3    H138987   6.437   2.936  16.582  2.1524  2.8026  0.7535
 5832TIP3    H238988   6.446   2.811  16.666 -1.4079  0.0457 -2.8188
 5833TIP3   OH238989   1.895   1.161  13.585  0.2085 -0.3820  0.3489
 5833TIP3    H138990   1.915   1.207  13.504  1.1772 -0.9788  0.2357
 5833TIP3    H238991   1.826   1.099  13.561  0.0218 -0.1002  0.1455
 5834TIP3   OH238992   3.256   0.443   6.009 -0.1760  0.3036 -0.1060
 5834TIP3    H138993   3.181   0.392   6.039 -1.5567  2.4936  0.3148
 5834TIP3    H238994   3.266   0.512   6.075  0.6107  1.5359 -1.4656
 5835TIP3   OH238995   5.634   0.921  11.174  0.4010 -0.4588 -0.2005
 5835TIP3    H138996   5.655   0.875  11.093  1.1179 -1.3280  0.4705
 5835TIP3    H238997   5.552   0.967  11.155  0.2439 -1.1461 -1.2252
 5836TIP3   OH238998   4.865   5.873   0.177  0.7563 -0.4189 -0.3401
 5836TIP3    H138999   4.798   5.926   0.220  1.4653  0.3652 -0.2081
 5836TIP3    H239000   4.873   5.796   0.233 -0.0465 -0.5383 -0.3709
 5837TIP3   OH239001   6.311   5.701  14.488 -0.0129  0.5283  0.6936
 5837TIP3    H139002   6.261   5.764  14.539 -0.2280  0.0479  1.0807
 5837TIP3    H239003   6.319   5.624  14.545  0.4049  0.2721  0.2997
 5838TIP3   OH239004   0.557   3.158   1.589  0.0916  0.0085  0.5726
 5838TIP3    H139005   0.566   3.204   1.505 -3.9088 -1.1989 -0.6408
 5838TIP3    H239006   0.516   3.074   1.565  0.0403 -0.8864  3.6285
 5839TIP3   OH239007   4.053   2.859  15.250 -0.0319  0.1626  0.6321
 5839TIP3    H139008   4.102   2.800  15.308 -0.6315 -0.8052  0.1645
 5839TIP3    H239009   4.117   2.924  15.223  0.5286 -0.0088  1.5156
 5840TIP3   OH239010   2.803   6.258   0.154 -0.1497 -0.0614  0.0444
 5840TIP3    H139011   2.728   6.199   0.154  0.1740 -0.4675  0.3795
 5840TIP3    H239012   2.809   6.289   0.063  0.0657 -1.0277 -0.2766
 5841TIP3   OH239013   3.428   0.449  11.559 -0.5578  0.5239 -0.1427
 5841TIP3    H139014   3.461   0.379  11.616  0.5120  2.0989  1.2202
 5841TIP3    H239015   3.398   0.516  11.619  0.1716  2.0367 -1.4317
 5842TIP3   OH239016   5.326   6.320   6.064 -0.2741 -0.0011  0.4194
 5842TIP3    H139017   5.375   6.247   6.101 -1.7334 -0.2433  1.9010
 5842TIP3    H239018   5.379   6.398   6.084 -0.1095 -0.3435  1.3123
 5843TIP3   OH239019   4.251   2.627  15.071 -0.4287  0.1960  0.1844
 5843TIP3    H139020   4.189   2.565  15.032  0.9664 -1.1935  0.1619
 5843TIP3    H239021   4.332   2.614  15.022  0.4869  0.5492  1.5786
 5844TIP3   OH239022   0.264   2.647  13.571  0.1324 -0.3260  0.1910
 5844TIP3    H139023   0.271   2.555  13.548 -0.8207 -0.5327  0.7309
 5844TIP3    H239024   0.349   2.669  13.609  0.2459 -1.0590  0.3551
 5845TIP3   OH239025   0.082   0.606  14.790  0.3335  0.2043  0.2633
 5845TIP3    H139026   0.159   0.559  14.758 -0.1648 -0.2089 -0.3342
 5845TIP3    H239027   0.008   0.559  14.752 -0.1864  1.1658  0.0825
 5846TIP3   OH239028   0.892   2.851  15.989 -0.3106  0.1851  0.0655
 5846TIP3    H139029   0.820   2.797  15.955 -0.3496  0.0156  0.4107
 5846TIP3    H239030   0.963   2.790  16.005 -0.4823  0.1656  0.8175
 5847TIP3   OH239031   6.441   2.883  17.001  0.0544 -0.1643 -0.1594
 5847TIP3    H139032   6.519   2.829  16.990 -0.7885 -1.5521  0.6399
 5847TIP3    H239033   6.368   2.823  16.991 -0.9574  1.2700 -1.6822
 5848TIP3   OH239034   2.471   6.662  14.831  0.2338 -0.0170  0.0986
 5848TIP3    H139035   2.522   6.651  14.751  1.5196  1.1409  0.7285
 5848TIP3    H239036   2.529   6.711  14.890  0.1891 -2.8098  2.5762
 5849TIP3   OH239037   4.596   4.332  11.938  0.0878 -0.2039 -0.2613
 5849TIP3    H139038   4.589   4.240  11.960  0.2594 -0.0479  0.4768
 5849TIP3    H239039   4.627   4.334  11.847 -0.3812 -0.8635 -0.4331
 5850TIP3   OH239040   4.150   5.679   6.215 -1.2203  0.8612  0.2329
 5850TIP3    H139041   4.231   5.681   6.265 -0.8811  2.3987 -0.3582
 5850TIP3    H239042   4.097   5.612   6.259  1.0427 -1.4825 -0.4821
 5851TIP3   OH239043   5.756   3.206  11.967 -0.7223  0.5638  0.4709
 5851TIP3    H139044   5.737   3.224  11.875 -1.9651  0.3393  0.6738
 5851TIP3    H239045   5.717   3.280  12.014  2.2857  2.1378  0.6500
 5852TIP3   OH239046   6.640   6.513   4.644  0.7738  0.4779 -0.4215
 5852TIP3    H139047   6.676   6.582   4.700 -0.0523 -0.2253  1.0007
 5852TIP3    H239048   6.582   6.559   4.583 -0.2784  0.9695  0.9440
 5853TIP3   OH239049   4.790   5.110  14.200  0.0908  0.2721  0.5313
 5853TIP3    H139050   4.843   5.059  14.262  1.2939 -0.5495 -1.1280
 5853TIP3    H239051   4.845   5.185  14.178 -0.0589  0.2084 -0.0505
 5854TIP3   OH239052   4.954   1.366   5.646  0.0474 -0.1804 -0.7376
 5854TIP3    H139053   4.859   1.378   5.649  0.1267  0.2548  0.5527
 5854TIP3    H239054   4.967   1.273   5.630 -0.6006 -0.1752 -1.2763
 5855TIP3   OH239055   6.649   5.731   2.927 -0.1775  0.1778  0.2329
 5855TIP3    H139056   6.738   5.765   2.922  0.4067 -1.3704 -0.4317
 5855TIP3    H239057   6.658   5.648   2.975 -1.2597  0.0218  0.1819
 5856TIP3   OH239058   0.138   2.780   1.372 -0.0351  0.0733 -0.2828
 5856TIP3    H139059   0.170   2.867   1.394  0.9849 -0.2792 -0.3316
 5856TIP3    H239060   0.207   2.743   1.316 -0.4201 -0.7899 -0.1962
 5857TIP3   OH239061   3.842   2.089  11.733 -0.1438 -0.1138 -0.1613
 5857TIP3    H139062   3.753   2.109  11.761 -0.6937 -0.1485 -1.8086
 5857TIP3    H239063   3.894   2.162  11.766 -0.9689  0.4513 -0.0934
 5858TIP3   OH239064   4.865   2.388   3.155  0.4123 -0.0914  0.1323
 5858TIP3    H139065   4.870   2.460   3.092 -0.9176  1.8869  2.2531
 5858TIP3    H239066   4.926   2.323   3.120  0.6673  1.4825 -2.5189
 5859TIP3   OH239067   1.864   1.036   6.684  0.6566  0.3294 -0.8325
 5859TIP3    H139068   1.950   1.003   6.660 -0.0266 -1.5130 -0.8778
 5859TIP3    H239069   1.809   1.019   6.608  0.3910  2.0631 -1.0395
 5860TIP3   OH239070   1.524   2.420  14.927 -0.1171  0.5120  0.1067
 5860TIP3    H139071   1.577   2.481  14.980  1.2213 -1.7670  1.4643
 5860TIP3    H239072   1.589   2.370  14.877 -1.1996  0.0122 -0.7999
 5861TIP3   OH239073   1.451   2.019  10.373  0.7701  0.3994 -0.7848
 5861TIP3    H139074   1.412   2.094  10.328 -3.9169 -0.6855  1.2224
 5861TIP3    H239075   1.441   2.039  10.466  2.1974 -1.3781 -0.2126
 5862TIP3   OH239076   4.234   2.299  14.669 -0.2251  0.4234 -0.7028
 5862TIP3    H139077   4.175   2.374  14.677 -0.4846  0.3075 -1.5552
 5862TIP3    H239078   4.177   2.223  14.671 -0.0059  0.2666 -0.3818
 5863TIP3   OH239079   0.802   4.078   0.985 -0.1830  0.2937 -0.2377
 5863TIP3    H139080   0.809   4.013   0.915 -2.1331  0.8865 -1.0071
 5863TIP3    H239081   0.818   4.162   0.941  0.6941  0.4838  0.4382
 5864TIP3   OH239082   5.486   5.036   2.445  0.4201  0.0710 -0.4188
 5864TIP3    H139083   5.534   5.012   2.366 -0.7111  0.5617 -1.2494
 5864TIP3    H239084   5.431   4.960   2.464  1.1739 -0.3117  0.2810
 5865TIP3   OH239085   6.692   1.156  13.030 -0.1561 -0.0481  1.0959
 5865TIP3    H139086   6.697   1.252  13.030 -0.0077 -0.0523  1.4415
 5865TIP3    H239087   6.766   1.129  13.084  0.1451 -0.3810  0.5220
 5866TIP3   OH239088   1.983   1.542   4.528 -0.0903  0.2098  0.2223
 5866TIP3    H139089   1.895   1.551   4.565 -0.0141 -0.1116  0.4801
 5866TIP3    H239090   1.977   1.585   4.442  0.3571  2.9591  1.5349
 5867TIP3   OH239091   4.233   6.530   0.247 -0.4996  0.0309 -0.2724
 5867TIP3    H139092   4.200   6.539   0.158  1.7145  0.1710 -1.1227
 5867TIP3    H239093   4.231   6.619   0.282 -1.0053  0.0390 -0.3130
 5868TIP3   OH239094   6.579   1.842  15.362 -0.3891 -0.1361 -0.1845
 5868TIP3    H139095   6.540   1.831  15.275 -0.9018 -1.2174  0.1730
 5868TIP3    H239096   6.583   1.753  15.398  2.9673 -0.1231 -0.4213
 5869TIP3   OH239097   1.852   1.470   5.169 -0.4065 -0.4501  0.2036
 5869TIP3    H139098   1.816   1.529   5.235  0.3217 -2.1883  2.1888
 5869TIP3    H239099   1.946   1.487   5.169 -0.4869  0.0571 -0.9291
 5870TIP3   OH239100   4.223   3.255   0.572  0.1132  0.2525  0.1046
 5870TIP3    H139101   4.221   3.160   0.574 -1.0504  0.2851  0.8807
 5870TIP3    H239102   4.312   3.278   0.600  0.2145 -0.5907  0.4784
 5871TIP3   OH239103   2.599   2.296  13.546 -0.3443 -0.1328 -0.1581
 5871TIP3    H139104   2.577   2.303  13.639  0.4473 -1.7652  0.1670
 5871TIP3    H239105   2.516   2.274  13.503 -0.8048  1.0831  0.0851
 5872TIP3   OH239106   4.564   2.526   4.183  0.5222 -0.6093  0.0020
 5872TIP3    H139107   4.523   2.444   4.153 -1.2760  1.0517 -2.2030
 5872TIP3    H239108   4.535   2.534   4.274 -3.4215  0.0487 -1.2264
 5873TIP3   OH239109   5.039   6.572   1.351  0.6471  0.4917 -0.1911
 5873TIP3    H139110   5.022   6.497   1.408  1.4759 -0.5393 -1.2583
 5873TIP3    H239111   5.117   6.547   1.301  0.3517  1.6564 -1.2639
 5874TIP3   OH239112   0.976   0.219  10.777  0.0761 -0.2365 -0.4472
 5874TIP3    H139113   1.072   0.229  10.776  0.1270 -0.7066 -0.4432
 5874TIP3    H239114   0.945   0.293  10.830  0.3395  0.6379 -1.4918
 5875TIP3   OH239115   5.471   5.395  13.294  0.2248 -0.2806 -0.2831
 5875TIP3    H139116   5.406   5.391  13.224 -0.5535 -1.3056  0.4916
 5875TIP3    H239117   5.446   5.472  13.345 -1.1683 -1.4135  0.7684
 5876TIP3   OH239118   0.676   1.955   4.862  0.9281 -0.4135 -0.2159
 5876TIP3    H139119   0.731   1.933   4.938  0.8230  0.3331  0.0821
 5876TIP3    H239120   0.631   1.873   4.841  1.4889 -0.8046  0.0939
 5877TIP3   OH239121   6.251   6.480  12.487 -0.1418  1.2108 -0.0200
 5877TIP3    H139122   6.219   6.439  12.568 -0.0960  0.6037 -0.3125
 5877TIP3    H239123   6.297   6.559  12.517  1.1739  0.2041  0.6494
 5878TIP3   OH239124   4.285   6.017   0.350 -0.0452  0.2141  0.0506
 5878TIP3    H139125   4.269   5.936   0.302 -0.5345  1.4284 -1.9172
 5878TIP3    H239126   4.227   6.012   0.426 -1.2999 -0.5446 -0.9341
 5879TIP3   OH239127   1.801   4.529   3.490  0.8973 -0.1237 -0.1045
 5879TIP3    H139128   1.870   4.487   3.540 -0.2651  0.5472  2.1187
 5879TIP3    H239129   1.838   4.614   3.464  1.3026 -0.2267  0.1395
 5880TIP3   OH239130   5.454   4.448   5.413 -0.2316  0.0089 -0.5477
 5880TIP3    H139131   5.393   4.501   5.362  1.2458  3.1291  0.8347
 5880TIP3    H239132   5.408   4.433   5.496  0.2595  1.1202 -0.0634
 5881TIP3   OH239133   5.174   2.850  14.930  0.3639  0.3570  0.0725
 5881TIP3    H139134   5.263   2.816  14.933  0.8744  1.7135  0.7955
 5881TIP3    H239135   5.152   2.868  15.022  0.0482  1.7887 -0.2684
 5882TIP3   OH239136   3.161   5.779  12.120  0.3684 -0.0886 -0.1438
 5882TIP3    H139137   3.077   5.767  12.165 -0.2475 -2.2091 -1.8211
 5882TIP3    H239138   3.167   5.873  12.106 -1.1328  0.2202  1.1100
 5883TIP3   OH239139   6.508   6.063   5.435  0.2793 -0.7291  0.0515
 5883TIP3    H139140   6.468   6.058   5.522 -0.4308 -1.3697 -0.3133
 5883TIP3    H239141   6.471   6.142   5.396  1.7081  0.3766  0.8799
 5884TIP3   OH239142   6.089   5.529   4.627  0.2229  0.4342  0.0882
 5884TIP3    H139143   5.997   5.532   4.653  0.2637  2.0411  0.0827
 5884TIP3    H239144   6.095   5.450   4.572 -1.7505  1.6910 -2.0654
 5885TIP3   OH239145   2.437   6.401   6.689  0.3878 -0.1845 -0.0030
 5885TIP3    H139146   2.365   6.401   6.752  1.4575 -0.8363  1.2512
 5885TIP3    H239147   2.424   6.480   6.637 -0.0477  0.8109  1.5863
 5886TIP3   OH239148   4.089   5.918  11.615  0.0824  0.2314 -0.1359
 5886TIP3    H139149   4.116   5.833  11.580  2.3731  0.2258  1.5531
 5886TIP3    H239150   4.171   5.965  11.631 -1.0874  2.0912  0.6232
 5887TIP3   OH239151   4.165   5.269  15.843 -0.2298 -0.3049  0.1388
 5887TIP3    H139152   4.179   5.201  15.908  0.2152  0.0645  0.4289
 5887TIP3    H239153   4.163   5.223  15.759  0.3193 -0.6351  0.3129
 5888TIP3   OH239154   0.167   5.736  10.758  0.6132 -0.3496  0.2776
 5888TIP3    H139155   0.199   5.647  10.747 -0.3364 -0.5410 -1.0838
 5888TIP3    H239156   0.234   5.792  10.718  0.3210 -0.5931 -0.5644
 5889TIP3   OH239157   4.904   6.723   4.271 -0.2481 -0.2238 -0.0782
 5889TIP3    H139158   4.822   6.749   4.312  0.1716 -1.5540  1.7030
 5889TIP3    H239159   4.958   6.802   4.273 -0.5600 -0.0247  1.2066
 5890TIP3   OH239160   1.906   1.125   2.604 -0.2501  0.1606 -0.4304
 5890TIP3    H139161   1.883   1.178   2.680 -1.2513 -0.2327 -0.4433
 5890TIP3    H239162   2.000   1.136   2.594  0.3684 -1.8527  2.4608
 5891TIP3   OH239163   6.368   4.469   3.793 -0.5972 -0.3394 -0.4883
 5891TIP3    H139164   6.337   4.405   3.729  2.2123 -2.3765  0.1249
 5891TIP3    H239165   6.417   4.533   3.741 -0.2039 -0.7639 -0.6430
 5892TIP3   OH239166   0.427   3.346  10.751  0.4466 -0.1010 -0.3943
 5892TIP3    H139167   0.372   3.274  10.721  1.0826 -1.5087  1.6704
 5892TIP3    H239168   0.366   3.417  10.769 -0.3846 -0.6801 -0.8770
 5893TIP3   OH239169   2.719   0.031   5.312  0.4704 -0.3034 -0.0872
 5893TIP3    H139170   2.629   0.033   5.278  0.1907 -1.4630  0.5682
 5893TIP3    H239171   2.729  -0.057   5.347  0.3717  1.1779  3.9055
 5894TIP3   OH239172   3.396   1.200  17.115 -0.2476 -0.4521  0.1958
 5894TIP3    H139173   3.471   1.245  17.154 -0.4631 -0.1452  0.2549
 5894TIP3    H239174   3.384   1.243  17.031 -1.4706  0.7048  0.9389
 5895TIP3   OH239175   6.086   2.789   4.228 -0.4659  0.1752 -0.6726
 5895TIP3    H139176   6.092   2.802   4.323  0.4116  2.0874 -0.9769
 5895TIP3    H239177   6.006   2.834   4.202  0.4233  1.5099 -1.1385
 5896TIP3   OH239178   0.789   5.993   3.393 -0.6807 -0.3183  0.1445
 5896TIP3    H139179   0.741   6.040   3.461 -0.2243  0.1005  0.1854
 5896TIP3    H239180   0.797   6.056   3.321 -1.0693 -0.7236 -0.2525
 5897TIP3   OH239181   5.125   4.351  16.588 -0.0374 -0.2312  0.0238
 5897TIP3    H139182   5.029   4.345  16.584 -0.0221  0.0721 -0.7866
 5897TIP3    H239183   5.155   4.298  16.515  0.4270 -0.4102  0.3413
 5898TIP3   OH239184   1.755   2.083  10.687 -0.0909  0.3449  0.3896
 5898TIP3    H139185   1.826   2.041  10.736 -0.9454 -0.7484  0.6975
 5898TIP3    H239186   1.717   2.146  10.749  0.1817  0.4652  0.4358
 5899TIP3   OH239187   2.442   0.029   0.178  0.5419  0.0791  0.7907
 5899TIP3    H139188   2.351   0.048   0.155  0.8075  0.4337 -0.0047
 5899TIP3    H239189   2.454   0.067   0.265  0.3264  1.2696  0.3071
 5900TIP3   OH239190   5.543   4.105   3.616 -0.3009  0.0196 -0.7420
 5900TIP3    H139191   5.482   4.177   3.626  1.0104  0.9273  0.9487
 5900TIP3    H239192   5.489   4.032   3.586 -2.4240  0.4388  1.9049
 5901TIP3   OH239193   5.606   1.514   3.366  0.9140 -0.0582 -0.7872
 5901TIP3    H139194   5.677   1.488   3.424 -0.2412  1.9028  1.5953
 5901TIP3    H239195   5.547   1.565   3.421 -0.8238  0.9205 -3.4361
 5902TIP3   OH239196   6.293   5.101   1.573  0.2877  0.2015  0.1457
 5902TIP3    H139197   6.257   5.016   1.599  1.3277 -0.5666 -0.8472
 5902TIP3    H239198   6.388   5.090   1.582  0.5332  0.6550 -1.7357
 5903TIP3   OH239199   1.890   5.420  15.321  0.4095 -0.1074 -0.7310
 5903TIP3    H139200   1.931   5.422  15.235  0.3776  1.5707 -0.7056
 5903TIP3    H239201   1.802   5.454  15.307  0.3394 -0.0088 -0.0577
 5904TIP3   OH239202   6.303   1.256  14.176 -0.6182 -0.2724  0.4298
 5904TIP3    H139203   6.392   1.236  14.207  0.1107  3.1269  0.7775
 5904TIP3    H239204   6.271   1.174  14.139  1.5003 -2.3786  3.0492
 5905TIP3   OH239205   0.117   5.868  12.624  0.5596 -0.1479  0.7032
 5905TIP3    H139206   0.180   5.897  12.558  1.0192 -0.2006  1.1219
 5905TIP3    H239207   0.170   5.844  12.699  0.2002 -2.3549  0.2819
 5906TIP3   OH239208   5.253   3.489  13.130 -0.0370 -0.1989 -0.0532
 5906TIP3    H139209   5.325   3.426  13.136  1.9588  1.8729 -1.5165
 5906TIP3    H239210   5.208   3.465  13.049 -1.0419 -1.5122  0.8742
 5907TIP3   OH239211   2.769   3.280  14.967  0.3970  0.0190 -0.2027
 5907TIP3    H139212   2.777   3.257  14.875 -0.6276  0.7831 -0.4857
 5907TIP3    H239213   2.675   3.280  14.984  0.5958 -0.7142  1.0007
 5908TIP3   OH239214   4.621   1.337  11.210 -0.7007 -0.2266  0.5664
 5908TIP3    H139215   4.680   1.406  11.179  2.1375 -2.7917  0.0525
 5908TIP3    H239216   4.568   1.315  11.133 -0.0775 -0.1610  0.1155
 5909TIP3   OH239217   5.007   4.161   0.518 -0.0874 -0.1221  0.3231
 5909TIP3    H139218   5.054   4.155   0.435 -0.7814 -0.5508 -0.0418
 5909TIP3    H239219   5.056   4.226   0.568  0.1772  0.3425 -0.5270
 5910TIP3   OH239220   0.582   5.323  10.385 -0.1911  0.2855  0.1377
 5910TIP3    H139221   0.593   5.354  10.295 -1.6359  1.4486  0.3325
 5910TIP3    H239222   0.493   5.350  10.409 -0.6782 -2.0118  1.1399
 5911TIP3   OH239223   6.109   5.362  11.157  0.7982  0.5668 -0.0435
 5911TIP3    H139224   6.166   5.290  11.183  2.0197  2.2381  2.0608
 5911TIP3    H239225   6.127   5.375  11.064  1.2619 -1.2048 -0.2133
 5912TIP3   OH239226   0.444   6.164  11.874  0.4638  0.3595  0.5627
 5912TIP3    H139227   0.382   6.196  11.809  2.1391  1.1809 -0.6720
 5912TIP3    H239228   0.396   6.166  11.957 -1.6314 -0.5274 -0.6016
 5913TIP3   OH239229   5.884   3.472   0.641 -0.4015  0.0811  0.3924
 5913TIP3    H139230   5.883   3.465   0.546 -1.5697 -2.9450  0.5594
 5913TIP3    H239231   5.945   3.543   0.660  1.0972 -0.3654 -2.5488
 5914TIP3   OH239232   2.926   1.176  12.172  0.2128  0.3191  0.0332
 5914TIP3    H139233   2.852   1.150  12.116  1.0990 -0.6234 -0.7178
 5914TIP3    H239234   2.987   1.220  12.113  0.1476  1.3226  0.7003
 5915TIP3   OH239235   5.942   6.562  14.302 -0.6588 -0.2014  0.4409
 5915TIP3    H139236   5.876   6.517  14.249  0.1003  0.7432 -1.3474
 5915TIP3    H239237   6.021   6.509  14.291 -0.2050  0.6197 -0.3120
 5916TIP3   OH239238   2.096   3.984   0.735 -0.3749  0.3781 -0.1294
 5916TIP3    H139239   2.033   4.055   0.747 -0.0505  0.2251  2.7218
 5916TIP3    H239240   2.042   3.907   0.717 -0.7661  1.0966 -2.2464
 5917TIP3   OH239241   3.002   5.110  11.862 -0.0284  0.3606 -0.1101
 5917TIP3    H139242   3.050   5.063  11.793  1.6186  0.4888  0.9165
 5917TIP3    H239243   2.964   5.041  11.916 -0.2654  0.2460 -0.4227
 5918TIP3   OH239244   5.624   4.034  13.093 -0.0361  0.2607 -0.1893
 5918TIP3    H139245   5.673   3.997  13.019 -0.3045  1.3814 -0.9502
 5918TIP3    H239246   5.543   3.984  13.096 -0.9264  1.5435 -1.9743
 5919TIP3   OH239247   5.126   5.627   5.148  0.1448 -0.7873 -0.0499
 5919TIP3    H139248   5.072   5.596   5.075 -0.5595  1.7703 -0.7048
 5919TIP3    H239249   5.216   5.618   5.117 -0.1799  1.6627 -1.9317
 5920TIP3   OH239250   2.385   4.662  15.738  0.2003  0.1419 -0.4865
 5920TIP3    H139251   2.323   4.621  15.799 -0.4664  1.2191 -0.4246
 5920TIP3    H239252   2.364   4.755  15.742 -0.8675  0.0826 -3.5201
 5921TIP3   OH239253   5.122   2.545  13.146 -0.3965 -0.0500 -0.2935
 5921TIP3    H139254   5.108   2.604  13.219 -0.0590 -0.1394 -0.1568
 5921TIP3    H239255   5.217   2.540  13.137 -0.3971 -1.5029  0.4460
 5922TIP3   OH239256   6.303   3.055  15.035  0.2213 -0.0722 -1.0452
 5922TIP3    H139257   6.299   3.122  15.103  1.6090  0.8328 -1.8470
 5922TIP3    H239258   6.362   3.090  14.969 -0.6930 -1.1771 -2.4872
 5923TIP3   OH239259   2.764   2.863   1.508 -0.6385  0.6978 -0.1627
 5923TIP3    H139260   2.679   2.901   1.486 -0.2357  1.2261 -0.8400
 5923TIP3    H239261   2.824   2.900   1.443  0.3430  1.2688  1.0657
 5924TIP3   OH239262   5.750   2.254  16.735 -0.2330  0.0276 -0.1285
 5924TIP3    H139263   5.806   2.329  16.716 -0.4723  0.1059 -0.5135
 5924TIP3    H239264   5.811   2.179  16.736  0.2513  0.4167  1.7613
 5925TIP3   OH239265   0.329   0.299  14.745 -0.0868 -0.2052  0.4317
 5925TIP3    H139266   0.303   0.391  14.741 -0.8286 -0.4308 -0.1698
 5925TIP3    H239267   0.423   0.300  14.727  0.1183  0.5200  1.4571
 5926TIP3   OH239268   0.900   1.847  12.076  0.2022 -0.2329 -0.6067
 5926TIP3    H139269   0.904   1.855  12.171  1.6448 -0.2355 -0.6593
 5926TIP3    H239270   0.862   1.930  12.047  0.3396  0.0248 -0.0667
 5927TIP3   OH239271   2.974   2.957  14.352  0.4608 -0.0856  0.0754
 5927TIP3    H139272   2.978   2.872  14.307  0.8106  1.4137 -2.8397
 5927TIP3    H239273   3.007   3.020  14.288 -0.9258  2.4478  1.7653
 5928TIP3   OH239274   0.881   6.632  10.946 -0.6185 -0.4353  0.6715
 5928TIP3    H139275   0.865   6.648  11.039 -2.4170  0.7770  0.1687
 5928TIP3    H239276   0.804   6.582  10.917 -0.7548  0.4406 -0.4880
 5929TIP3   OH239277   2.108   3.064  12.635  0.2149 -0.0150  0.8188
 5929TIP3    H139278   2.174   3.018  12.687 -0.4987 -0.8299  1.0014
 5929TIP3    H239279   2.024   3.031  12.667 -0.2335 -1.0487 -1.3094
 5930TIP3   OH239280   0.984   0.371   1.225 -0.0649 -0.4032  0.0898
 5930TIP3    H139281   1.041   0.394   1.152 -0.8254 -0.3986 -0.5030
 5930TIP3    H239282   0.979   0.452   1.276  0.9621 -0.5813  0.4942
 5931TIP3   OH239283   3.481   2.283  14.164 -0.3086  0.6057  0.5487
 5931TIP3    H139284   3.501   2.243  14.249  1.1181  0.7547  0.2984
 5931TIP3    H239285   3.562   2.275  14.114 -0.8113  1.4651 -0.4367
 5932TIP3   OH239286   0.570   6.441  15.106 -0.6653 -0.2274 -0.2286
 5932TIP3    H139287   0.609   6.457  15.020  0.5975 -0.1175  0.3559
 5932TIP3    H239288   0.560   6.346  15.111  1.4703 -0.4532  0.4259
 5933TIP3   OH239289   0.453   0.973   0.381  0.5646  0.7988  0.3896
 5933TIP3    H139290   0.434   0.962   0.288 -1.9228 -0.6464  1.0153
 5933TIP3    H239291   0.498   0.892   0.406  0.7898  0.9732  0.5509
 5934TIP3   OH239292   0.984   1.797   0.153  0.0348 -0.1034 -0.3309
 5934TIP3    H139293   1.039   1.833   0.084 -0.3737 -0.1352 -0.6728
 5934TIP3    H239294   1.000   1.855   0.229  0.7585 -0.2900 -0.3392
 5935TIP3   OH239295   0.298   6.507   6.578  0.1849  0.1612 -0.3489
 5935TIP3    H139296   0.328   6.585   6.531  1.6539  0.1133  0.4723
 5935TIP3    H239297   0.208   6.526   6.603 -0.4532  0.3841 -2.7469
 5936TIP3   OH239298   3.991   0.600   6.403 -0.1367 -0.2046  0.5543
 5936TIP3    H139299   4.030   0.566   6.323 -1.5000 -0.1489 -0.1338
 5936TIP3    H239300   4.063   0.598   6.467  1.1734  0.4939 -0.8642
 5937TIP3   OH239301   1.267   5.512   5.831 -0.2866  0.1615 -0.0166
 5937TIP3    H139302   1.200   5.580   5.834  0.2798  0.6751  3.9929
 5937TIP3    H239303   1.314   5.520   5.914  1.6890 -3.2387 -0.6781
 5938TIP3   OH239304   1.522   1.556   3.775 -0.0585  0.2239 -0.0830
 5938TIP3    H139305   1.541   1.482   3.718  0.3383  0.5434 -0.3681
 5938TIP3    H239306   1.474   1.518   3.849  0.2105 -0.3268 -0.1904
 5939TIP3   OH239307   1.054   0.795  16.367  0.3970  0.0459 -0.7515
 5939TIP3    H139308   1.095   0.843  16.439 -0.3950 -0.8496  0.3067
 5939TIP3    H239309   0.960   0.798  16.385  0.4113 -3.1922  0.1908
 5940TIP3   OH239310   1.330   3.615   1.136  0.0835  0.7612  0.4571
 5940TIP3    H139311   1.271   3.589   1.066  2.4179 -0.8671 -1.0193
 5940TIP3    H239312   1.357   3.704   1.113 -0.7920  1.0215  0.4340
 5941TIP3   OH239313   1.180   4.169   2.098 -0.5920 -0.2292 -0.1281
 5941TIP3    H139314   1.178   4.262   2.118  0.7125 -0.7179  2.4266
 5941TIP3    H239315   1.121   4.129   2.161 -0.5758 -1.2187 -0.7247
 5942TIP3   OH239316   4.461   1.582   4.522 -0.2851 -0.3125 -0.2482
 5942TIP3    H139317   4.528   1.523   4.558 -1.1150  0.2944  2.3352
 5942TIP3    H239318   4.378   1.541   4.544 -0.8885  1.8728  1.7660
 5943TIP3   OH239319   4.730   5.458   3.589  0.4959 -0.2868 -0.4609
 5943TIP3    H139320   4.692   5.544   3.602  0.4461 -0.4930  0.8165
 5943TIP3    H239321   4.812   5.460   3.639 -0.8005 -1.8545  1.7903
 5944TIP3   OH239322   1.169   4.806  13.085 -0.2815 -0.2458  0.4553
 5944TIP3    H139323   1.198   4.895  13.107 -0.3765 -0.1273  0.1038
 5944TIP3    H239324   1.195   4.753  13.160  1.9801 -0.3929 -0.4176
 5945TIP3   OH239325   3.188   3.060   3.479  0.0615 -0.0984  0.0932
 5945TIP3    H139326   3.177   2.996   3.549  1.8760 -2.4104 -1.6466
 5945TIP3    H239327   3.281   3.084   3.483  0.7123 -1.8283 -2.7323
 5946TIP3   OH239328   2.159   4.980   3.071  0.2023  0.4699 -0.4129
 5946TIP3    H139329   2.131   5.071   3.067  0.2243  0.4932 -0.0787
 5946TIP3    H239330   2.251   4.982   3.048  0.2811  0.5718 -0.0884
 5947TIP3   OH239331   5.025   2.182  12.802 -0.0217 -0.4065  0.8277
 5947TIP3    H139332   4.958   2.227  12.750  0.2389  1.1173  1.7874
 5947TIP3    H239333   5.103   2.185  12.747 -0.4607 -1.2731  0.1422
 5948TIP3   OH239334   1.155   1.692   2.577 -0.3650  0.4351  0.3165
 5948TIP3    H139335   1.226   1.630   2.560 -2.1370 -1.5181 -0.2758
 5948TIP3    H239336   1.198   1.774   2.600  2.0578 -0.6495 -0.2755
 5949TIP3   OH239337   0.606   1.091   0.604  0.4211 -0.3512 -0.1185
 5949TIP3    H139338   0.556   1.019   0.566  0.3848  0.2350 -1.1833
 5949TIP3    H239339   0.564   1.170   0.572  1.4936  0.1461 -0.3223
 5950TIP3   OH239340   2.152   0.653  13.607 -0.1010  0.2989  0.0329
 5950TIP3    H139341   2.204   0.592  13.658  0.7214 -0.1036 -1.2707
 5950TIP3    H239342   2.168   0.738  13.647  0.6601  0.0143  0.3361
 5951TIP3   OH239343   1.698   2.738   4.085  0.5871 -0.7007  0.7388
 5951TIP3    H139344   1.749   2.659   4.069  0.8331 -0.2294 -0.9093
 5951TIP3    H239345   1.719   2.763   4.174  2.8702 -0.7966  0.2513
 5952TIP3   OH239346   0.299   1.408   4.244 -0.0877 -0.2509  0.4453
 5952TIP3    H139347   0.242   1.452   4.306 -0.9393  0.1043 -0.5707
 5952TIP3    H239348   0.278   1.315   4.254  1.8253 -0.4758  2.7002
 5953TIP3   OH239349   3.354   0.145  15.710  0.0888  0.2068  0.1034
 5953TIP3    H139350   3.303   0.064  15.705 -0.0640  0.2939  0.2331
 5953TIP3    H239351   3.303   0.202  15.769  1.6497 -0.6853  2.4054
 5954TIP3   OH239352   2.285   0.582   5.883 -0.2511  0.7254  0.4063
 5954TIP3    H139353   2.322   0.668   5.862 -1.3752  1.3098  0.7401
 5954TIP3    H239354   2.201   0.580   5.837 -0.8803  0.3828  1.5339
 5955TIP3   OH239355   0.116   2.810   5.783 -0.1799 -0.2836 -0.3904
 5955TIP3    H139356   0.121   2.717   5.763  0.7042  0.2775 -2.8770
 5955TIP3    H239357   0.024   2.824   5.807 -0.6777 -1.5002 -1.5280
 5956TIP3   OH239358   3.924   2.363   5.360 -0.3681  0.2642 -0.4315
 5956TIP3    H139359   3.972   2.430   5.410  0.1605 -0.0105 -0.5663
 5956TIP3    H239360   3.910   2.402   5.274  0.2570  0.0656 -0.6262
 5957TIP3   OH239361   0.598   6.557  17.228 -0.1164  0.1862 -0.1772
 5957TIP3    H139362   0.519   6.525  17.273  1.2605  0.8733  2.8499
 5957TIP3    H239363   0.634   6.479  17.185 -0.1722 -1.0740  1.9533
 5958TIP3   OH239364   1.717   4.040   0.260  0.0848 -0.5725  0.4431
 5958TIP3    H139365   1.797   3.991   0.279  0.8901  0.6958  0.4195
 5958TIP3    H239366   1.727   4.122   0.308 -1.4252 -0.5873  0.8299
 5959TIP3   OH239367   5.834   3.327  17.126 -0.1371  0.0803 -0.2804
 5959TIP3    H139368   5.793   3.372  17.200 -1.0120  0.6419 -1.0920
 5959TIP3    H239369   5.795   3.239  17.127 -1.2833  0.5653 -0.9558
 5960TIP3   OH239370   1.704   2.580  12.322  0.2241 -0.1190  0.2963
 5960TIP3    H139371   1.620   2.621  12.302  0.2302 -0.6309 -0.8406
 5960TIP3    H239372   1.686   2.486  12.322  0.9454 -0.2744 -0.7722
 5961TIP3   OH239373   5.716   4.518  15.649 -0.2636 -0.3305 -0.5445
 5961TIP3    H139374   5.766   4.439  15.670 -0.2754 -0.4229 -0.8548
 5961TIP3    H239375   5.763   4.557  15.575 -0.3927 -0.1777 -0.5453
 5962TIP3   OH239376   3.060   1.667  12.248 -0.6666 -0.2122  0.4689
 5962TIP3    H139377   3.104   1.659  12.332 -0.1966 -1.2233  0.1366
 5962TIP3    H239378   2.989   1.602  12.252  0.5906 -1.6743 -0.6761
 5963TIP3   OH239379   4.375   5.203  11.994 -0.3448 -0.2070  0.0178
 5963TIP3    H139380   4.367   5.226  11.901  1.9588 -0.9422 -0.4212
 5963TIP3    H239381   4.416   5.280  12.034  1.3306 -0.9545 -0.1821
 5964TIP3   OH239382   5.121   1.058   0.414  0.3209 -0.2290 -0.7265
 5964TIP3    H139383   5.037   1.081   0.454 -0.2445  1.1037 -2.6057
 5964TIP3    H239384   5.099   0.988   0.352  1.0952 -1.8885  0.8454
 5965TIP3   OH239385   0.459   5.636  12.693  0.5912  0.2580 -0.5669
 5965TIP3    H139386   0.539   5.610  12.740  0.1616 -0.2031 -0.0866
 5965TIP3    H239387   0.404   5.558  12.694 -0.4833  0.9965  0.3918
 5966TIP3   OH239388   2.027   0.590  12.864  0.4075 -0.0143  0.3431
 5966TIP3    H139389   2.070   0.668  12.901 -0.4285  0.0912  1.1153
 5966TIP3    H239390   1.959   0.568  12.928  1.2205 -1.9113  0.5650
 5967TIP3   OH239391   1.640   0.861   4.831 -0.3685 -0.1745  0.5115
 5967TIP3    H139392   1.622   0.787   4.773  1.6245 -1.2740  1.2350
 5967TIP3    H239393   1.591   0.841   4.911 -1.4869  0.3333 -0.0352
 5968TIP3   OH239394   2.625   6.629   2.562 -0.1947  0.0330  0.1695
 5968TIP3    H139395   2.550   6.632   2.502 -1.5590  2.2996  1.9134
 5968TIP3    H239396   2.612   6.548   2.612 -1.3210  0.2420  0.2370
 5969TIP3   OH239397   0.493   3.497  15.905  0.1187  0.1917 -0.1747
 5969TIP3    H139398   0.495   3.592  15.899  0.7752  0.2065  0.2198
 5969TIP3    H239399   0.436   3.478  15.979  0.8697  0.3148  0.4464
 5970TIP3   OH239400   3.717   3.468   1.310  0.5742 -0.0061 -0.1879
 5970TIP3    H139401   3.641   3.418   1.342  0.6434  0.1935  0.2843
 5970TIP3    H239402   3.746   3.419   1.232  1.4404 -1.4497  1.0070
 5971TIP3   OH239403   2.519   3.547  16.186  0.1122  0.1764 -0.0511
 5971TIP3    H139404   2.548   3.544  16.095 -2.2048 -0.4730 -0.7965
 5971TIP3    H239405   2.562   3.473  16.229  0.5842  0.0152 -0.8164
 5972TIP3   OH239406   2.355   2.934   5.557 -0.1629 -0.1993  0.6334
 5972TIP3    H139407   2.382   2.966   5.643  0.2550  0.7911  0.1375
 5972TIP3    H239408   2.305   3.006   5.518  0.8361 -0.0938 -0.5073
 5973TIP3   OH239409   6.770   0.849  10.531  0.7881  0.8226 -0.5831
 5973TIP3    H139410   6.832   0.817  10.466  0.4397 -1.3173  0.1021
 5973TIP3    H239411   6.813   0.832  10.615 -1.2662 -1.9801 -0.0424
 5974TIP3   OH239412   0.686   1.041  15.683 -0.4546 -0.2983 -0.2586
 5974TIP3    H139413   0.639   0.962  15.709  1.6434 -1.4789  0.0126
 5974TIP3    H239414   0.666   1.104  15.752 -0.2273 -1.3318  0.7510
 5975TIP3   OH239415   2.016   2.475  13.769 -0.4862  0.3183  0.7969
 5975TIP3    H139416   2.067   2.555  13.780 -1.8960  1.0648  1.8946
 5975TIP3    H239417   2.060   2.429  13.697  2.0462  0.7059  2.0304
 5976TIP3   OH239418   0.437   6.404  15.884  0.2616 -0.0413  0.7256
 5976TIP3    H139419   0.404   6.426  15.797 -0.4084  3.3086  1.7729
 5976TIP3    H239420   0.530   6.423  15.881  0.1033  0.7726  0.9537
 5977TIP3   OH239421   5.645   3.620   5.574 -0.0274 -0.2417  0.1295
 5977TIP3    H139422   5.628   3.711   5.548 -0.2925  0.4148  2.4629
 5977TIP3    H239423   5.729   3.598   5.533 -0.1678  0.9089 -0.7964
 5978TIP3   OH239424   2.563   4.257  12.413  0.9125 -0.0072  0.0577
 5978TIP3    H139425   2.572   4.162  12.421 -0.1733 -0.5341 -4.0034
 5978TIP3    H239426   2.490   4.279  12.471  0.2030 -1.8604 -0.0988
 5979TIP3   OH239427   4.283   0.762  15.475 -0.2951 -0.5135 -0.0828
 5979TIP3    H139428   4.308   0.801  15.559 -0.7734 -1.0230  0.2999
 5979TIP3    H239429   4.363   0.719  15.444 -0.0034  0.0250 -0.0903
 5980TIP3   OH239430   5.597   3.009  13.283 -0.1255 -0.5350 -0.3947
 5980TIP3    H139431   5.585   2.918  13.256 -0.0124 -0.2911 -1.2693
 5980TIP3    H239432   5.516   3.031  13.330  0.3007 -1.4239  0.7912
 5981TIP3   OH239433   5.999   0.422  13.784  0.4011 -0.2151 -0.3129
 5981TIP3    H139434   6.032   0.475  13.712 -2.1624 -0.3484 -1.6306
 5981TIP3    H239435   6.010   0.332  13.755 -1.1206 -0.2564 -0.7520
 5982TIP3   OH239436   2.613   0.950   5.361  0.0377  0.1641  0.1409
 5982TIP3    H139437   2.653   1.035   5.380 -0.7935  0.6576 -0.3071
 5982TIP3    H239438   2.688   0.893   5.340  0.6238  0.6769  0.8293
 5983TIP3   OH239439   5.718   1.484  12.464  0.1736 -0.3704  0.0212
 5983TIP3    H139440   5.765   1.513  12.542 -0.0110 -3.5097  1.3812
 5983TIP3    H239441   5.786   1.442  12.410  0.0293  0.4854 -0.8374
 5984TIP3   OH239442   4.197   1.496   4.409  0.2983  0.5328 -0.4535
 5984TIP3    H139443   4.268   1.472   4.349  0.2575 -1.6571  0.3165
 5984TIP3    H239444   4.148   1.415   4.421 -2.3474  2.0018 -0.9535
 5985TIP3   OH239445   3.511   3.781  14.325  0.0330 -0.0990 -0.3470
 5985TIP3    H139446   3.549   3.826  14.400  1.4762  1.0549 -1.7392
 5985TIP3    H239447   3.586   3.739  14.282 -1.1651 -3.2200  0.4657
 5986TIP3   OH239448   2.892   5.448  14.602 -0.2863  0.3573  0.1333
 5986TIP3    H139449   2.829   5.393  14.648 -0.9093  1.1368  0.2381
 5986TIP3    H239450   2.956   5.472  14.670 -0.3920  0.3188  0.2486
 5987TIP3   OH239451   0.884   2.513   4.987 -0.1419  0.0174 -0.2602
 5987TIP3    H139452   0.956   2.568   5.016 -0.3642 -0.4683  1.2201
 5987TIP3    H239453   0.829   2.572   4.934  0.7857  0.6436 -0.5304
 5988TIP3   OH239454   6.415   0.945   2.388  0.5265 -0.0422 -0.1894
 5988TIP3    H139455   6.464   1.027   2.374 -0.3754  0.4140 -0.7421
 5988TIP3    H239456   6.474   0.876   2.356  0.4106  0.5817 -1.8045
 5989TIP3   OH239457   3.841   0.306   4.309  0.2654  0.6775  0.2562
 5989TIP3    H139458   3.791   0.379   4.344 -0.0924  0.6706 -0.2445
 5989TIP3    H239459   3.788   0.272   4.237  1.0369  0.7392 -0.3485
 5990TIP3   OH239460   4.511   2.522  14.689  0.3030 -0.0045  0.5452
 5990TIP3    H139461   4.420   2.523  14.661  0.3687  0.7302  0.3554
 5990TIP3    H239462   4.554   2.588  14.636  0.9179 -0.2438  0.7370
 5991TIP3   OH239463   4.590   6.168   3.691  0.4084 -0.2228 -0.4481
 5991TIP3    H139464   4.545   6.250   3.710 -1.3770 -1.8313  2.6865
 5991TIP3    H239465   4.530   6.120   3.634 -1.4387 -1.8185  2.6772
 5992TIP3   OH239466   4.053   2.866   0.744  0.8109  0.0391  0.0894
 5992TIP3    H139467   4.099   2.812   0.680 -0.1432  0.5342 -1.0383
 5992TIP3    H239468   3.985   2.809   0.779  0.5369  0.1477 -0.2600
 5993TIP3   OH239469   4.200   5.387   4.073  0.7700  0.5623  0.3622
 5993TIP3    H139470   4.261   5.364   4.002 -0.2027 -0.3966 -0.1683
 5993TIP3    H239471   4.253   5.381   4.153  1.7874  1.3027 -0.2291
 5994TIP3   OH239472   4.335   6.396  16.378  0.2544  0.4434  0.3771
 5994TIP3    H139473   4.307   6.467  16.319  4.6659 -0.7174 -3.4094
 5994TIP3    H239474   4.377   6.441  16.451 -0.1156  1.8389 -0.2371
 5995TIP3   OH239475   5.181   4.724   0.179 -0.1356  0.0662  0.9617
 5995TIP3    H139476   5.225   4.793   0.228  0.2534  1.7698 -1.7065
 5995TIP3    H239477   5.095   4.760   0.158 -1.4215 -1.7779  2.8099
 5996TIP3   OH239478   6.797   1.069  11.537 -0.5447  0.5096 -0.0436
 5996TIP3    H139479   6.814   0.988  11.585  0.7725  0.5523 -0.4323
 5996TIP3    H239480   6.745   1.122  11.597 -2.5639 -1.1248 -0.2572
 5997TIP3   OH239481   4.691   0.252  13.386 -0.2845  0.5129 -0.2944
 5997TIP3    H139482   4.612   0.198  13.375 -0.2508  0.2120  0.9068
 5997TIP3    H239483   4.669   0.336  13.346 -0.4978 -0.2357 -1.7862
 5998TIP3   OH239484   3.249   2.535   1.604 -0.7464  1.0165 -0.1447
 5998TIP3    H139485   3.322   2.540   1.541 -1.7555 -2.4352 -1.7282
 5998TIP3    H239486   3.192   2.608   1.579  0.3727  1.5544 -1.2509
 5999TIP3   OH239487   4.146   1.720   2.153 -0.1385  0.3177  0.1118
 5999TIP3    H139488   4.081   1.777   2.194 -1.8713 -2.7630  1.8443
 5999TIP3    H239489   4.101   1.684   2.077  1.2643  1.8947 -1.5165
 6000TIP3   OH239490   0.244   1.815   5.797 -0.0832 -0.3061 -0.4349
 6000TIP3    H139491   0.293   1.734   5.789 -1.4123 -1.3431  1.4845
 6000TIP3    H239492   0.160   1.788   5.835  0.1958  2.2079  2.1120
 6001TIP3   OH239493   6.451   5.365  14.406  0.5285  0.1793 -0.0285
 6001TIP3    H139494   6.433   5.335  14.316  0.3176  2.4894 -0.7876
 6001TIP3    H239495   6.539   5.402  14.402  0.8507 -0.4637  0.9329
 6002TIP3   OH239496   3.522   4.297   0.802 -0.1354  0.4779  0.0336
 6002TIP3    H139497   3.590   4.231   0.789 -2.0943 -1.8669  1.0721
 6002TIP3    H239498   3.492   4.319   0.714  1.5367  1.1003 -0.3966
 6003TIP3   OH239499   0.263   5.416   2.270  0.0304 -0.1242  0.4121
 6003TIP3    H139500   0.340   5.399   2.324  0.1685 -2.6739 -0.4801
 6003TIP3    H239501   0.259   5.341   2.210 -3.4433 -0.3208  0.7766
 6004TIP3   OH239502   3.031   1.046   3.514 -0.0754 -0.0225 -0.4758
 6004TIP3    H139503   2.966   0.983   3.547 -0.1875  0.0536 -0.5511
 6004TIP3    H239504   3.056   1.010   3.428  0.1727 -0.1892 -0.3330
 6005TIP3   OH239505   0.468   2.557  16.978  0.2015  0.4594  0.1579
 6005TIP3    H139506   0.537   2.495  16.955  0.6576  0.0485  2.5275
 6005TIP3    H239507   0.410   2.558  16.902  0.8289 -1.9512 -0.3784
 6006TIP3   OH239508   2.333   1.534  13.699 -0.1399 -0.0137  0.3942
 6006TIP3    H139509   2.375   1.552  13.616 -0.1462 -2.0740 -0.0931
 6006TIP3    H239510   2.247   1.575  13.692 -0.1833 -0.2679 -0.6569
 6007TIP3   OH239511   5.948   4.208  12.208 -0.2741  0.1849 -0.0390
 6007TIP3    H139512   6.036   4.222  12.242 -0.0675 -1.1698  0.0323
 6007TIP3    H239513   5.952   4.240  12.118  0.5574 -0.6556 -0.3187
 6008TIP3   OH239514   0.806   5.364   5.351  0.2897  0.2218 -0.2073
 6008TIP3    H139515   0.800   5.452   5.389 -1.5389  0.2388 -0.4834
 6008TIP3    H239516   0.787   5.305   5.424 -0.2551  0.1330 -0.4172
 6009TIP3   OH239517   3.325   3.011   0.407 -0.6358 -0.1189 -0.2133
 6009TIP3    H139518   3.360   2.937   0.359  0.6592  0.7737 -0.6845
 6009TIP3    H239519   3.238   3.024   0.372 -0.5480 -0.8904 -0.7145
 6010TIP3   OH239520   2.121   3.095   3.109  0.1809 -0.2307  0.1869
 6010TIP3    H139521   2.150   3.018   3.157 -0.6920 -0.6633  0.0388
 6010TIP3    H239522   2.200   3.147   3.096  0.9920 -1.6481 -0.7024
 6011TIP3   OH239523   4.738   1.552   1.223  0.0829  0.3482  0.2555
 6011TIP3    H139524   4.779   1.637   1.208 -1.3446  1.1563  0.8399
 6011TIP3    H239525   4.789   1.513   1.294  0.1629  1.1177  0.6197
 6012TIP3   OH239526   3.892   3.473  12.573  0.3054  0.2459  0.4511
 6012TIP3    H139527   3.802   3.441  12.563  0.4617  0.4418 -1.7327
 6012TIP3    H239528   3.933   3.459  12.487  1.7372  2.1010  0.7914
 6013TIP3   OH239529   3.913   1.189  13.761  0.0475  0.2952  0.8906
 6013TIP3    H139530   4.008   1.186  13.750 -0.1366  1.6239 -1.5420
 6013TIP3    H239531   3.893   1.118  13.822  2.4540 -0.9893  0.2315
 6014TIP3   OH239532   0.584   2.698  11.132 -0.0661 -0.0501 -0.4009
 6014TIP3    H139533   0.560   2.608  11.111 -1.5036 -0.0514  1.1556
 6014TIP3    H239534   0.673   2.707  11.099 -0.1277 -1.8509 -1.1183
 6015TIP3   OH239535   6.560   3.800   6.083  0.0073  0.5847 -0.0091
 6015TIP3    H139536   6.496   3.759   6.142 -1.8544  0.9068 -1.7589
 6015TIP3    H239537   6.552   3.893   6.102 -0.6023  0.6894 -0.7557
 6016TIP3   OH239538   0.907   2.351  16.456 -0.1380  0.4723  0.3630
 6016TIP3    H139539   0.966   2.354  16.381 -1.1915  1.5834 -0.4459
 6016TIP3    H239540   0.964   2.362  16.532  1.1424 -2.3343 -0.1450
 6017TIP3   OH239541   1.786   3.668  12.043  0.1502 -0.0081  0.0550
 6017TIP3    H139542   1.860   3.713  12.083  2.1910 -0.3628 -3.1750
 6017TIP3    H239543   1.759   3.725  11.971 -0.8400 -1.2546 -0.5921
 6018TIP3   OH239544   0.791   4.721   1.015 -0.1480 -0.1107  0.2787
 6018TIP3    H139545   0.779   4.638   1.061 -1.9341 -0.7599 -1.2993
 6018TIP3    H239546   0.885   4.738   1.020  0.1477 -1.8921  1.1596
 6019TIP3   OH239547   1.374   1.504  11.190 -0.6340  0.2323  0.9861
 6019TIP3    H139548   1.278   1.510  11.189 -0.5832  0.9545  0.6578
 6019TIP3    H239549   1.396   1.455  11.110 -0.5051  3.2997 -0.9138
 6020TIP3   OH239550   3.229   3.359   2.447  0.0751  0.1199  0.4642
 6020TIP3    H139551   3.139   3.383   2.427 -0.8968 -1.1322  3.1484
 6020TIP3    H239552   3.233   3.264   2.433  0.7304  0.0227  1.2666
 6021TIP3   OH239553   1.077   2.495   1.987 -0.1253 -0.0143  0.1157
 6021TIP3    H139554   1.130   2.422   2.020  0.8407 -0.4549 -2.2697
 6021TIP3    H239555   0.987   2.469   2.004  0.3541 -0.0153  2.7536
 6022TIP3   OH239556   2.049   6.353  14.894 -0.3336 -0.0522  0.8109
 6022TIP3    H139557   2.016   6.431  14.938 -0.6687 -0.2568  0.9191
 6022TIP3    H239558   1.974   6.317  14.848  0.0651  0.2801 -0.1050
 6023TIP3   OH239559   0.046   2.465  15.356 -0.4115  0.4094  0.1674
 6023TIP3    H139560   0.116   2.499  15.300  0.7669  0.2743  1.5026
 6023TIP3    H239561   0.075   2.486  15.445 -1.4227 -0.8419  0.8131
 6024TIP3   OH239562   0.024   0.393  15.746 -0.0002 -0.0022  0.5678
 6024TIP3    H139563   0.112   0.428  15.734 -0.9404  1.9722 -0.9423
 6024TIP3    H239564   0.021   0.317  15.688  0.3664  0.5882 -0.2397
 6025TIP3   OH239565   0.734   1.462   2.781  0.1668 -0.1751  0.7466
 6025TIP3    H139566   0.765   1.525   2.845  1.4348  0.0139 -0.0382
 6025TIP3    H239567   0.766   1.377   2.813  0.2082 -0.1694  0.7197
 6026TIP3   OH239568   6.504   5.571  10.392 -0.1519  0.8115  0.1736
 6026TIP3    H139569   6.487   5.486  10.352  1.9481  1.3885 -2.0477
 6026TIP3    H239570   6.580   5.556  10.448  1.5224  1.6501 -1.8253
 6027TIP3   OH239571   1.558   6.177  13.912  1.0229 -0.5883 -0.3539
 6027TIP3    H139572   1.482   6.119  13.921  1.0503 -0.6707 -0.6526
 6027TIP3    H239573   1.561   6.199  13.819  0.4150  0.7104 -0.0826
 6028TIP3   OH239574   2.846   4.053  14.879 -0.3412 -0.8765 -0.0051
 6028TIP3    H139575   2.801   4.036  14.962 -0.4101 -0.0924  0.1257
 6028TIP3    H239576   2.937   4.068  14.905 -0.5391  0.2923  0.0335
 6029TIP3   OH239577   2.813   3.675  11.103  0.2316  0.2218  0.5252
 6029TIP3    H139578   2.769   3.692  11.186 -0.6929 -1.1055  0.3326
 6029TIP3    H239579   2.906   3.665  11.126 -0.0559 -0.3999  1.4414
 6030TIP3   OH239580   4.565   3.709   6.065  0.6186 -0.0308  0.3648
 6030TIP3    H139581   4.564   3.700   5.970 -1.2280  0.5732  0.2945
 6030TIP3    H239582   4.520   3.631   6.098 -0.4619  0.6789  0.6179
 6031TIP3   OH239583   5.850   5.858   5.614 -0.2360  0.0030 -0.8096
 6031TIP3    H139584   5.878   5.894   5.698 -1.1265  1.0442 -0.9527
 6031TIP3    H239585   5.854   5.932   5.553  0.0182 -0.6491 -1.5996
 6032TIP3   OH239586   0.691   4.703   0.035  0.2657 -0.4999 -0.3051
 6032TIP3    H139587   0.655   4.638   0.096 -0.8304 -0.3934 -0.8258
 6032TIP3    H239588   0.780   4.672   0.017  0.2750 -1.0387  0.6215
 6033TIP3   OH239589   0.842   1.921   5.077  0.0608  0.6929  0.3386
 6033TIP3    H139590   0.931   1.901   5.046  0.1566  0.8175  0.5310
 6033TIP3    H239591   0.848   2.010   5.111 -0.4239  1.1370 -0.7158
 6034TIP3   OH239592   5.702   1.399  13.470  0.3533  0.2010  0.0890
 6034TIP3    H139593   5.647   1.322  13.482  1.4143 -0.4477  0.8976
 6034TIP3    H239594   5.790   1.364  13.457  0.3017  1.1191 -3.3035
 6035TIP3   OH239595   0.874   5.406  15.999 -0.1289 -0.2103  0.4483
 6035TIP3    H139596   0.817   5.350  16.052 -1.3980  0.1154 -0.5607
 6035TIP3    H239597   0.936   5.443  16.063 -0.9651 -0.6552  1.5407
 6036TIP3   OH239598   3.929   1.592  14.414 -0.3011 -0.5094  0.0037
 6036TIP3    H139599   3.888   1.541  14.483  0.3949  1.4148  1.9246
 6036TIP3    H239600   3.930   1.682  14.448  1.0810  0.2995 -2.0284
 6037TIP3   OH239601   5.444   2.114  13.009  0.8445 -0.0197  0.4378
 6037TIP3    H139602   5.487   2.031  13.029  0.6632 -0.2213 -0.0049
 6037TIP3    H239603   5.382   2.127  13.080  1.0997 -0.1050  0.6768
 6038TIP3   OH239604   0.952   0.798   1.637 -0.3561  0.1697 -0.0020
 6038TIP3    H139605   0.870   0.828   1.597 -0.2260  0.8174  0.2070
 6038TIP3    H239606   0.982   0.873   1.689 -0.1254 -0.3998  0.6893
 6039TIP3   OH239607   2.725   5.790  10.993 -0.0570  0.6849  0.9490
 6039TIP3    H139608   2.733   5.747  10.908 -1.4307  1.6924  0.2852
 6039TIP3    H239609   2.813   5.822  11.012 -0.3187  3.0270 -1.5132
 6040TIP3   OH239610   0.153   0.047   1.475  0.1050  0.8995  0.0134
 6040TIP3    H139611   0.173   0.117   1.414 -0.5906 -2.2202 -4.0341
 6040TIP3    H239612   0.221  -0.018   1.460 -0.6079 -0.3159  1.9102
 6041TIP3   OH239613   4.033   3.817  12.099  0.1636 -0.1683 -0.6350
 6041TIP3    H139614   4.061   3.907  12.116 -1.2395  0.2121 -0.3242
 6041TIP3    H239615   4.048   3.804  12.005  0.0193  0.4983 -0.7475
 6042TIP3   OH239616   6.454   3.699  15.294  0.2656 -0.2730  0.2939
 6042TIP3    H139617   6.385   3.691  15.228  0.0312  2.1712  0.2122
 6042TIP3    H239618   6.501   3.778  15.270  0.6621  0.2259  2.6237
 6043TIP3   OH239619   0.952   5.586  12.814 -0.5002  0.1537  0.0834
 6043TIP3    H139620   0.983   5.516  12.871 -0.0788  0.4635  0.2344
 6043TIP3    H239621   1.000   5.664  12.842 -0.0595  0.2423 -0.9106
 6044TIP3   OH239622   6.379   3.701  14.248  0.0962 -0.4356  0.3511
 6044TIP3    H139623   6.365   3.637  14.318 -1.8802 -0.6166 -0.1793
 6044TIP3    H239624   6.308   3.684  14.186  1.2668  0.3496 -1.2392
 6045TIP3   OH239625   3.994   2.489   1.463 -0.2612 -0.1845  0.0986
 6045TIP3    H139626   4.085   2.464   1.448 -0.0395  0.9448 -0.5519
 6045TIP3    H239627   3.990   2.580   1.434 -1.4795 -0.0721  0.6054
 6046TIP3   OH239628   2.008   0.011  13.873 -0.1960  0.1699 -0.0526
 6046TIP3    H139629   2.009  -0.026  13.962  0.4105  0.3200  0.0053
 6046TIP3    H239630   1.983   0.103  13.887 -0.7742  0.0276 -0.1079
 6047TIP3   OH239631   3.521   1.378  14.650 -0.4990 -0.0702  0.3575
 6047TIP3    H139632   3.525   1.284  14.631 -0.0840  0.2861 -1.3514
 6047TIP3    H239633   3.585   1.417  14.590 -0.1467  1.2289  1.5684
 6048TIP3   OH239634   0.250   5.897   4.423 -0.4990  0.1292 -0.1826
 6048TIP3    H139635   0.212   5.981   4.449  3.5132  1.5834  1.2714
 6048TIP3    H239636   0.272   5.854   4.506  1.1719 -0.5877 -0.9889
 6049TIP3   OH239637   1.284   0.481   5.857  0.0741  0.3526  1.0143
 6049TIP3    H139638   1.364   0.522   5.890 -0.0842  1.0114  0.6066
 6049TIP3    H239639   1.234   0.554   5.820 -0.3856 -0.1623  0.6100
 6050TIP3   OH239640   0.442   0.752   5.351 -0.1866  0.2201  0.1239
 6050TIP3    H139641   0.354   0.776   5.323  0.4073  2.5886  0.1444
 6050TIP3    H239642   0.478   0.833   5.387  1.0469 -1.3986  2.6102
 6051TIP3   OH239643   0.606   2.973  14.363 -0.8257  0.2976  0.0035
 6051TIP3    H139644   0.591   3.066  14.347  1.3942  0.5386 -0.7925
 6051TIP3    H239645   0.625   2.966  14.456 -0.2069  0.7585 -0.0864
 6052TIP3   OH239646   2.112   0.451  16.096  0.2613 -0.0005 -0.2572
 6052TIP3    H139647   2.081   0.427  16.183  0.1504  2.7032  0.4853
 6052TIP3    H239648   2.032   0.456  16.043  0.2583 -0.9580 -0.3471
 6053TIP3   OH239649   0.408   3.991  16.368  0.3924  0.7256 -0.2408
 6053TIP3    H139650   0.415   4.050  16.294 -2.9301 -0.2744 -1.4860
 6053TIP3    H239651   0.442   4.040  16.443  0.8515  2.9211 -1.8639
 6054TIP3   OH239652   2.226   0.960   5.447 -0.2144 -0.3041 -0.2571
 6054TIP3    H139653   2.143   0.983   5.489 -0.5065  0.6587 -1.3587
 6054TIP3    H239654   2.221   0.865   5.433 -1.3401 -0.1669 -0.7953
 6055TIP3   OH239655   4.142   0.203  16.075  0.3943  0.0004 -0.4239
 6055TIP3    H139656   4.077   0.219  16.007  0.2583  0.1274 -0.2654
 6055TIP3    H239657   4.225   0.195  16.028  0.0081 -1.9705 -0.8059
 6056TIP3   OH239658   6.756   5.600  10.504  0.5588  0.3148  0.7257
 6056TIP3    H139659   6.786   5.533  10.443  0.1451 -0.5182  1.4306
 6056TIP3    H239660   6.782   5.683  10.464 -0.8749 -0.1514 -1.2250
 6057TIP3   OH239661   3.478   2.880   3.307 -1.1671  0.3647 -0.0279
 6057TIP3    H139662   3.403   2.908   3.254  0.9967  2.4825 -2.1330
 6057TIP3    H239663   3.542   2.851   3.242  0.6061  0.6014  1.6087
 6058TIP3   OH239664   2.105   5.798  14.868  0.4797 -0.1160 -0.4122
 6058TIP3    H139665   2.017   5.793  14.829  0.4453  0.7456 -0.4533
 6058TIP3    H239666   2.133   5.707  14.876  0.6079 -0.2968 -2.7117
 6059TIP3   OH239667   2.527   5.715  14.462  0.1940 -0.1325  1.0271
 6059TIP3    H139668   2.563   5.659  14.393 -2.4721 -1.1063  0.3224
 6059TIP3    H239669   2.590   5.710  14.533  1.0618 -2.3500  0.1535
 6060TIP3   OH239670   5.000   2.591  16.537 -0.4767 -0.0928 -0.8363
 6060TIP3    H139671   4.967   2.504  16.557 -0.4929  0.2326  0.6432
 6060TIP3    H239672   5.085   2.576  16.496 -0.3318 -0.7986 -0.2824
 6061TIP3   OH239673   3.976   4.594  15.458  0.1733 -0.2512 -0.0723
 6061TIP3    H139674   4.058   4.582  15.409  0.2836 -0.1318  0.0813
 6061TIP3    H239675   4.003   4.591  15.550  0.8419  4.9883  0.0675
 6062TIP3   OH239676   2.568   6.181  17.242  0.7865  0.0522 -0.0902
 6062TIP3    H139677   2.536   6.212  17.327 -1.4716  1.0184 -1.2262
 6062TIP3    H239678   2.583   6.261  17.191 -1.3132 -0.5249 -1.7425
 6063TIP3   OH239679   3.463   4.003  11.259 -0.6904 -0.1051  0.2378
 6063TIP3    H139680   3.385   3.949  11.271  0.3406 -1.3643  1.4584
 6063TIP3    H239681   3.511   3.960  11.188 -0.9594  0.5040 -0.3177
 6064TIP3   OH239682   4.550   2.402   4.719  0.1155  0.3965 -0.3808
 6064TIP3    H139683   4.624   2.342   4.717  1.0679  1.5651 -2.6890
 6064TIP3    H239684   4.559   2.449   4.802  0.9121 -0.7290  0.1787
 6065TIP3   OH239685   3.295   5.517   5.255  0.4461  0.4685 -0.1634
 6065TIP3    H139686   3.231   5.564   5.308 -0.5738  0.7398 -1.6333
 6065TIP3    H239687   3.378   5.562   5.272 -0.0119  1.0382  0.5857
 6066TIP3   OH239688   2.666   5.938   3.692  0.3063 -0.2387  0.4557
 6066TIP3    H139689   2.600   5.874   3.666 -0.2828  0.5409  0.0136
 6066TIP3    H239690   2.689   5.984   3.611  1.1540 -0.2805  0.6615
 6067TIP3   OH239691   5.418   5.901  12.461 -0.1942 -0.6770  0.6660
 6067TIP3    H139692   5.475   5.871  12.532 -0.2797  0.0098  1.0291
 6067TIP3    H239693   5.369   5.974  12.499 -0.5193 -0.5575  0.0171
 6068TIP3   OH239694   5.119   3.815  14.879  0.1977  0.3462 -0.2074
 6068TIP3    H139695   5.049   3.865  14.837 -0.0320 -0.3825 -0.7062
 6068TIP3    H239696   5.195   3.873  14.878 -0.5264  1.3118  0.7510
 6069TIP3   OH239697   4.014   4.032   4.194  0.0226  0.1997 -0.1381
 6069TIP3    H139698   4.021   3.941   4.163  1.8555 -0.7877  2.8958
 6069TIP3    H239699   3.937   4.031   4.251  0.6105  0.2747  0.6691
 6070TIP3   OH239700   3.456   4.681  16.556  0.7921  0.2207  0.5167
 6070TIP3    H139701   3.521   4.616  16.531  1.2559  0.3741  1.3314
 6070TIP3    H239702   3.434   4.660  16.646  0.5598  0.8746  0.6170
 6071TIP3   OH239703   2.444   1.059  15.593  0.0865 -0.3529 -0.1901
 6071TIP3    H139704   2.459   1.132  15.534  1.2230 -0.5586 -0.1608
 6071TIP3    H239705   2.363   1.019  15.561 -1.0112  1.4248  0.3258
 6072TIP3   OH239706   4.639   1.056   2.953 -0.1609 -0.3389 -0.3971
 6072TIP3    H139707   4.668   1.050   3.044 -2.2068  0.5742  0.3498
 6072TIP3    H239708   4.657   0.969   2.916  0.3222 -0.8408  0.9831
 6073TIP3   OH239709   6.072   1.551  17.031  0.0134  0.0503 -0.4262
 6073TIP3    H139710   6.045   1.619  16.970  1.0778  1.6858  0.9034
 6073TIP3    H239711   6.012   1.560  17.105  0.5466 -0.0512  0.0210
 6074TIP3   OH239712   6.263   4.474   4.613  0.9508  0.2209  0.6095
 6074TIP3    H139713   6.340   4.421   4.633  1.8801  1.7265  1.0923
 6074TIP3    H239714   6.240   4.515   4.697  1.0601  1.6119 -0.0244
 6075TIP3   OH239715   0.072   0.358  11.765  0.0832 -0.0637 -0.4264
 6075TIP3    H139716   0.135   0.397  11.826  0.3824  0.9010 -1.3379
 6075TIP3    H239717   0.014   0.305  11.820 -0.7583  2.2327  0.9302
 6076TIP3   OH239718   0.964   1.395  11.617 -0.1415 -0.3739  0.2840
 6076TIP3    H139719   1.034   1.397  11.681 -0.5442 -1.3150  0.7626
 6076TIP3    H239720   1.000   1.440  11.540  0.0366  1.5012  1.4566
 6077TIP3   OH239721   0.465   3.230   1.074  0.2138 -0.4616  0.4144
 6077TIP3    H139722   0.399   3.283   1.030 -0.6193 -1.3097  0.6353
 6077TIP3    H239723   0.528   3.209   1.004  1.1664  1.7349  0.5616
 6078TIP3   OH239724   2.103   3.501  11.826 -0.5309 -0.6283  0.0235
 6078TIP3    H139725   2.103   3.466  11.915 -1.4224 -1.6158 -0.3528
 6078TIP3    H239726   2.119   3.595  11.837  1.8819 -1.1422  1.0428
 6079TIP3   OH239727   5.414   2.664  16.522  0.3628  0.0454  0.2987
 6079TIP3    H139728   5.331   2.640  16.482  1.2323 -0.7433 -1.0879
 6079TIP3    H239729   5.397   2.664  16.616 -1.6292  1.5738 -0.0582
 6080TIP3   OH239730   6.251   6.176   5.163  0.0654  0.9371  0.1055
 6080TIP3    H139731   6.228   6.260   5.123 -0.1669 -0.0066 -1.8034
 6080TIP3    H239732   6.326   6.145   5.112  0.5851  0.2938  1.2402
 6081TIP3   OH239733   3.998   5.236   0.455 -0.5172 -0.1667  0.7801
 6081TIP3    H139734   4.081   5.197   0.485 -0.6134 -1.5690 -0.6660
 6081TIP3    H239735   3.956   5.165   0.406 -0.8160  1.6882 -1.7430
 6082TIP3   OH239736   0.240   2.641   0.890  0.2775  0.1050 -0.4967
 6082TIP3    H139737   0.211   2.617   0.802 -0.9992 -1.9927  0.4568
 6082TIP3    H239738   0.310   2.705   0.876 -0.4952  0.4441 -2.9995
 6083TIP3   OH239739   5.716   3.328   0.082 -0.8432  0.1303  0.2611
 6083TIP3    H139740   5.664   3.249   0.064 -1.1892  0.2293  0.8324
 6083TIP3    H239741   5.652   3.393   0.110 -0.7541  1.0619 -1.5961
 6084TIP3   OH239742   0.046   2.528   1.074  0.8485 -0.0410 -0.1525
 6084TIP3    H139743   0.114   2.570   1.020  1.0325 -0.0678  0.0592
 6084TIP3    H239744  -0.030   2.522   1.016  1.4989 -1.4142 -0.9021
 6085TIP3   OH239745   0.921   0.032   3.985  0.2882 -0.2856 -0.7888
 6085TIP3    H139746   0.990   0.099   3.981  2.4396 -2.3915  0.1907
 6085TIP3    H239747   0.916   0.009   4.078  0.2414 -2.1591 -1.2515
 6086TIP3   OH239748   5.272   4.472  15.273  0.2675 -0.0651  0.0722
 6086TIP3    H139749   5.315   4.557  15.270  0.0414  0.0170 -1.5645
 6086TIP3    H239750   5.266   4.445  15.181 -1.1073 -1.1223  0.4529
 6087TIP3   OH239751   1.921   3.284   3.330  0.2830 -0.3708 -0.2802
 6087TIP3    H139752   2.003   3.311   3.287  0.3132  0.6841  0.4210
 6087TIP3    H239753   1.883   3.365   3.361 -0.5420 -0.9709  0.2875
 6088TIP3   OH239754   2.885   0.846   6.403  0.3708  0.0307 -0.0775
 6088TIP3    H139755   2.846   0.932   6.392  0.7192  0.3910  1.4387
 6088TIP3    H239756   2.831   0.788   6.349  1.0833  1.4280 -2.3762
 6089TIP3   OH239757   3.638   4.324   3.147  0.2964  0.3832 -0.1831
 6089TIP3    H139758   3.731   4.329   3.128  0.4181 -0.8196  0.0457
 6089TIP3    H239759   3.620   4.230   3.154 -0.9379  0.6034 -0.2743
 6090TIP3   OH239760   4.313   5.107  13.855  0.5495 -0.3253  0.4188
 6090TIP3    H139761   4.309   5.013  13.834 -0.0970 -0.3197  0.5072
 6090TIP3    H239762   4.349   5.148  13.776  0.0129 -0.5412  0.0644
 6091TIP3   OH239763   4.081   0.841   5.771 -0.1896  0.3518 -0.2407
 6091TIP3    H139764   4.004   0.828   5.827  1.9924 -1.4370  2.4838
 6091TIP3    H239765   4.122   0.920   5.804  0.6221 -0.2158  0.1233
 6092TIP3   OH239766   5.128   6.525   0.518  0.4440 -0.0146 -0.1919
 6092TIP3    H139767   5.197   6.472   0.478 -0.1346 -1.0394  0.1522
 6092TIP3    H239768   5.103   6.477   0.597 -1.7517 -0.4656 -1.1301
 6093TIP3   OH239769   5.525   6.492  11.286  0.3155 -0.5238 -0.8145
 6093TIP3    H139770   5.582   6.429  11.242  0.3547  0.4149 -2.1663
 6093TIP3    H239771   5.576   6.574  11.286 -1.0323  0.3446 -2.1030
 6094TIP3   OH239772   5.686   3.024   4.413 -0.0666 -0.3043 -0.3566
 6094TIP3    H139773   5.595   2.995   4.411 -0.3086  0.4180  0.0629
 6094TIP3    H239774   5.693   3.084   4.339  0.1753 -0.6737 -0.6329
 6095TIP3   OH239775   4.228   2.531  14.179  0.1961 -0.1397 -0.0183
 6095TIP3    H139776   4.299   2.590  14.205  0.2754  0.2610 -1.1110
 6095TIP3    H239777   4.220   2.469  14.252  0.2429  1.0972  1.0701
 6096TIP3   OH239778   0.502   2.338   5.573 -0.0622  0.0869 -0.4165
 6096TIP3    H139779   0.525   2.325   5.481 -0.1218 -2.8146 -0.0765
 6096TIP3    H239780   0.582   2.371   5.614  0.5385 -0.4400 -1.1578
 6097TIP3   OH239781   4.503   1.014   0.815  0.2715  0.0523 -0.0733
 6097TIP3    H139782   4.519   1.022   0.721  2.0335  0.8560  0.2750
 6097TIP3    H239783   4.524   1.101   0.850 -0.2489 -0.2777  1.0777
 6098TIP3   OH239784   5.941   6.047   0.122 -0.1609  0.4395  0.1728
 6098TIP3    H139785   5.966   6.139   0.122  1.0701  0.1230 -0.2129
 6098TIP3    H239786   6.024   6.000   0.136 -0.8110 -0.5943  0.6365
 6099TIP3   OH239787   4.033   4.079   2.193 -0.5626 -0.1433  0.3502
 6099TIP3    H139788   4.070   4.133   2.262  2.2238 -1.0175 -0.4080
 6099TIP3    H239789   3.976   4.138   2.143 -1.9624  0.6882  2.8314
 6100TIP3   OH239790   3.146   2.236   2.155 -0.1178  0.6270 -0.2390
 6100TIP3    H139791   3.159   2.302   2.087  3.0269  1.2590  0.8738
 6100TIP3    H239792   3.172   2.153   2.114 -0.4073  0.6537 -0.4771
 6101TIP3   OH239793   2.286   5.212  13.538  0.1149 -0.1264 -0.5373
 6101TIP3    H139794   2.311   5.275  13.469 -0.8767  0.2415 -0.5739
 6101TIP3    H239795   2.255   5.135  13.490  0.2066 -0.1860 -0.5003
 6102TIP3   OH239796   3.348   0.319   2.658  0.1606  0.5052 -0.5033
 6102TIP3    H139797   3.438   0.312   2.691  0.4347 -0.1553 -1.3493
 6102TIP3    H239798   3.337   0.412   2.640  0.2820  0.7561  0.6635
 6103TIP3   OH239799   5.431   3.739  11.378  0.1492  0.1111 -0.2381
 6103TIP3    H139800   5.511   3.690  11.361  0.6070  1.1334 -1.0176
 6103TIP3    H239801   5.454   3.830  11.366 -0.6931  0.5580  1.2866
 6104TIP3   OH239802   3.912   0.106   5.215 -0.0297 -0.0385  0.0041
 6104TIP3    H139803   3.950   0.081   5.130 -0.6097 -0.9051 -0.0056
 6104TIP3    H239804   3.877   0.194   5.200 -1.1468 -0.6329 -0.9969
 6105TIP3   OH239805   5.048   3.449   1.432 -0.1527 -0.0579  0.1148
 6105TIP3    H139806   5.012   3.466   1.519 -1.8806  3.2442 -1.1296
 6105TIP3    H239807   5.029   3.357   1.416 -1.7972 -0.1635  2.3481
 6106TIP3   OH239808   3.042   1.888  10.893  0.1167 -0.3320  0.3442
 6106TIP3    H139809   3.121   1.920  10.849  0.3975 -0.0364  1.0545
 6106TIP3    H239810   2.999   1.834  10.828  0.7357 -0.2181 -0.1668
 6107TIP3   OH239811   6.306   5.828   1.290  0.4895  0.3471 -0.3598
 6107TIP3    H139812   6.395   5.800   1.269  0.4639  1.5407 -2.1740
 6107TIP3    H239813   6.274   5.762   1.351  3.4202  1.1686  2.1610
 6108TIP3   OH239814   1.522   0.017   3.966 -0.4206 -0.1269 -0.6095
 6108TIP3    H139815   1.465   0.045   4.037 -2.0450 -0.2997 -1.8179
 6108TIP3    H239816   1.565  -0.062   3.999 -2.6934 -1.3742 -0.5325
 6109TIP3   OH239817   0.103   4.253   0.045 -0.3704  0.2170 -0.1319
 6109TIP3    H139818   0.038   4.237   0.113 -1.2980 -1.7513 -1.4617
 6109TIP3    H239819   0.093   4.181  -0.017  1.9319  0.7808 -1.2495
 6110TIP3   OH239820   0.422   1.459   2.755  0.0689  0.1651  0.1260
 6110TIP3    H139821   0.366   1.422   2.824 -1.4359  1.5716 -0.3084
 6110TIP3    H239822   0.503   1.482   2.800 -0.1166 -0.8534  0.9988
 6111TIP3   OH239823   1.736   4.156   4.439  0.4923 -0.1914 -0.8070
 6111TIP3    H139824   1.770   4.121   4.356  0.6858 -2.5180  0.2110
 6111TIP3    H239825   1.698   4.080   4.482  0.6382  0.9597  1.3829
 6112TIP3   OH239826   4.868   1.892  13.396 -0.1266 -0.9115 -0.5558
 6112TIP3    H139827   4.898   1.856  13.479  0.8929 -1.1137 -0.9937
 6112TIP3    H239828   4.810   1.964  13.420  0.1369 -0.9849  0.3302
 6113TIP3   OH239829   3.871   4.781   6.325 -0.0554  0.1503 -0.1272
 6113TIP3    H139830   3.964   4.774   6.349  0.5929  0.8858 -2.3456
 6113TIP3    H239831   3.831   4.702   6.361  1.6535 -0.7410 -0.1463
 6114TIP3   OH239832   0.136   0.111  14.765 -0.2320  0.2852  0.3585
 6114TIP3    H139833   0.076   0.149  14.830  0.3483  1.0169  0.4817
 6114TIP3    H239834   0.202   0.179  14.752 -0.0197 -0.0944 -0.5702
 6115TIP3   OH239835   6.808   0.106   1.854  0.5863 -0.1993  0.6285
 6115TIP3    H139836   6.844   0.024   1.820 -1.0433 -0.0932 -1.4077
 6115TIP3    H239837   6.867   0.174   1.821  0.1382 -0.2749 -0.3327
 6116TIP3   OH239838   3.273   4.153   2.851 -0.1563 -0.1683  0.3065
 6116TIP3    H139839   3.250   4.203   2.773 -0.5237 -1.9880 -0.7633
 6116TIP3    H239840   3.274   4.218   2.921 -0.6013  1.3441 -1.0606
 6117TIP3   OH239841   1.513   1.442   4.557  0.3906  0.5482 -0.2695
 6117TIP3    H139842   1.460   1.475   4.630 -0.1116 -1.6132  0.3796
 6117TIP3    H239843   1.599   1.424   4.596  0.1947 -0.3738 -0.2422
 6118TIP3   OH239844   2.274   6.292   2.337 -0.1372  0.3410 -0.6792
 6118TIP3    H139845   2.367   6.267   2.339 -0.5221 -1.1090 -0.0634
 6118TIP3    H239846   2.238   6.245   2.262 -0.9498 -1.3143  0.7024
 6119TIP3   OH239847   0.689   1.213   2.909 -0.0194  0.1612  0.2549
 6119TIP3    H139848   0.616   1.241   2.853 -1.7700  1.0395  2.8662
 6119TIP3    H239849   0.652   1.144   2.965  1.8050 -1.0255  0.0505
 6120TIP3   OH239850   1.299   1.855  13.366 -0.0220  0.5206  0.4090
 6120TIP3    H139851   1.283   1.865  13.272  1.0291  1.3997  0.3162
 6120TIP3    H239852   1.281   1.763  13.384 -0.3782  0.3828 -0.6174
 6121TIP3   OH239853   1.629   3.887  15.533 -0.0200  0.2608 -0.0423
 6121TIP3    H139854   1.567   3.897  15.605  0.7813  0.6660  0.6047
 6121TIP3    H239855   1.621   3.795  15.507  0.5947 -0.2301  1.4181
 6122TIP3   OH239856   3.576   5.179  13.330  0.3904 -0.1143 -0.4904
 6122TIP3    H139857   3.596   5.100  13.280  0.8669 -1.8049  2.2772
 6122TIP3    H239858   3.481   5.176  13.344  0.6847 -1.2704  1.3308
 6123TIP3   OH239859   3.977   5.939  14.087  0.2165  0.2221 -0.1310
 6123TIP3    H139860   4.029   5.888  14.150  1.0914 -0.1139 -1.1013
 6123TIP3    H239861   4.033   5.944  14.009 -1.4591 -0.7031 -1.4283
 6124TIP3   OH239862   2.463   1.718  12.874  0.2158  0.0056 -0.3303
 6124TIP3    H139863   2.466   1.663  12.795 -3.7214  1.0046 -1.2992
 6124TIP3    H239864   2.442   1.806  12.841 -0.8371  0.5650  1.7336
 6125TIP3   OH239865   0.085   2.289   2.908  0.4060  0.4189 -0.1357
 6125TIP3    H139866   0.071   2.196   2.892  0.2504  0.2248  1.0847
 6125TIP3    H239867   0.002   2.320   2.943  0.4612  1.0221 -0.5291
 6126TIP3   OH239868   2.104   3.582  13.309 -0.2056  0.1193 -0.2232
 6126TIP3    H139869   2.083   3.630  13.389  1.2555  0.4037  0.0001
 6126TIP3    H239870   2.038   3.610  13.246 -0.3934  1.1046  0.4041
 6127TIP3   OH239871   3.779   3.857  17.249 -0.6251  0.5878  0.3484
 6127TIP3    H139872   3.849   3.837  17.311 -1.0996  0.5743  0.8834
 6127TIP3    H239873   3.719   3.914  17.297 -2.2385 -1.3312  0.7348
 6128TIP3   OH239874   2.498   5.818   5.485 -0.4294  0.2176 -0.6132
 6128TIP3    H139875   2.557   5.811   5.560 -0.6841 -3.6767 -0.6871
 6128TIP3    H239876   2.417   5.855   5.521  1.0637  2.9857  0.0199
 6129TIP3   OH239877   2.903   0.248   4.116 -0.1677 -0.3367 -0.3043
 6129TIP3    H139878   2.841   0.307   4.074  0.6136 -0.7438 -2.0629
 6129TIP3    H239879   2.910   0.173   4.057  0.5043 -1.2069  0.8334
 6130TIP3   OH239880   5.195   1.069  15.433  0.2753 -0.2194  0.3493
 6130TIP3    H139881   5.198   1.151  15.482 -0.7920 -1.3455  2.3559
 6130TIP3    H239882   5.122   1.080  15.372  0.5342  0.5338  0.1663
 6131TIP3   OH239883   4.030   5.594  16.382  0.6629  0.1935 -0.0371
 6131TIP3    H139884   3.991   5.569  16.298 -0.5266 -0.8183  0.8003
 6131TIP3    H239885   4.067   5.512  16.416  0.2173  0.3681  0.8984
 6132TIP3   OH239886   6.803   0.375  10.818 -0.1150 -0.2475  0.7149
 6132TIP3    H139887   6.849   0.339  10.894 -0.2066  0.1668  0.9671
 6132TIP3    H239888   6.822   0.469  10.821  1.1148 -0.4406 -0.6207
 6133TIP3   OH239889   3.843   0.666  13.728  0.1866 -0.3501 -0.1312
 6133TIP3    H139890   3.815   0.655  13.637 -2.8066  0.2681  0.6638
 6133TIP3    H239891   3.840   0.760  13.742  2.1255 -0.3195  0.1971
 6134TIP3   OH239892   4.856   5.621   1.835  0.3048  0.1544 -0.5054
 6134TIP3    H139893   4.908   5.584   1.764  1.0460  0.2255 -0.0010
 6134TIP3    H239894   4.770   5.637   1.796 -0.8138 -4.3972 -0.1171
 6135TIP3   OH239895   0.831   0.793  15.013  0.8107 -0.1722  0.8133
 6135TIP3    H139896   0.757   0.834  14.969  1.5744 -0.2244 -0.5508
 6135TIP3    H239897   0.796   0.710  15.046 -0.0241  0.3213  1.1980
 6136TIP3   OH239898   5.514   0.251   2.370 -0.6714 -0.4034 -0.3067
 6136TIP3    H139899   5.579   0.197   2.326 -2.6196 -0.9194 -2.6967
 6136TIP3    H239900   5.453   0.188   2.409  0.3568  0.0628  2.1396
 6137TIP3   OH239901   0.222   1.881  14.746  0.0712 -0.5254 -0.2936
 6137TIP3    H139902   0.244   1.939  14.673 -1.3675  0.8742  0.3569
 6137TIP3    H239903   0.268   1.799  14.726  0.9340  0.3356 -1.9791
 6138TIP3   OH239904   1.678   2.804  13.460  0.4180  0.5766  0.2045
 6138TIP3    H139905   1.625   2.817  13.381  0.9455  1.6981  0.0304
 6138TIP3    H239906   1.630   2.737  13.509 -0.0396  0.0378 -0.9481
 6139TIP3   OH239907   6.242   3.573   6.661 -0.4778 -0.3404  0.2410
 6139TIP3    H139908   6.158   3.580   6.615 -0.7191  0.5226  0.8045
 6139TIP3    H239909   6.261   3.663   6.688 -0.3265 -0.8427  1.8153
 6140TIP3   OH239910   1.770   6.481   0.264 -0.2827 -0.1230  0.1422
 6140TIP3    H139911   1.744   6.393   0.236  0.4839 -0.2981 -0.0173
 6140TIP3    H239912   1.698   6.537   0.236  0.2321 -0.3689 -1.7267
 6141TIP3   OH239913   0.771   3.428   4.310  0.1218 -0.0526  0.2972
 6141TIP3    H139914   0.818   3.483   4.372  0.1765 -0.2883  0.4676
 6141TIP3    H239915   0.840   3.391   4.254  0.2824 -1.3849  1.3317
 6142TIP3   OH239916   4.217   1.600   4.112  0.3642  0.0547 -0.2790
 6142TIP3    H139917   4.178   1.524   4.067  0.0731  0.3140 -0.4704
 6142TIP3    H239918   4.306   1.573   4.131  0.5726  0.0231 -1.2444
 6143TIP3   OH239919   0.975   1.860  13.833 -0.3740 -0.5689 -0.1801
 6143TIP3    H139920   0.945   1.777  13.871  0.5011 -0.4764  0.7323
 6143TIP3    H239921   0.906   1.884  13.770 -2.6048  0.0158  2.3971
 6144TIP3   OH239922   1.456   1.517   3.287 -0.2049  0.0428  0.3151
 6144TIP3    H139923   1.447   1.534   3.194 -1.3272 -0.6072  0.3019
 6144TIP3    H239924   1.371   1.484   3.315 -0.1086  0.9318  1.7243
 6145TIP3   OH239925   6.181   2.124   3.356  0.3538  0.2620 -0.0115
 6145TIP3    H139926   6.235   2.150   3.431 -0.4433 -1.1954  1.0961
 6145TIP3    H239927   6.214   2.037   3.331 -1.2171 -0.4870  0.4484
 6146TIP3   OH239928   2.494   4.067  12.623 -0.2999 -0.4120 -0.1323
 6146TIP3    H139929   2.584   4.096  12.632 -0.6980  0.3584  1.4480
 6146TIP3    H239930   2.480   4.007  12.697 -1.9068  1.6475  1.2932
 6147TIP3   OH239931   0.737   3.829  15.524  0.2307 -0.0289 -0.4465
 6147TIP3    H139932   0.805   3.848  15.588 -0.8142 -1.0473  0.9812
 6147TIP3    H239933   0.669   3.895  15.541  0.0743 -0.1197 -0.7094
 6148TIP3   OH239934   5.051   4.502  15.722 -0.0306 -0.4386 -0.3189
 6148TIP3    H139935   4.971   4.450  15.708  0.2415 -0.4212 -1.9233
 6148TIP3    H239936   5.107   4.444  15.774 -0.8706 -0.6467  0.3811
 6149TIP3   OH239937   6.750   0.967   3.371  0.3424 -0.2588  0.6636
 6149TIP3    H139938   6.745   0.985   3.277  2.7168  2.2060  0.9618
 6149TIP3    H239939   6.703   1.040   3.412 -2.1359 -2.1806  1.3749
 6150TIP3   OH239940   6.598   1.834   3.906  0.1052  0.1185 -0.4513
 6150TIP3    H139941   6.541   1.834   3.982  1.1484  0.3436  0.3476
 6150TIP3    H239942   6.540   1.849   3.831 -0.8064  0.7832  0.3917
 6151TIP3   OH239943   6.791   0.394  11.497 -0.5017  0.3888 -0.4131
 6151TIP3    H139944   6.868   0.345  11.468  0.1646 -0.1817  2.1588
 6151TIP3    H239945   6.797   0.393  11.592 -1.9083  3.2311 -0.2410
 6152TIP3   OH239946   0.425   0.431  14.057  0.5980  0.4669  0.2222
 6152TIP3    H139947   0.442   0.380  13.977 -0.6207 -0.4935  0.5535
 6152TIP3    H239948   0.489   0.398  14.120  0.3470 -0.0886  0.1908
 6153TIP3   OH239949   0.057   5.076   1.198 -0.3601  0.0295  0.2883
 6153TIP3    H139950   0.130   5.136   1.212 -0.6202  0.6281 -0.8769
 6153TIP3    H239951   0.079   5.030   1.117 -1.5039  0.5645 -0.3349
 6154TIP3   OH239952   0.561   6.406  13.867 -0.1468  0.2581  0.8398
 6154TIP3    H139953   0.546   6.314  13.847  0.2820  0.2854  0.3654
 6154TIP3    H239954   0.653   6.410  13.895  0.0958  0.6691  0.0131
 6155TIP3   OH239955   0.129   3.815   1.375 -0.2021 -0.2431  0.0817
 6155TIP3    H139956   0.111   3.877   1.303 -0.7499 -1.0820 -0.5123
 6155TIP3    H239957   0.081   3.851   1.450  1.9671  1.7046  0.5782
 6156TIP3   OH239958   0.123   6.007   0.668 -0.4835 -0.1010  0.0260
 6156TIP3    H139959   0.096   6.098   0.672  0.8315  0.3607 -1.2693
 6156TIP3    H239960   0.141   5.983   0.759 -0.2260  1.1146  0.2989
 6157TIP3   OH239961   3.152   4.686  11.773  0.0656  0.0337  0.6945
 6157TIP3    H139962   3.086   4.695  11.842 -0.9021 -3.2495  0.3053
 6157TIP3    H239963   3.236   4.692  11.819 -0.4574  2.8273  1.3981
 6158TIP3   OH239964   1.821   0.650   3.776  0.2674  0.2986  0.3627
 6158TIP3    H139965   1.879   0.700   3.718 -1.0179  0.6297 -0.6448
 6158TIP3    H239966   1.864   0.564   3.783  1.2398  0.7572  0.1872
 6159TIP3   OH239967   2.142   5.776   1.584 -0.4082 -0.3201 -0.9604
 6159TIP3    H139968   2.190   5.815   1.510 -2.3493  1.5293 -1.2927
 6159TIP3    H239969   2.197   5.703   1.612  0.6958 -0.6807 -3.8268
 6160TIP3   OH239970   0.749   6.762  15.409 -0.0308  0.0527  0.4206
 6160TIP3    H139971   0.655   6.773  15.425  0.2249  1.1770  1.1661
 6160TIP3    H239972   0.754   6.682  15.356 -1.5266  0.9098 -1.0466
 6161TIP3   OH239973   4.418   5.633  11.226 -0.7214  0.4139 -0.0679
 6161TIP3    H139974   4.408   5.548  11.184  0.2338  1.2972 -2.1847
 6161TIP3    H239975   4.363   5.692  11.174  1.0290  1.6784 -0.5408
 6162TIP3   OH239976   6.225   2.255   4.143 -0.4686  0.3223 -0.1733
 6162TIP3    H139977   6.252   2.209   4.063  0.8610  0.9748 -0.1241
 6162TIP3    H239978   6.189   2.338   4.111  0.7742  0.9163 -0.0799
 6163TIP3   OH239979   6.042   1.269  16.651 -0.3266  0.7792  0.1738
 6163TIP3    H139980   6.129   1.302  16.629  0.3446 -0.1558  1.3615
 6163TIP3    H239981   6.035   1.280  16.746 -0.3239 -1.8694  0.5185
 6164TIP3   OH239982   4.021   4.390  10.936 -0.0790  0.0269  0.4672
 6164TIP3    H139983   3.934   4.429  10.927 -0.6549 -1.0716  1.1758
 6164TIP3    H239984   4.011   4.301  10.901  1.5236  0.8706 -2.3112
 6165TIP3   OH239985   3.111   6.398  11.319 -0.1534 -0.3011 -0.1699
 6165TIP3    H139986   3.047   6.356  11.262  1.3965 -3.2451  0.1699
 6165TIP3    H239987   3.059   6.453  11.378 -2.4236 -2.8771  0.3245
 6166TIP3   OH239988   4.023   4.963   3.964  0.0450  0.1839  0.0696
 6166TIP3    H139989   4.072   5.001   3.891  0.2152  0.3807  0.2867
 6166TIP3    H239990   3.961   5.031   3.989  0.3531  0.3241  0.4609
 6167TIP3   OH239991   3.600   6.800  14.183 -0.6009  0.4520  0.3018
 6167TIP3    H139992   3.590   6.884  14.229 -1.5864  1.8659 -2.3601
 6167TIP3    H239993   3.686   6.768  14.209 -0.3790  2.0998  1.6728
 6168TIP3   OH239994   0.189   4.779  15.022 -0.3117  0.2438  0.4036
 6168TIP3    H139995   0.209   4.717  14.952  1.2188  1.5093 -0.2999
 6168TIP3    H239996   0.245   4.855  15.005 -0.8528  1.1078  2.2612
 6169TIP3   OH239997   0.071   2.917  13.375 -0.1715 -0.4988  0.0828
 6169TIP3    H139998   0.139   2.871  13.324  0.4873 -0.2415  0.7235
 6169TIP3    H239999   0.056   2.860  13.450 -0.9479 -0.7423 -0.2559
 6170TIP3   OH240000   0.325   3.467   4.423  0.1242  0.2968 -0.4458
 6170TIP3    H140001   0.387   3.521   4.374  1.3247  0.3246  1.0523
 6170TIP3    H240002   0.323   3.384   4.375  0.9228  0.4827 -0.8095
 6171TIP3   OH240003   6.012   3.374   5.023  0.5346  0.0121 -0.5208
 6171TIP3    H140004   5.929   3.357   5.068  0.5169  1.4975  0.0253
 6171TIP3    H240005   5.987   3.426   4.946  1.0571  1.2380  0.1337
 6172TIP3   OH240006   2.809   4.850  15.164 -0.0287 -0.2564 -0.0684
 6172TIP3    H140007   2.779   4.767  15.203 -1.0266 -0.2377 -0.7844
 6172TIP3    H240008   2.788   4.841  15.071 -0.2433  0.8487 -0.1270
 6173TIP3   OH240009   0.479   5.911   2.614  0.4137 -0.6406  0.3610
 6173TIP3    H140010   0.538   5.943   2.682 -0.3650 -0.6369  1.0479
 6173TIP3    H240011   0.517   5.828   2.586  2.1541  0.6001 -1.0603
 6174TIP3   OH240012   1.547   1.773   3.583 -0.1016 -0.7403  0.5449
 6174TIP3    H140013   1.535   1.696   3.638 -0.9621 -1.6928 -0.9278
 6174TIP3    H240014   1.619   1.749   3.524 -1.0463 -0.8365 -0.5953
 6175TIP3   OH240015   1.292   4.962  11.408  0.6530 -0.2913  0.1459
 6175TIP3    H140016   1.268   5.030  11.345  0.0018 -1.7581 -1.2040
 6175TIP3    H240017   1.303   4.883  11.356  3.8775 -0.7227  1.3515
 6176TIP3   OH240018   1.556   5.482  16.975  0.2012  0.3682 -0.4929
 6176TIP3    H140019   1.543   5.501  16.882 -0.0097  2.7388 -0.0162
 6176TIP3    H240020   1.572   5.567  17.015 -0.6652 -0.5008  1.8158
 6177TIP3   OH240021   4.786   5.584  12.144  0.1168 -0.2192  0.1978
 6177TIP3    H140022   4.806   5.540  12.061 -0.0230 -0.4031  0.2598
 6177TIP3    H240023   4.825   5.527  12.211  4.2974  2.2540  0.0261
 6178TIP3   OH240024   4.350   4.340   2.516 -0.2191  0.8257  0.0164
 6178TIP3    H140025   4.414   4.344   2.587 -0.0570  1.2138 -0.1506
 6178TIP3    H240026   4.376   4.263   2.465 -0.3931  0.4873  0.4261
 6179TIP3   OH240027   3.464   3.808   2.432 -0.0332 -0.2971 -0.3227
 6179TIP3    H140028   3.412   3.738   2.394  0.6120 -0.6284 -0.5982
 6179TIP3    H240029   3.418   3.889   2.407 -0.7897 -0.6115  0.0232
 6180TIP3   OH240030   3.343   2.093  16.187  1.0105 -0.0271  0.3150
 6180TIP3    H140031   3.404   2.155  16.226  0.6479  1.2111 -1.0510
 6180TIP3    H240032   3.358   2.011  16.235  0.9124  1.3097  2.7010
 6181TIP3   OH240033   2.313   5.032   4.647 -0.6409 -0.1297 -0.2960
 6181TIP3    H140034   2.398   5.066   4.674 -1.8037  1.2548  1.7679
 6181TIP3    H240035   2.334   4.957   4.590  1.9248  0.4637 -0.2014
 6182TIP3   OH240036   5.189   3.405  15.258 -0.0240  0.2090 -0.6408
 6182TIP3    H140037   5.134   3.355  15.198 -1.3021 -0.1569  0.7800
 6182TIP3    H240038   5.181   3.496  15.230  1.5529 -0.2534 -2.6601
 6183TIP3   OH240039   0.144   3.426   5.556  0.3266  0.0254 -0.4438
 6183TIP3    H140040   0.080   3.474   5.503 -1.1390 -2.0303 -0.5771
 6183TIP3    H240041   0.169   3.488   5.625 -0.2106  1.5752 -1.6187
 6184TIP3   OH240042   0.917   2.936  12.136  0.2377  0.2726 -0.4769
 6184TIP3    H140043   0.942   2.851  12.100  0.0806 -0.1182  0.3209
 6184TIP3    H240044   0.998   2.987  12.136  0.9496 -0.7849  1.5301
 6185TIP3   OH240045   1.690   1.084  15.231  0.0341 -0.1120  0.0732
 6185TIP3    H140046   1.683   0.990  15.245  0.9971 -0.1996  0.0334
 6185TIP3    H240047   1.638   1.124  15.301 -0.5866 -0.6745 -0.0656
 6186TIP3   OH240048   0.786   1.141  12.894 -0.2618 -0.8736  0.1760
 6186TIP3    H140049   0.777   1.231  12.925  2.1390 -0.3017 -0.7117
 6186TIP3    H240050   0.832   1.148  12.811  0.0427 -2.9332  0.1312
 6187TIP3   OH240051   2.449   5.527   3.224  0.1573 -0.1958  0.9056
 6187TIP3    H140052   2.464   5.434   3.207 -0.3891 -0.0399 -0.5563
 6187TIP3    H240053   2.536   5.564   3.235  0.5654 -0.3240 -1.6633
 6188TIP3   OH240054   1.281   2.228  16.051 -0.0772 -0.0239  0.4174
 6188TIP3    H140055   1.232   2.206  16.131  0.6823  1.8008  1.4085
 6188TIP3    H240056   1.240   2.307  16.018  0.0247 -0.4139 -0.6746
 6189TIP3   OH240057   5.817   5.523   0.919 -0.0844 -0.3415 -0.0792
 6189TIP3    H140058   5.860   5.447   0.959  1.9375  0.4406 -0.7075
 6189TIP3    H240059   5.770   5.488   0.844 -0.2009 -1.1496  0.3692
 6190TIP3   OH240060   0.157   6.324   4.944 -0.3722  0.4883 -0.3661
 6190TIP3    H140061   0.124   6.368   5.022 -0.1646  0.4659 -0.2667
 6190TIP3    H240062   0.175   6.235   4.972 -1.3486  0.1755 -0.7093
 6191TIP3   OH240063   1.279   3.228   5.352 -0.4256 -0.6213 -0.0323
 6191TIP3    H140064   1.281   3.204   5.445  0.4708  0.1603  0.1548
 6191TIP3    H240065   1.278   3.324   5.352 -0.4618 -0.6204 -0.8342
 6192TIP3   OH240066   5.402   5.977  14.634 -0.3748  0.3317 -0.1282
 6192TIP3    H140067   5.361   5.925  14.704 -0.3116  1.8882  1.0866
 6192TIP3    H240068   5.496   5.973  14.652 -0.2242 -0.5094 -1.0213
 6193TIP3   OH240069   6.291   3.719  11.682 -0.9210 -0.5142  0.2904
 6193TIP3    H140070   6.270   3.753  11.595 -3.4828 -1.1536  0.6280
 6193TIP3    H240071   6.306   3.798  11.735  1.2237 -0.1321 -0.8174
 6194TIP3   OH240072   5.019   0.464   5.778  0.3260 -0.2981  0.4184
 6194TIP3    H140073   5.096   0.514   5.753 -1.5060  0.9927 -2.9503
 6194TIP3    H240074   4.992   0.501   5.863  0.1239  3.1851 -1.0941
 6195TIP3   OH240075   1.311   5.999  16.093  0.3400  0.6683 -0.0272
 6195TIP3    H140076   1.270   6.080  16.062  0.2026  0.8023  0.4971
 6195TIP3    H240077   1.392   6.028  16.135  0.9643  0.4056 -1.0371
 6196TIP3   OH240078   4.857   2.403   0.177 -0.5812  0.6670  0.1046
 6196TIP3    H140079   4.881   2.364   0.261  1.1075  0.3175 -0.5196
 6196TIP3    H240080   4.839   2.328   0.120  1.2878  0.8194 -0.7022
 6197TIP3   OH240081   2.977   3.761  12.750 -0.0552  0.3693  0.5607
 6197TIP3    H140082   2.887   3.732  12.736 -0.6385  1.7789  1.3986
 6197TIP3    H240083   3.016   3.760  12.662 -0.1562 -2.5423  0.4944
 6198TIP3   OH240084   0.795   1.812   6.315 -0.5579  0.0097 -0.2678
 6198TIP3    H140085   0.839   1.735   6.349 -0.0579  0.2118 -0.4599
 6198TIP3    H240086   0.861   1.857   6.262 -0.8667  0.5279 -0.2194
 6199TIP3   OH240087   5.946   0.210   1.441 -0.0568 -0.4799  0.3732
 6199TIP3    H140088   6.025   0.249   1.406  0.1109 -1.7980 -0.7831
 6199TIP3    H240089   5.976   0.154   1.512  0.0910 -1.1168 -0.1796
 6200TIP3   OH240090   2.377   6.368   1.135  0.6450 -0.3271 -0.2466
 6200TIP3    H140091   2.455   6.423   1.141  0.9459 -0.8914  1.2544
 6200TIP3    H240092   2.304   6.431   1.130  1.0696  0.2199  0.2397
 6201TIP3   OH240093   0.469   0.417  15.799  0.2102 -0.3531  0.3995
 6201TIP3    H140094   0.438   0.491  15.748  0.7897 -1.0058 -0.9090
 6201TIP3    H240095   0.505   0.457  15.879  0.6223  0.7940 -0.3372
 6202TIP3   OH240096   0.449   4.199  13.279 -0.2581 -0.3667 -0.2270
 6202TIP3    H140097   0.494   4.129  13.231 -0.7677 -0.0053 -1.2562
 6202TIP3    H240098   0.383   4.154  13.331  0.3170 -0.7708  0.1481
 6203TIP3   OH240099   3.700   4.278   0.273 -0.1668 -0.3140 -0.8099
 6203TIP3    H140100   3.633   4.347   0.274  2.7876  2.6726  0.2217
 6203TIP3    H240101   3.655   4.200   0.306 -2.6641  2.0520  1.6591
 6204TIP3   OH240102   5.201   5.474  15.326 -0.6502 -0.0048 -0.1214
 6204TIP3    H140103   5.222   5.385  15.353  1.7874  0.2291 -1.1095
 6204TIP3    H240104   5.111   5.488  15.355  0.2730 -1.3719  3.6079
 6205TIP3   OH240105   0.741   5.493   2.635 -0.1959  0.0999  0.7800
 6205TIP3    H140106   0.665   5.439   2.657 -1.1313  1.2976  0.5482
 6205TIP3    H240107   0.782   5.448   2.562 -0.8313 -0.4221  0.7407
 6206TIP3   OH240108   4.761   6.245  13.617 -0.5769  0.0576  0.8191
 6206TIP3    H140109   4.829   6.271  13.555  0.6318 -0.5702  1.8662
 6206TIP3    H240110   4.781   6.154  13.639 -2.1182 -0.3392  0.6836
 6207TIP3   OH240111   5.078   3.180  13.442 -0.1043  0.2184  0.3032
 6207TIP3    H140112   5.072   3.274  13.422 -1.4140 -0.4203 -2.5992
 6207TIP3    H240113   5.168   3.167  13.471  0.3821  2.2018 -0.2390
 6208TIP3   OH240114   0.398   4.252  16.903 -0.3165  0.6771  0.5044
 6208TIP3    H140115   0.418   4.304  16.981 -0.0699  0.4291  0.6082
 6208TIP3    H240116   0.416   4.162  16.929  0.3807  0.6565 -0.0414
 6209TIP3   OH240117   3.200   1.698   1.317 -0.3523 -1.0569  0.0907
 6209TIP3    H140118   3.138   1.632   1.286  0.1875 -1.5293  0.0022
 6209TIP3    H240119   3.279   1.684   1.265 -0.8643  0.9198 -1.2689
 6210TIP3   OH240120   6.357   2.991   6.471  0.1158 -0.3710  0.0273
 6210TIP3    H140121   6.415   3.012   6.544  1.4968  0.3542 -1.2354
 6210TIP3    H240122   6.403   3.025   6.394 -1.4809 -0.7909 -1.1322
 6211TIP3   OH240123   3.658   4.838  11.228 -0.2177 -0.1763  0.1157
 6211TIP3    H140124   3.638   4.932  11.231 -0.5355 -0.2801  1.5869
 6211TIP3    H240125   3.751   4.833  11.246 -0.3091 -0.1766  0.5927
 6212TIP3   OH240126   1.266   2.774  16.920  0.3455 -0.6936 -0.4029
 6212TIP3    H140127   1.304   2.849  16.873  0.5027  0.1551  1.0248
 6212TIP3    H240128   1.299   2.697  16.873  0.3728  0.1185 -1.7550
 6213TIP3   OH240129   4.410   0.462   1.391  0.5429  0.0152 -0.3933
 6213TIP3    H140130   4.451   0.454   1.477  0.7040 -0.5483 -0.5151
 6213TIP3    H240131   4.460   0.531   1.347 -0.7692  1.6582  0.6439
 6214TIP3   OH240132   3.406   0.378  14.392  0.6282 -0.3715 -0.6057
 6214TIP3    H140133   3.447   0.407  14.474  1.1060 -0.0358 -0.9586
 6214TIP3    H240134   3.405   0.282  14.399  1.8301 -0.4057 -0.7504
 6215TIP3   OH240135   3.185   1.993  12.924  0.3337 -0.2001 -0.3196
 6215TIP3    H140136   3.261   2.040  12.958 -1.0555  2.4952 -0.7625
 6215TIP3    H240137   3.131   1.977  13.001  0.4707 -0.4259 -0.2702
 6216TIP3   OH240138   3.219   6.667   2.807  0.2189 -0.0089 -0.1212
 6216TIP3    H140139   3.157   6.725   2.763 -0.4477  0.9084  1.9592
 6216TIP3    H240140   3.189   6.665   2.898  2.6135 -0.3941  0.6920
 6217TIP3   OH240141   5.185   1.788   2.094  0.8758  0.3795  0.0261
 6217TIP3    H140142   5.210   1.696   2.102 -1.3975 -0.3582 -0.9619
 6217TIP3    H240143   5.094   1.791   2.125 -0.4100  1.5732 -3.6589
 6218TIP3   OH240144   0.704   1.686  15.245  0.3615 -0.0675 -0.6406
 6218TIP3    H140145   0.676   1.764  15.293 -0.3067 -1.3808  1.1434
 6218TIP3    H240146   0.799   1.682  15.258  0.1511 -0.5424  0.7583
 6219TIP3   OH240147   5.712   1.594  12.134  0.2294 -0.7679 -0.2757
 6219TIP3    H140148   5.631   1.544  12.146 -0.2188  0.3290  1.4454
 6219TIP3    H240149   5.714   1.613  12.040 -0.9711 -1.7079 -0.5083
 6220TIP3   OH240150   0.363   4.976  14.638 -0.0232  0.0175  0.3649
 6220TIP3    H140151   0.333   5.000  14.551  1.2608  0.5787  0.0775
 6220TIP3    H240152   0.287   4.992  14.694 -0.8837 -0.4405 -0.6509
 6221TIP3   OH240153   6.161   5.408  10.900  0.2177 -0.1484  0.0121
 6221TIP3    H140154   6.245   5.454  10.907  0.3625 -0.3253 -0.5214
 6221TIP3    H240155   6.129   5.431  10.813 -0.2173 -0.2016  0.1599
 6222TIP3   OH240156   1.368   3.637   1.430  0.3665  0.1729  0.2084
 6222TIP3    H140157   1.327   3.575   1.370  0.3056 -1.8508  2.3054
 6222TIP3    H240158   1.320   3.719   1.416  0.6042 -0.1336 -2.7548
 6223TIP3   OH240159   6.705   2.842   5.917  0.4193  0.0163  0.2845
 6223TIP3    H140160   6.640   2.906   5.887 -0.1093 -0.7218 -0.1736
 6223TIP3    H240161   6.678   2.822   6.007  0.7180  0.6049  0.5043
 6224TIP3   OH240162   0.298   3.561  14.704  0.0545  0.1365 -0.2797
 6224TIP3    H140163   0.375   3.509  14.725 -1.0810 -1.8241 -0.7905
 6224TIP3    H240164   0.245   3.559  14.784 -0.8338 -1.0762 -0.8749
 6225TIP3   OH240165   4.866   0.777   0.783  0.0132  0.1581 -0.3484
 6225TIP3    H140166   4.893   0.772   0.875 -0.2356  1.7144 -0.1814
 6225TIP3    H240167   4.940   0.740   0.735  0.0641 -0.8628  0.4727
 6226TIP3   OH240168   1.744   1.638  12.654 -0.0712 -0.1132 -0.3320
 6226TIP3    H140169   1.822   1.607  12.609  0.5008  0.1675  0.4502
 6226TIP3    H240170   1.725   1.723  12.613 -0.3375 -0.4693 -0.9509
 6227TIP3   OH240171   4.080   3.466   6.236 -0.1937  0.0518 -0.1999
 6227TIP3    H140172   4.028   3.501   6.308 -0.2991 -1.4950  0.5056
 6227TIP3    H240173   4.072   3.531   6.166  0.9404  2.1749  1.5994
 6228TIP3   OH240174   6.730   5.377  16.280 -0.6776  0.2555  0.2943
 6228TIP3    H140175   6.825   5.373  16.294 -0.7618  0.5886  0.9803
 6228TIP3    H240176   6.712   5.469  16.263 -1.0813  0.4455  1.6888
 6229TIP3   OH240177   1.305   4.571   0.383 -0.3740 -0.0430 -0.3241
 6229TIP3    H140178   1.296   4.650   0.330 -1.8115 -0.4426 -0.7013
 6229TIP3    H240179   1.344   4.507   0.324 -0.1496  0.0870 -0.3181
 6230TIP3   OH240180   5.430   1.478  13.330  0.0940 -0.4598 -0.4155
 6230TIP3    H140181   5.509   1.472  13.383 -0.0438 -0.5666 -0.2227
 6230TIP3    H240182   5.364   1.430  13.379  0.1611 -1.2112 -1.0546
 6231TIP3   OH240183   5.462   1.785  11.942  0.2383 -0.4000 -0.2659
 6231TIP3    H140184   5.375   1.764  11.908  0.3817 -2.8174  0.7536
 6231TIP3    H240185   5.488   1.864  11.894 -2.1181 -0.1619 -1.2375
 6232TIP3   OH240186   1.848   5.053  11.144 -0.2888  0.5866 -0.4565
 6232TIP3    H140187   1.902   5.030  11.219  1.0092  0.9797 -1.2630
 6232TIP3    H240188   1.787   5.119  11.177 -0.4494 -0.0303  0.5086
 6233TIP3   OH240189   6.618   4.632  13.462 -0.5599  0.5731  0.3445
 6233TIP3    H140190   6.654   4.547  13.487 -2.0204 -0.1333  0.1057
 6233TIP3    H240191   6.676   4.662  13.392 -1.9391 -1.7799 -1.8949
 6234TIP3   OH240192   0.459   1.144  13.769 -0.3384 -0.2933  0.2257
 6234TIP3    H140193   0.428   1.072  13.823  0.0576 -0.2479  0.5099
 6234TIP3    H240194   0.525   1.105  13.712 -0.1034 -0.1463  0.3994
 6235TIP3   OH240195   6.393   2.660  16.769 -0.3478  0.1440  0.2509
 6235TIP3    H140196   6.448   2.608  16.827 -0.5555 -1.0001 -0.5400
 6235TIP3    H240197   6.326   2.697  16.826 -0.0523 -0.2735  0.8692
 6236TIP3   OH240198   2.150   6.352  15.914 -0.1934  0.0732  0.1771
 6236TIP3    H140199   2.234   6.310  15.927 -0.1019 -0.1609 -1.1144
 6236TIP3    H240200   2.087   6.280  15.910  0.0728 -0.0442 -2.9145
 6237TIP3   OH240201   6.181   3.000  17.113 -0.5110  0.2215  0.5383
 6237TIP3    H140202   6.264   2.980  17.156 -0.0566 -0.2640 -0.5298
 6237TIP3    H240203   6.180   3.095  17.106  0.0439  0.2177  0.3850
 6238TIP3   OH240204   2.375   3.524   5.419 -0.1660  0.5872  0.2514
 6238TIP3    H140205   2.463   3.546   5.388 -0.4137 -0.0686 -0.9179
 6238TIP3    H240206   2.316   3.571   5.361 -0.6635 -1.8557 -1.2678
 6239TIP3   OH240207   4.998   2.088  13.131  0.0539  0.5180  0.2895
 6239TIP3    H140208   5.071   2.081  13.069  0.2433  1.3526  0.4184
 6239TIP3    H240209   4.924   2.117  13.078  0.2551  1.3863  0.4796
 6240TIP3   OH240210   6.541   0.246  13.134 -0.2947  0.8419  0.0935
 6240TIP3    H140211   6.549   0.307  13.207 -0.6652  1.4383 -0.3518
 6240TIP3    H240212   6.613   0.268  13.076 -0.4214  0.8461 -0.0621
 6241TIP3   OH240213   3.053   6.399   3.179 -0.5957  0.2137 -0.0415
 6241TIP3    H140214   2.979   6.345   3.152  0.1980 -0.7406 -0.3270
 6241TIP3    H240215   3.075   6.368   3.266 -1.4917  1.5391  0.6853
 6242TIP3   OH240216   0.903   5.622  13.949 -0.3161 -0.0080 -0.5930
 6242TIP3    H140217   0.934   5.532  13.955  0.2332  0.0595 -2.2538
 6242TIP3    H240218   0.837   5.629  14.018  0.0683 -1.4961 -0.0574
 6243TIP3   OH240219   5.130   3.913   0.667  0.5941  0.4079 -0.4354
 6243TIP3    H140220   5.139   3.958   0.583 -1.0138  0.0029 -0.8508
 6243TIP3    H240221   5.070   3.840   0.649  0.4929  0.1226  0.9867
 6244TIP3   OH240222   2.380   2.542   4.825  0.0835 -0.3177  0.3422
 6244TIP3    H140223   2.450   2.477   4.826  1.5420  1.2154 -0.5575
 6244TIP3    H240224   2.369   2.567   4.916  0.2376 -1.0306  0.5632
 6245TIP3   OH240225   3.978   5.482   1.973  0.3155  0.2993  0.0006
 6245TIP3    H140226   3.990   5.517   1.885  1.1637  0.4597  0.1758
 6245TIP3    H240227   3.933   5.552   2.021 -0.9585 -0.1349 -0.5429
 6246TIP3   OH240228   5.533   4.602   1.232  0.1486  0.5455  0.3689
 6246TIP3    H140229   5.560   4.516   1.201  1.6542  0.7260  1.1161
 6246TIP3    H240230   5.482   4.584   1.311  0.3043  0.3137  0.4190
 6247TIP3   OH240231   2.325   1.796  12.263 -0.0795  0.3351 -0.2664
 6247TIP3    H140232   2.339   1.701  12.259 -1.5520  0.1029 -0.0923
 6247TIP3    H240233   2.399   1.829  12.314 -0.7924 -1.0102  1.7137
 6248TIP3   OH240234   2.430   2.001   2.371  0.0074 -0.4233 -0.0405
 6248TIP3    H140235   2.514   2.041   2.351 -0.1871  0.0043 -0.0116
 6248TIP3    H240236   2.403   1.958   2.290 -0.2257  0.3043 -0.3549
 6249TIP3   OH240237   1.247   1.877  12.216 -0.0487 -0.2955  0.4345
 6249TIP3    H140238   1.299   1.930  12.276  0.6038  0.3627 -0.7099
 6249TIP3    H240239   1.273   1.906  12.129 -1.8133 -0.4515 -0.1600
 6250TIP3   OH240240   4.337   6.035   2.248 -0.5470  0.1049  0.2877
 6250TIP3    H140241   4.423   6.005   2.219 -0.3710  0.3245  0.5794
 6250TIP3    H240242   4.356   6.113   2.302 -0.9503  0.3528  0.0714
 6251TIP3   OH240243   1.685   0.118   0.709 -0.0171 -0.3771  0.3394
 6251TIP3    H140244   1.715   0.044   0.656  0.9926 -0.5271  1.1124
 6251TIP3    H240245   1.717   0.100   0.797  0.2898  1.0119  0.5289
 6252TIP3   OH240246   5.370   3.794  16.679 -0.6484 -0.4669 -0.0961
 6252TIP3    H140247   5.298   3.732  16.691 -1.3443 -0.1411 -2.4329
 6252TIP3    H240248   5.421   3.786  16.760 -0.9945 -3.7494 -0.1112
 6253TIP3   OH240249   3.613   2.556  12.422  0.0591  0.2106  0.0492
 6253TIP3    H140250   3.542   2.528  12.479 -0.4793  1.5221  0.0419
 6253TIP3    H240251   3.690   2.511  12.455 -0.4096  0.3102  1.2828
 6254TIP3   OH240252   5.489   5.118   0.415 -0.2533 -0.4843 -0.0194
 6254TIP3    H140253   5.515   5.196   0.366  1.0192 -0.5937  0.4542
 6254TIP3    H240254   5.571   5.085   0.453 -0.9870 -1.2581  0.9275
 6255TIP3   OH240255   2.457   0.907   3.492 -0.0824 -0.4424 -0.5109
 6255TIP3    H140256   2.386   0.911   3.427 -0.0279 -1.6585 -0.6679
 6255TIP3    H240257   2.412   0.895   3.575 -0.1494  1.0530 -0.3222
 6256TIP3   OH240258   5.098   4.972  13.516 -0.6930  0.2774 -0.5664
 6256TIP3    H140259   5.034   5.020  13.568 -0.0010  2.1705 -1.3837
 6256TIP3    H240260   5.135   4.908  13.576 -0.5614  1.8035  1.0386
 6257TIP3   OH240261   1.982   4.790   2.970  0.3832 -0.2119  0.3945
 6257TIP3    H140262   2.031   4.772   2.890  1.0313 -0.7073  0.9003
 6257TIP3    H240263   2.043   4.837   3.026 -0.3226  0.8541  0.2915
 6258TIP3   OH240264   0.322   3.488  11.777 -0.1974 -0.0127 -0.1338
 6258TIP3    H140265   0.348   3.574  11.809  1.1037  0.1924 -1.6689
 6258TIP3    H240266   0.281   3.445  11.852 -0.4266  1.7627  0.7647
 6259TIP3   OH240267   6.009   0.461  15.004 -0.2717  0.7264 -0.5941
 6259TIP3    H140268   6.008   0.381  15.057 -2.0852 -0.2716 -2.0531
 6259TIP3    H240269   6.096   0.499  15.018  1.3250 -2.5064 -1.3534
 6260TIP3   OH240270   6.477   5.518   2.119 -0.5177  0.5690  0.4710
 6260TIP3    H140271   6.424   5.523   2.039 -0.3785 -0.5057  0.3073
 6260TIP3    H240272   6.567   5.531   2.089 -0.5608  1.1431  0.5855
 6261TIP3   OH240273   2.420   0.663  12.533  0.5805 -0.3898 -0.5285
 6261TIP3    H140274   2.455   0.576  12.514 -0.2706 -0.1060 -3.8174
 6261TIP3    H240275   2.473   0.722  12.479 -1.0226  0.7290 -0.9301
 6262TIP3   OH240276   3.336   1.302   5.395  0.0235 -0.1047  0.3741
 6262TIP3    H140277   3.412   1.279   5.343  0.1697 -1.4904  1.1684
 6262TIP3    H240278   3.261   1.283   5.339  0.2456  1.6997 -0.5793
 6263TIP3   OH240279   0.674   1.634  17.247  0.0768 -0.3953  0.0837
 6263TIP3    H140280   0.764   1.650  17.218 -0.2497  1.1788 -0.0928
 6263TIP3    H240281   0.676   1.650  17.342  0.3710 -2.1476  0.3943
 6264TIP3   OH240282   2.105   0.483   6.624  0.5377 -0.7103  0.2447
 6264TIP3    H140283   2.045   0.416   6.656  0.6537 -0.5603  0.7776
 6264TIP3    H240284   2.065   0.566   6.649  0.6679 -0.5929  0.0705
 6265TIP3   OH240285   4.407   5.283   4.234  0.8022  0.0313 -0.5111
 6265TIP3    H140286   4.376   5.241   4.314  1.3203 -0.7050 -0.6970
 6265TIP3    H240287   4.495   5.248   4.221  0.8488  0.4083 -1.2150
 6266TIP3   OH240288   2.220   4.627  10.825  0.0665  0.1288  0.0485
 6266TIP3    H140289   2.194   4.700  10.882 -0.0649 -0.7832  1.1561
 6266TIP3    H240290   2.153   4.627  10.756  0.4464  1.4778 -0.3465
 6267TIP3   OH240291   6.190   6.161   3.425 -0.5134  0.8128  0.0829
 6267TIP3    H140292   6.286   6.158   3.429 -0.4999 -0.6449 -1.1672
 6267TIP3    H240293   6.171   6.230   3.361 -0.3073  1.0439  0.2677
 6268TIP3   OH240294   4.458   4.800   3.452  0.7456  0.1490  0.7070
 6268TIP3    H140295   4.423   4.795   3.363 -0.0908  1.4710  0.9401
 6268TIP3    H240296   4.402   4.742   3.503  0.9778 -0.3042  0.4482
 6269TIP3   OH240297   6.758   3.807  16.802  0.3570  0.1860  0.3171
 6269TIP3    H140298   6.821   3.846  16.741 -0.5453  0.4234 -0.4818
 6269TIP3    H240299   6.705   3.748  16.747  0.5792 -0.8267  1.1808
 6270TIP3   OH240300   2.184   1.708   4.206  0.7215  0.5218  0.1200
 6270TIP3    H140301   2.252   1.641   4.218  1.1408  1.1566  1.3955
 6270TIP3    H240302   2.172   1.714   4.111  0.9141 -1.1197 -0.0307
 6271TIP3   OH240303   2.770   0.223  11.839 -0.1245 -0.0840 -0.1567
 6271TIP3    H140304   2.836   0.155  11.822  0.1183 -0.2374  1.2954
 6271TIP3    H240305   2.768   0.230  11.935 -3.4100 -1.2632 -0.0663
 6272TIP3   OH240306   6.306   4.544  12.239 -0.3564  0.2804  0.1833
 6272TIP3    H140307   6.336   4.634  12.225 -0.4566  0.3686  0.5234
 6272TIP3    H240308   6.316   4.502  12.154 -2.6649  1.3180 -0.6529
 6273TIP3   OH240309   5.393   1.935  15.233 -0.0248  0.1926 -0.3364
 6273TIP3    H140310   5.415   2.004  15.170  0.1649  0.5236  0.0945
 6273TIP3    H240311   5.341   1.979  15.300 -0.6485 -0.2637 -0.5177
 6274TIP3   OH240312   3.625   5.439   2.557 -0.0195 -0.6968 -0.0638
 6274TIP3    H140313   3.696   5.475   2.611  1.3565 -1.8366 -1.0617
 6274TIP3    H240314   3.567   5.396   2.619 -0.1993  0.8288  0.8427
 6275TIP3   OH240315   4.800   4.568   0.028 -0.0085 -0.0565  0.2415
 6275TIP3    H140316   4.759   4.560  -0.058 -1.6535 -1.2700  1.1221
 6275TIP3    H240317   4.793   4.661   0.050  0.8298  0.3461 -1.1040
 6276TIP3   OH240318   3.501   6.351  13.743  0.8041 -0.4581  0.2177
 6276TIP3    H140319   3.558   6.345  13.819  2.6792 -0.6154 -1.1741
 6276TIP3    H240320   3.559   6.340  13.668 -1.1131 -1.1048 -1.2280
 6277TIP3   OH240321   1.213   0.040   1.440 -0.5784 -0.1228 -0.1161
 6277TIP3    H140322   1.124   0.070   1.420 -0.9227  0.1784  1.7879
 6277TIP3    H240323   1.268   0.115   1.418 -0.9463  0.2213  0.1305
 6278TIP3   OH240324   6.318   4.602  12.845  0.1798 -0.3641 -0.0552
 6278TIP3    H140325   6.357   4.559  12.769  0.1636 -0.9589  0.2701
 6278TIP3    H240326   6.235   4.638  12.812 -0.0184 -0.9710 -0.2204
 6279TIP3   OH240327   5.638   0.687  13.552 -0.3875  0.0426 -0.0800
 6279TIP3    H140328   5.582   0.616  13.582 -0.2126 -0.0180  0.1009
 6279TIP3    H240329   5.709   0.691  13.616 -0.3278  0.2945 -0.1620
 6280TIP3   OH240330   0.311   1.660   1.667 -0.2826  0.0477  0.4470
 6280TIP3    H140331   0.390   1.714   1.665 -1.0969  1.3658  2.2813
 6280TIP3    H240332   0.271   1.680   1.752 -2.2386 -1.0905 -0.1869
 6281TIP3   OH240333   5.997   2.865  13.389  0.4004  0.6320  0.1481
 6281TIP3    H140334   6.006   2.947  13.437  0.1338 -0.2712  1.7565
 6281TIP3    H240335   6.087   2.842  13.362  0.6700  0.6546  1.0274
 6282TIP3   OH240336   0.018   3.016   0.742 -0.7073 -0.2662 -0.0149
 6282TIP3    H140337  -0.048   3.084   0.737 -0.2686  0.2270  0.6945
 6282TIP3    H240338   0.101   3.063   0.754 -0.5394 -0.9350  1.7302
 6283TIP3   OH240339   0.253   1.333   2.907 -0.1738  0.0140 -0.5171
 6283TIP3    H140340   0.268   1.359   2.997 -1.0615  1.7957 -0.8544
 6283TIP3    H240341   0.217   1.245   2.913  0.0927 -0.0147  0.8377
 6284TIP3   OH240342   4.354   5.499  16.108  0.0601  0.0272 -0.3802
 6284TIP3    H140343   4.278   5.520  16.053  0.8275 -1.0766 -1.9125
 6284TIP3    H240344   4.340   5.549  16.189 -1.9870  0.3075 -0.8719
 6285TIP3   OH240345   4.137   6.819  14.308  0.0382 -0.2555 -0.1368
 6285TIP3    H140346   4.211   6.813  14.368 -0.0887  1.2537  0.1838
 6285TIP3    H240347   4.173   6.862  14.231  0.5088 -3.2312 -1.6833
 6286TIP3   OH240348   3.496   2.174  12.195 -0.2036  0.3863  0.0982
 6286TIP3    H140349   3.524   2.152  12.106  0.2766  1.0011  0.0967
 6286TIP3    H240350   3.466   2.265  12.190 -1.1734  0.0825  0.3356
 6287TIP3   OH240351   2.536   0.553   6.031  0.0984  0.5017 -0.5048
 6287TIP3    H140352   2.612   0.610   6.022  0.9339 -0.5910 -0.5614
 6287TIP3    H240353   2.488   0.563   5.950 -0.5879  2.2869  0.1118
 6288TIP3   OH240354   0.555   3.792   0.526 -0.1645 -0.0673  0.5869
 6288TIP3    H140355   0.538   3.698   0.515  1.7117 -0.4157  0.3469
 6288TIP3    H240356   0.630   3.809   0.469 -0.6964  1.6593  0.3804
 6289TIP3   OH240357   0.137   0.349   1.750 -0.2739 -0.5599  0.7127
 6289TIP3    H140358   0.229   0.374   1.748 -0.3853 -0.0950  1.3331
 6289TIP3    H240359   0.105   0.368   1.662  0.2346 -0.7700  0.4834
 6290TIP3   OH240360   5.273   0.145   6.349  0.8145 -0.5665 -0.2966
 6290TIP3    H140361   5.292   0.196   6.270  0.5795 -0.4263 -0.2624
 6290TIP3    H240362   5.211   0.198   6.398  1.0531 -0.5994  0.0434
 6291TIP3   OH240363   4.279   6.742   4.634 -0.3157 -0.2001 -0.2986
 6291TIP3    H140364   4.189   6.710   4.622 -0.1584 -0.0691 -1.9755
 6291TIP3    H240365   4.324   6.670   4.678 -1.3535 -0.0857  0.9649
 6292TIP3   OH240366   4.513   2.130   2.660 -0.0345  0.4865 -0.7740
 6292TIP3    H140367   4.501   2.080   2.741  2.2593  0.8883 -0.1271
 6292TIP3    H240368   4.597   2.100   2.626 -0.2320  1.4667 -2.1738
 6293TIP3   OH240369   6.525   5.260  11.781  0.2578  0.0632  0.1366
 6293TIP3    H140370   6.515   5.349  11.814  0.8476  0.2197 -0.0988
 6293TIP3    H240371   6.453   5.211  11.821 -1.1981  1.0658 -1.2545
 6294TIP3   OH240372   2.867   0.422  14.861 -0.1437 -0.1732  0.6788
 6294TIP3    H140373   2.860   0.515  14.840  2.7915  0.0527  0.5093
 6294TIP3    H240374   2.862   0.378  14.776  0.0009 -0.0736  0.6184
 6295TIP3   OH240375   2.209   1.517  14.269  0.5056 -0.0890 -0.4310
 6295TIP3    H140376   2.234   1.529  14.177 -0.1662  0.5534 -0.5345
 6295TIP3    H240377   2.121   1.554  14.275  0.2065 -0.9047  0.2831
 6296TIP3   OH240378   2.408   4.252   4.178 -0.4507 -0.0197  0.6479
 6296TIP3    H140379   2.415   4.210   4.092 -0.5568  1.5139 -0.1311
 6296TIP3    H240380   2.315   4.270   4.188 -0.3325  0.5612  0.7091
 6297TIP3   OH240381   1.650   4.733  16.624 -0.9501  0.6123 -0.3608
 6297TIP3    H140382   1.558   4.750  16.603 -1.0892  1.4715  0.9210
 6297TIP3    H240383   1.650   4.643  16.658 -1.8992  1.8075  2.9920
 6298TIP3   OH240384   6.084   5.458   3.426  0.5286  0.5202 -0.2368
 6298TIP3    H140385   6.041   5.395   3.483  2.1428 -0.1962  0.2423
 6298TIP3    H240386   6.116   5.526   3.485  1.5296  0.1756 -0.3725
 6299TIP3   OH240387   0.763   6.263  11.533 -0.0327  0.2441  0.4814
 6299TIP3    H140388   0.790   6.331  11.472  2.7013 -0.1844  1.1362
 6299TIP3    H240389   0.668   6.256  11.521  0.1177  1.7981 -1.9896
 6300TIP3   OH240390   2.037   0.489  17.119 -0.7477 -0.7339  0.2097
 6300TIP3    H140391   2.037   0.585  17.125  0.4871 -0.7531  0.8257
 6300TIP3    H240392   1.950   0.466  17.086  0.1046  0.8110 -3.3522
 6301TIP3   OH240393   1.393   3.379  12.087  0.5977 -0.1667  0.0379
 6301TIP3    H140394   1.328   3.328  12.136  1.5654 -1.6324 -0.1732
 6301TIP3    H240395   1.358   3.468  12.087 -0.9782 -0.7581  0.6861
 6302TIP3   OH240396   0.861   3.325   6.299  0.1439 -0.4119  0.4633
 6302TIP3    H140397   0.909   3.242   6.308  1.1910  0.3765  2.4149
 6302TIP3    H240398   0.928   3.392   6.310 -1.1071  0.6962  1.4573
 6303TIP3   OH240399   5.083   3.453  13.367 -0.3629 -0.2663  0.2268
 6303TIP3    H140400   5.125   3.469  13.283 -0.7200 -0.6038 -0.0151
 6303TIP3    H240401   5.037   3.534  13.387 -0.5666 -0.3143 -0.0655
 6304TIP3   OH240402   4.743   2.272  13.814 -0.2234  0.2841 -0.0096
 6304TIP3    H140403   4.788   2.199  13.773  0.5318  0.6262  0.2039
 6304TIP3    H240404   4.732   2.337  13.744 -1.2304 -0.1803 -0.2922
 6305TIP3   OH240405   4.544   4.519   6.140  0.0904 -0.0344 -0.0157
 6305TIP3    H140406   4.485   4.588   6.170  1.1368  1.2291 -0.7963
 6305TIP3    H240407   4.578   4.479   6.221 -0.3746  0.4987  0.4436
 6306TIP3   OH240408   2.293   4.612  11.733  0.1172 -0.2633 -0.2064
 6306TIP3    H140409   2.312   4.704  11.720  0.8258 -0.2388  0.9216
 6306TIP3    H240410   2.199   4.609  11.750  0.0356  0.2092 -0.5716
 6307TIP3   OH240411   0.501   4.289  15.549 -1.0485 -0.3209 -0.1227
 6307TIP3    H140412   0.504   4.384  15.540  0.0144 -0.2278  1.0875
 6307TIP3    H240413   0.415   4.271  15.587 -0.9389  0.2128  0.3759
 6308TIP3   OH240414   4.046   4.838  10.800  0.5521 -0.6773  0.0634
 6308TIP3    H140415   4.089   4.766  10.846 -2.9604 -3.0512 -0.2487
 6308TIP3    H240416   3.987   4.876  10.865 -0.2654 -0.3831 -0.8522
 6309TIP3   OH240417   6.755   0.689  12.451 -0.2009 -0.0518 -0.3310
 6309TIP3    H140418   6.736   0.690  12.545 -0.7743 -0.1205 -0.4431
 6309TIP3    H240419   6.806   0.769  12.436 -1.3089  0.6920 -0.1975
 6310TIP3   OH240420   6.323   4.539  16.618  0.3589 -0.1610 -0.4578
 6310TIP3    H140421   6.286   4.540  16.707  0.3480 -1.8598 -0.4119
 6310TIP3    H240422   6.247   4.533  16.560  0.4083 -0.3362 -0.5102
 6311TIP3   OH240423   0.669   2.986   0.421  0.9855  0.3358 -0.1969
 6311TIP3    H140424   0.745   3.010   0.474  0.4791  1.5451  0.0008
 6311TIP3    H240425   0.601   2.962   0.484  0.5625  1.2218 -0.3105
 6312TIP3   OH240426   2.220   3.497  16.781 -0.2885  0.9898 -0.5216
 6312TIP3    H140427   2.315   3.494  16.794 -0.5202 -0.3336  1.1070
 6312TIP3    H240428   2.203   3.430  16.715 -0.0477  1.5237 -1.1289
 6313TIP3   OH240429   4.057   3.887  14.009 -0.5804  0.1824  0.9160
 6313TIP3    H140430   4.013   3.861  14.090 -1.6390  0.0327  0.3123
 6313TIP3    H240431   3.987   3.924  13.956  0.2242  0.8547  0.3148
 6314TIP3   OH240432   1.371   2.643   4.330  0.2189 -0.1512  0.6408
 6314TIP3    H140433   1.416   2.564   4.299  1.6167  0.1026  1.9648
 6314TIP3    H240434   1.320   2.613   4.405  1.7631  0.4360  1.9467
 6315TIP3   OH240435   0.092   5.263  10.850  0.6242 -0.3117 -0.4721
 6315TIP3    H140436   0.140   5.345  10.839 -0.8282  0.5634 -0.3712
 6315TIP3    H240437   0.093   5.223  10.763  0.2913  0.3907 -0.7979
 6316TIP3   OH240438   3.229   1.313   4.847  0.4084 -0.8459  0.3555
 6316TIP3    H140439   3.262   1.395   4.810  0.4208 -1.2993 -0.6585
 6316TIP3    H240440   3.136   1.329   4.861  0.8441  0.1198  2.3404
 6317TIP3   OH240441   3.277   5.917  14.878  0.6327 -0.4554 -0.4564
 6317TIP3    H140442   3.324   5.834  14.875  0.3738 -0.6559  0.7681
 6317TIP3    H240443   3.243   5.929  14.789 -1.5666 -2.9482  0.0003
 6318TIP3   OH240444   5.311   6.406  11.064  0.3557 -0.0462  0.6979
 6318TIP3    H140445   5.312   6.336  11.130 -1.8286 -0.6912  0.0932
 6318TIP3    H240446   5.324   6.486  11.114  1.2155 -0.7428  1.6147
 6319TIP3   OH240447   3.855   4.552  11.221 -0.9158  0.0398  0.5786
 6319TIP3    H140448   3.779   4.583  11.269 -2.0226 -0.4201 -0.8575
 6319TIP3    H240449   3.843   4.584  11.132  0.3193 -0.4501  0.2193
 6320TIP3   OH240450   2.409   3.240  13.552  1.0128 -0.1023 -0.0745
 6320TIP3    H140451   2.409   3.246  13.456  0.9021 -0.6492 -0.1088
 6320TIP3    H240452   2.325   3.198  13.573  1.2493 -0.4205  0.2349
 6321TIP3   OH240453   6.523   0.965   3.984 -0.3267 -0.1109  0.4693
 6321TIP3    H140454   6.428   0.979   3.983 -0.4712 -1.0967 -1.2406
 6321TIP3    H240455   6.537   0.909   4.061 -1.5960 -2.8128 -1.1711
 6322TIP3   OH240456   1.536   1.847   5.402  0.5136  0.4693  0.5476
 6322TIP3    H140457   1.533   1.932   5.445 -0.1137  0.5631  0.3260
 6322TIP3    H240458   1.444   1.826   5.385  0.6592 -0.2868  0.6791
 6323TIP3   OH240459   5.879   3.785   0.154  0.2487  0.4521 -0.6145
 6323TIP3    H140460   5.877   3.870   0.110  0.4763 -0.2074 -1.9183
 6323TIP3    H240461   5.968   3.777   0.188 -0.1506  1.3023  0.6520
 6324TIP3   OH240462   3.467   0.071  16.228 -0.3199 -0.0711 -0.5443
 6324TIP3    H140463   3.414   0.059  16.150  0.2844 -1.8947 -0.6957
 6324TIP3    H240464   3.557   0.064  16.197 -0.0657 -0.2704  0.2243
 6325TIP3   OH240465   3.026   2.289   5.105  0.2331  0.2366 -0.5123
 6325TIP3    H140466   3.057   2.235   5.178  0.0385  0.3658 -0.3329
 6325TIP3    H240467   3.085   2.364   5.104 -1.0417  1.2965  0.8526
 6326TIP3   OH240468   1.973   3.455   3.706  0.2850 -0.5971 -0.0661
 6326TIP3    H140469   1.921   3.449   3.626  1.1968  0.7812 -0.7679
 6326TIP3    H240470   2.003   3.545   3.709  1.4157 -0.9975  1.1196
 6327TIP3   OH240471   3.863   2.437  12.497 -0.7002 -0.2499 -0.3786
 6327TIP3    H140472   3.889   2.406  12.410 -1.1965 -0.8946 -0.2977
 6327TIP3    H240473   3.937   2.491  12.526 -0.2806 -0.5106 -0.9549
 6328TIP3   OH240474   5.689   5.452  17.042 -0.6587 -0.2930 -0.2614
 6328TIP3    H140475   5.699   5.507  16.965  0.6558  0.3626  0.3618
 6328TIP3    H240476   5.674   5.364  17.007 -4.6729  0.7137 -1.2871
 6329TIP3   OH240477   3.764   4.278  11.214  0.0440 -0.1670  0.1922
 6329TIP3    H140478   3.831   4.345  11.220 -0.1911 -0.0121  1.1872
 6329TIP3    H240479   3.683   4.327  11.195  0.4026 -0.4596 -2.2880
 6330TIP3   OH240480   6.480   5.037   5.035 -0.2573  0.0711  0.3438
 6330TIP3    H140481   6.426   5.017   5.111  0.8878  0.6122  1.2985
 6330TIP3    H240482   6.527   4.955   5.018 -2.0198 -0.7063 -1.0646
 6331TIP3   OH240483   0.528   4.960  11.326 -0.1357 -0.0722 -0.2291
 6331TIP3    H140484   0.507   4.976  11.418  0.3287  0.5167 -0.2143
 6331TIP3    H240485   0.444   4.946  11.283 -0.3286 -0.6351  0.3414
 6332TIP3   OH240486   0.716   0.862   1.506 -0.3031 -0.0746  0.1946
 6332TIP3    H140487   0.698   0.941   1.455  1.0642  0.4875  0.5591
 6332TIP3    H240488   0.631   0.833   1.536 -1.1231 -0.2152 -2.1244
 6333TIP3   OH240489   0.663   6.773   1.239  0.0542 -0.1271 -0.2511
 6333TIP3    H140490   0.665   6.700   1.177 -1.9998 -2.8477  2.7780
 6333TIP3    H240491   0.584   6.821   1.216  0.2199 -0.1141 -0.8130
 6334TIP3   OH240492   5.784   4.845   3.590 -0.7146  0.0176 -0.2537
 6334TIP3    H140493   5.735   4.846   3.507  0.3641 -3.5112 -1.0308
 6334TIP3    H240494   5.874   4.830   3.563 -0.0480  0.8642  1.4928
 6335TIP3   OH240495   1.505   0.666  12.962 -0.5809 -0.3922 -0.1714
 6335TIP3    H140496   1.474   0.756  12.948 -1.1456 -0.2894  1.5642
 6335TIP3    H240497   1.509   0.628  12.874 -0.5575  1.2547 -0.9076
 6336TIP3   OH240498   4.270   2.006  12.135 -0.2533  0.5310  0.2185
 6336TIP3    H140499   4.258   2.018  12.229 -0.0268  1.0715  0.1816
 6336TIP3    H240500   4.365   2.004  12.124 -0.2763 -1.7131  0.2631
 6337TIP3   OH240501   2.006   2.196  11.413 -0.5191 -0.3722 -0.4035
 6337TIP3    H140502   2.070   2.174  11.481 -0.9134  0.6497  0.3173
 6337TIP3    H240503   2.002   2.118  11.358  1.7111 -0.2788 -0.7424
 6338TIP3   OH240504   3.457   1.270  12.765  0.2497 -0.1153 -0.0632
 6338TIP3    H140505   3.398   1.195  12.753  0.5803 -0.2358 -0.9575
 6338TIP3    H240506   3.541   1.231  12.790  0.8464 -0.1441 -2.0687
 6339TIP3   OH240507   3.169   2.057   4.268  0.0577  0.1350 -0.5722
 6339TIP3    H140508   3.111   2.133   4.270 -0.0565  0.0535 -0.7794
 6339TIP3    H240509   3.116   1.988   4.229 -0.0934 -0.2646  0.3294
 6340TIP3   OH240510   1.707   2.139  15.825  0.0442 -0.2174 -0.2383
 6340TIP3    H140511   1.637   2.083  15.791 -0.8273  1.1577 -0.7660
 6340TIP3    H240512   1.689   2.144  15.919 -1.0410  0.7538 -0.4855
 6341TIP3   OH240513   4.226   3.555  16.997  0.2171 -0.1742 -0.1520
 6341TIP3    H140514   4.201   3.500  16.923 -1.1265  0.1913  0.0004
 6341TIP3    H240515   4.142   3.588  17.031  0.8425  0.0149  1.2447
 6342TIP3   OH240516   4.148   1.453  13.488  0.0599  0.3770  0.0284
 6342TIP3    H140517   4.200   1.485  13.562  0.7256 -1.1997  0.2644
 6342TIP3    H240518   4.102   1.376  13.523  1.8051 -1.4920 -1.6886
 6343TIP3   OH240519   1.769   3.376   5.491 -0.1884 -0.2891 -0.1720
 6343TIP3    H140520   1.709   3.403   5.422 -1.3178 -0.8542  0.5739
 6343TIP3    H240521   1.854   3.410   5.463 -0.9087  0.8334 -1.0649
 6344TIP3   OH240522   2.722   4.263   5.020  0.0307 -0.2410 -1.0662
 6344TIP3    H140523   2.746   4.356   5.032 -0.6600 -0.2808  0.7504
 6344TIP3    H240524   2.703   4.232   5.109  0.4485 -2.1868 -1.6396
 6345TIP3   OH240525   5.900   6.494   1.430 -0.1712  0.6246  0.1103
 6345TIP3    H140526   5.806   6.504   1.414  0.1738 -0.3027 -2.8157
 6345TIP3    H240527   5.913   6.400   1.435  0.8071  0.6878 -1.0343
 6346TIP3   OH240528   2.439   6.603  12.858  0.0676  0.5164 -0.1469
 6346TIP3    H140529   2.430   6.697  12.874 -0.8685  0.5867 -0.9850
 6346TIP3    H240530   2.356   6.578  12.817 -0.3722 -1.0236  1.6076
 6347TIP3   OH240531   1.217   4.399   5.003  0.0841 -0.1341 -0.1427
 6347TIP3    H140532   1.193   4.462   5.071  1.7069 -0.7641  1.0456
 6347TIP3    H240533   1.157   4.326   5.015  0.0266 -0.0152  0.2825
 6348TIP3   OH240534   6.244   0.048  11.403 -0.2613 -0.1545 -0.0505
 6348TIP3    H140535   6.215   0.097  11.480  1.9647 -0.4423  1.0076
 6348TIP3    H240536   6.283  -0.032  11.438  1.9093  0.2764 -1.3538
 6349TIP3   OH240537   4.415   5.028  15.068 -0.1296  0.3457 -0.4086
 6349TIP3    H140538   4.473   5.022  15.144 -2.5125 -0.4297  1.4213
 6349TIP3    H240539   4.385   5.119  15.069 -0.8429  0.1041  0.0981
 6350TIP3   OH240540   3.498   1.861  14.449  1.0766  0.2248  0.0066
 6350TIP3    H140541   3.494   1.810  14.529 -0.1585 -1.9053 -1.3537
 6350TIP3    H240542   3.407   1.863  14.418  1.3227  2.1470 -0.6475
 6351TIP3   OH240543   4.399   1.948  16.399 -0.1369 -0.2256  0.5278
 6351TIP3    H140544   4.407   1.978  16.489 -0.0461 -0.6017  0.6439
 6351TIP3    H240545   4.433   1.859  16.399  0.9013  0.1517 -0.1009
 6352TIP3   OH240546   1.872   5.558   3.017 -0.0209 -0.0896  0.4094
 6352TIP3    H140547   1.957   5.521   2.996  0.5996  1.8716 -0.7087
 6352TIP3    H240548   1.809   5.496   2.982  0.9720 -0.7712 -0.1748
 6353TIP3   OH240549   5.706   6.091  12.516 -0.1096 -0.1298 -0.1901
 6353TIP3    H140550   5.626   6.085  12.567 -0.2674 -0.8666 -0.5203
 6353TIP3    H240551   5.678   6.075  12.426  0.0154  2.0199 -0.6487
 6354TIP3   OH240552   3.624   6.190  14.006  0.3960 -0.0394  0.0083
 6354TIP3    H140553   3.655   6.198  13.916 -0.3426 -1.6465 -0.4075
 6354TIP3    H240554   3.531   6.171  13.998  0.9198 -3.3896  0.9767
 6355TIP3   OH240555   6.496   2.301   4.278  0.2030 -0.6577 -0.2407
 6355TIP3    H140556   6.406   2.304   4.246  0.7032  0.6689 -1.6071
 6355TIP3    H240557   6.488   2.280   4.371 -1.7203  2.7994  0.4570
 6356TIP3   OH240558   1.346   5.887   2.742  0.1091  0.5651 -0.5282
 6356TIP3    H140559   1.382   5.808   2.782  0.5457 -0.3522 -2.6535
 6356TIP3    H240560   1.418   5.950   2.744  0.8853 -0.2523 -1.9813
 6357TIP3   OH240561   3.116   3.664   4.495 -0.0281 -0.3974 -0.5452
 6357TIP3    H140562   3.125   3.740   4.552 -0.9065 -1.0332  0.4491
 6357TIP3    H240563   3.025   3.668   4.464  0.0816 -0.7516 -0.9193
 6358TIP3   OH240564   6.673   6.585   2.774  0.0449 -0.4007  0.4037
 6358TIP3    H140565   6.708   6.606   2.687  0.4160  0.4544  0.7457
 6358TIP3    H240566   6.641   6.496   2.767 -0.0586 -0.2808 -0.6587
 6359TIP3   OH240567   5.048   6.515  15.637 -0.0908 -0.1244  0.0136
 6359TIP3    H140568   4.958   6.545  15.651 -0.0851 -0.0360 -0.1335
 6359TIP3    H240569   5.042   6.459  15.559  0.2348  1.0530 -0.8592
 6360TIP3   OH240570   2.594   5.531  14.290  0.0712  0.6255  0.3236
 6360TIP3    H140571   2.551   5.446  14.280  1.8518 -0.2821  0.2628
 6360TIP3    H240572   2.630   5.550  14.203 -0.1851  1.3635  0.3805
 6361TIP3   OH240573   2.987   1.231   2.523 -0.3117 -0.3444 -0.0266
 6361TIP3    H140574   3.007   1.290   2.595 -0.0278  0.7739 -1.0041
 6361TIP3    H240575   3.052   1.160   2.531 -0.6410 -0.5256  1.1309
 6362TIP3   OH240576   6.631   6.308  12.919 -0.1879  0.3649 -0.3285
 6362TIP3    H140577   6.698   6.365  12.958  0.8399 -2.0816  1.6809
 6362TIP3    H240578   6.629   6.231  12.977 -1.9530 -1.3645 -2.5953
 6363TIP3   OH240579   4.133   6.472  13.813 -0.4716 -0.0233 -0.5909
 6363TIP3    H140580   4.166   6.384  13.797 -0.1370 -0.0604  0.2752
 6363TIP3    H240581   4.058   6.460  13.870  0.2944  0.3274  0.5162
 6364TIP3   OH240582   5.199   6.732  14.894 -0.1800 -0.3323  0.4396
 6364TIP3    H140583   5.259   6.722  14.969  1.1284  0.7270 -0.4567
 6364TIP3    H240584   5.125   6.781  14.930  0.9267  1.1079  0.7992
 6365TIP3   OH240585   2.727   1.944   2.179 -0.3829 -0.4320 -0.4905
 6365TIP3    H140586   2.733   1.855   2.143 -1.2625 -0.2384 -1.0998
 6365TIP3    H240587   2.688   1.996   2.110  0.9511  0.6379 -0.4642
 6366TIP3   OH240588   6.636   4.610   5.280  0.0526  0.1571 -0.0579
 6366TIP3    H140589   6.687   4.691   5.275 -0.5076  0.5559  0.6834
 6366TIP3    H240590   6.691   4.550   5.329 -0.2698  0.6505  0.9148
 6367TIP3   OH240591   0.123   4.050   3.146 -0.5040 -0.6015  0.2331
 6367TIP3    H140592   0.213   4.075   3.122  0.3739 -3.8201 -0.0403
 6367TIP3    H240593   0.070   4.078   3.072  0.4963  0.0079 -0.2631
 6368TIP3   OH240594   2.253   3.358   5.138  0.3133  0.3579  0.7015
 6368TIP3    H140595   2.251   3.320   5.050  1.7628  0.0234  0.7880
 6368TIP3    H240596   2.170   3.332   5.178 -0.4163  0.6245 -0.6070
 6369TIP3   OH240597   5.910   0.014  11.585 -0.2340  0.0822  0.3675
 6369TIP3    H140598   5.853   0.090  11.590 -1.5722 -0.9553  1.4491
 6369TIP3    H240599   5.994   0.044  11.619 -0.2729  1.4972 -0.7696
 6370TIP3   OH240600   2.322   2.074   5.118  0.0235  0.1873  0.5048
 6370TIP3    H140601   2.329   2.169   5.107 -0.6134  0.2847  0.9468
 6370TIP3    H240602   2.385   2.054   5.187 -1.5504  0.6236  2.1176
 6371TIP3   OH240603   2.271   2.968  15.823 -0.4582 -0.1477 -0.3611
 6371TIP3    H140604   2.307   3.054  15.803 -1.9208  1.0867  2.2274
 6371TIP3    H240605   2.342   2.907  15.802  2.0733  2.0022  1.7133
 6372TIP3   OH240606   2.107   3.136  12.026  0.1203 -0.1589 -0.4002
 6372TIP3    H140607   2.168   3.079  12.072 -0.3602  0.4266  0.9866
 6372TIP3    H240608   2.134   3.225  12.050 -0.3599  0.1435 -0.9561
 6373TIP3   OH240609   3.866   5.763   3.633  0.3641  0.1076 -0.3774
 6373TIP3    H140610   3.849   5.854   3.606 -1.9101  0.2269  1.2758
 6373TIP3    H240611   3.959   5.761   3.654  0.9177  1.4787 -2.5509
 6374TIP3   OH240612   2.654   5.015   2.391 -0.6774  0.4021  0.4633
 6374TIP3    H140613   2.567   5.008   2.352 -0.7645  0.4839  0.6428
 6374TIP3    H240614   2.712   5.032   2.317 -0.5234 -1.7180  0.0641
 6375TIP3   OH240615   3.563   3.062   2.414  0.4184 -0.2587  0.1160
 6375TIP3    H140616   3.639   3.046   2.359  1.2533  0.0481  1.1526
 6375TIP3    H240617   3.599   3.076   2.502 -0.7355  0.9123  0.4369
 6376TIP3   OH240618   5.251   6.048  16.356 -0.3783 -0.1143 -0.2982
 6376TIP3    H140619   5.244   6.132  16.403 -2.5892 -0.3555 -0.1580
 6376TIP3    H240620   5.231   6.069  16.265  4.8929  0.5374 -1.4881
 6377TIP3   OH240621   2.603   5.567  13.580 -0.0293  0.7094 -0.1763
 6377TIP3    H140622   2.658   5.626  13.631  0.7870 -2.6108  2.9523
 6377TIP3    H240623   2.665   5.517  13.527 -0.7913  3.2369 -3.6867
 6378TIP3   OH240624   2.090   0.837  15.993 -0.5212  0.3056 -1.0209
 6378TIP3    H140625   2.068   0.763  15.936  0.4878  0.6200 -1.8387
 6378TIP3    H240626   2.012   0.892  15.991 -0.0166  0.9877 -3.1971
 6379TIP3   OH240627   6.695   0.480  14.082 -0.1133 -0.3694  0.5479
 6379TIP3    H140628   6.616   0.528  14.056  0.6681  0.3796 -0.4388
 6379TIP3    H240629   6.764   0.546  14.084  0.6175 -1.1372  0.8520
 6380TIP3   OH240630   1.551   3.302   1.016  0.4323 -0.7366  0.9815
 6380TIP3    H140631   1.576   3.342   1.099 -0.1670  0.5893  0.5368
 6380TIP3    H240632   1.570   3.209   1.027  2.3969 -0.2516  1.8286
 6381TIP3   OH240633   0.651   5.118  12.737 -0.2563 -0.1755  0.3991
 6381TIP3    H140634   0.629   5.205  12.771 -0.1599 -0.7509  1.9747
 6381TIP3    H240635   0.747   5.120  12.728 -0.2738 -0.0559  0.2248
 6382TIP3   OH240636   0.610   1.700  14.833  0.4961 -0.1587 -0.2421
 6382TIP3    H140637   0.688   1.645  14.828  0.5626 -0.2967  1.8722
 6382TIP3    H240638   0.541   1.641  14.863  0.5110  0.8219  1.8216
 6383TIP3   OH240639   4.457   0.752   2.068  0.9589  0.2937 -0.1469
 6383TIP3    H140640   4.446   0.816   2.139 -1.5013  0.4209 -0.6026
 6383TIP3    H240641   4.382   0.767   2.011 -0.6095 -4.1085  0.6083
 6384TIP3   OH240642   0.287   1.242  15.055 -0.3681  0.3303  0.0085
 6384TIP3    H140643   0.334   1.272  15.133  0.2691 -0.7734  0.0581
 6384TIP3    H240644   0.206   1.294  15.054 -0.1012  0.7790  1.0660
 6385TIP3   OH240645   2.934   5.298  13.613  0.4406 -0.4581  0.3618
 6385TIP3    H140646   2.872   5.332  13.548  0.1271  0.4209  1.1063
 6385TIP3    H240647   3.019   5.329  13.584  0.0728  1.6188  1.4349
 6386TIP3   OH240648   2.491   3.895   1.732  0.5308 -0.2977 -0.3701
 6386TIP3    H140649   2.583   3.901   1.706  0.6196  0.2588  0.0681
 6386TIP3    H240650   2.459   3.985   1.730  0.6364 -0.1738  1.7848
 6387TIP3   OH240651   3.120   3.750   0.852 -0.3769  0.2305  0.6606
 6387TIP3    H140652   3.174   3.776   0.927 -1.6175  1.4497  1.1494
 6387TIP3    H240653   3.035   3.727   0.891 -0.2533 -1.6185 -0.0993
 6388TIP3   OH240654   0.597   2.161   3.834  0.6330  0.1297  0.0685
 6388TIP3    H140655   0.662   2.183   3.768 -0.2374 -0.7661 -1.1013
 6388TIP3    H240656   0.637   2.090   3.885  0.5310 -0.5105 -0.7347
 6389TIP3   OH240657   6.234   5.535   4.337  0.1428 -0.0832  0.4923
 6389TIP3    H140658   6.286   5.485   4.275  0.8144 -1.5503  2.1708
 6389TIP3    H240659   6.147   5.496   4.333  0.3040 -0.4805  0.7742
 6390TIP3   OH240660   0.157   1.514   2.043 -0.1346  0.6339  0.2522
 6390TIP3    H140661   0.131   1.427   2.015  0.3180  0.7461 -0.5533
 6390TIP3    H240662   0.135   1.518   2.136  0.0305 -0.4028  0.3378
 6391TIP3   OH240663   4.189   4.410  15.954 -0.7513 -0.4401  0.3680
 6391TIP3    H140664   4.198   4.339  16.017  0.8008 -0.7396 -0.1714
 6391TIP3    H240665   4.171   4.487  16.008  0.8840 -0.6370  1.2451
 6392TIP3   OH240666   6.034   1.149  14.920 -0.2888  0.5449  0.0786
 6392TIP3    H140667   5.997   1.065  14.892 -1.5670  0.5628  1.6778
 6392TIP3    H240668   6.128   1.138  14.908 -0.4791 -0.9540 -0.1673
 6393TIP3   OH240669   5.830   3.258  13.582  0.4671  0.6227 -0.5675
 6393TIP3    H140670   5.900   3.194  13.594  0.7478  0.8433 -0.9980
 6393TIP3    H240671   5.751   3.212  13.608  0.6689  0.1007 -0.8758
 6394TIP3   OH240672   1.502   3.352   5.762 -0.1596 -1.0834  0.1566
 6394TIP3    H140673   1.487   3.446   5.758 -0.0181 -1.0592  0.2025
 6394TIP3    H240674   1.596   3.343   5.778 -0.2633 -1.2241  0.6888
 6395TIP3   OH240675   4.117   3.856  15.755 -0.0876 -0.0799  0.1320
 6395TIP3    H140676   4.198   3.885  15.715 -0.2783  0.1116 -0.1198
 6395TIP3    H240677   4.109   3.764  15.729 -0.3583  0.1234 -0.5199
 6396TIP3   OH240678   4.801   3.028  15.907 -0.1451 -0.3806  0.6688
 6396TIP3    H140679   4.795   2.998  15.816 -2.5706  0.5074  0.5070
 6396TIP3    H240680   4.745   2.968  15.956  0.0165  0.0263  1.3593
 6397TIP3   OH240681   4.859   0.920  15.922 -0.6530  0.6743 -0.2503
 6397TIP3    H140682   4.894   0.940  15.835  0.5833  1.1172  0.3410
 6397TIP3    H240683   4.932   0.879  15.968 -1.8739 -1.3507 -0.0305
 6398TIP3   OH240684   2.730   1.610  12.339 -0.3419  0.1444 -0.2626
 6398TIP3    H140685   2.681   1.573  12.266  1.5839  0.9927 -2.0516
 6398TIP3    H240686   2.819   1.574  12.330 -0.2811 -0.4861  2.2341
 6399TIP3   OH240687   3.032   3.426  16.387  0.0561 -0.1856 -0.3288
 6399TIP3    H140688   2.988   3.366  16.327 -1.1135  1.3940 -1.1070
 6399TIP3    H240689   3.007   3.396  16.474 -0.3124 -0.9823 -0.7098
 6400TIP3   OH240690   2.007   0.521   2.962  0.0990  0.4166  1.0375
 6400TIP3    H140691   1.955   0.593   2.928  0.8130 -0.3396 -1.8361
 6400TIP3    H240692   1.943   0.457   2.992 -0.6068  0.8316  0.4410
 6401TIP3   OH240693   3.628   3.017  14.418  0.0979  0.0566 -0.0289
 6401TIP3    H140694   3.534   3.013  14.438  0.0914  0.4119  0.0035
 6401TIP3    H240695   3.637   3.093  14.361  0.5052  0.5907  0.7352
 6402TIP3   OH240696   2.121   0.897  16.438  0.4597 -0.1178  0.2565
 6402TIP3    H140697   2.077   0.944  16.366  1.3494  1.8711  0.9783
 6402TIP3    H240698   2.148   0.814  16.399 -0.0941  0.4526 -1.3939
 6403TIP3   OH240699   1.922   1.481   6.655 -0.8630  0.1045 -0.3289
 6403TIP3    H140700   1.904   1.402   6.706 -2.3234  0.6339 -0.0157
 6403TIP3    H240701   2.005   1.513   6.690 -1.1170 -0.3411  0.7176
 6404TIP3   OH240702   5.650   2.576   1.827 -0.0753  0.3147  0.4068
 6404TIP3    H140703   5.681   2.666   1.836 -1.2052  0.5411  2.3726
 6404TIP3    H240704   5.714   2.534   1.770  1.8107  1.7288  1.4077
 6405TIP3   OH240705   1.920   1.175  12.644  0.2562 -0.2070  0.0271
 6405TIP3    H140706   1.949   1.265  12.657  0.1678  0.0029 -1.1155
 6405TIP3    H240707   1.958   1.126  12.716  0.0485  0.8062  0.8334
 6406TIP3   OH240708   5.774   1.636  11.848  0.8162  0.1268  0.0756
 6406TIP3    H140709   5.855   1.687  11.846  0.9109 -0.0724 -1.4990
 6406TIP3    H240710   5.803   1.545  11.845  0.5669  0.0314  0.5104
 6407TIP3   OH240711   0.949   6.664   4.763 -0.0103 -0.2781 -0.5672
 6407TIP3    H140712   0.892   6.643   4.837 -0.9269  0.2493 -1.1120
 6407TIP3    H240713   1.031   6.692   4.804 -0.4534 -0.1400  0.2469
 6408TIP3   OH240714   2.009   6.228  11.370 -0.0714  0.5787  0.1718
 6408TIP3    H140715   2.071   6.293  11.337  1.5137 -1.2822 -0.6139
 6408TIP3    H240716   1.987   6.175  11.293  0.1820 -1.0271  1.1774
 6409TIP3   OH240717   5.402   0.589  10.841  0.0089 -0.6404  0.2259
 6409TIP3    H140718   5.415   0.519  10.905  1.5174 -1.5084 -0.9870
 6409TIP3    H240719   5.311   0.580  10.812  0.1561 -2.0145  0.1794
 6410TIP3   OH240720   2.378   3.265   3.108  0.6181 -0.5335 -0.0062
 6410TIP3    H140721   2.402   3.173   3.100  0.6860 -0.5767  0.6573
 6410TIP3    H240722   2.405   3.289   3.197  2.4071  0.6494 -0.8401
 6411TIP3   OH240723   3.445   4.242  12.960 -0.4501 -0.9378 -0.8240
 6411TIP3    H140724   3.403   4.249  13.046  1.8558  0.6146  0.2397
 6411TIP3    H240725   3.412   4.318  12.911  1.1723  0.3937  0.0799
 6412TIP3   OH240726   5.720   3.464  12.309  0.1302  0.1964  0.1342
 6412TIP3    H140727   5.800   3.418  12.337 -0.0143  0.8667  1.7093
 6412TIP3    H240728   5.745   3.508  12.228  1.6808  1.2414  1.1413
 6413TIP3   OH240729   3.882   2.950   3.906  0.2039 -0.4900 -0.0800
 6413TIP3    H140730   3.909   3.033   3.947  0.8343 -1.1417  0.8356
 6413TIP3    H240731   3.819   2.913   3.967  1.2128 -1.5080  0.3508
 6414TIP3   OH240732   0.083   1.508  15.258  0.0643  0.7718 -0.1066
 6414TIP3    H140733   0.078   1.513  15.353  0.2341  0.8118 -0.0994
 6414TIP3    H240734   0.066   1.597  15.228  0.1326  0.7846 -0.1081
 6415TIP3   OH240735   1.308   0.144   4.454  0.6057 -0.2429  0.1935
 6415TIP3    H140736   1.335   0.162   4.544 -1.1276  1.9659  0.3055
 6415TIP3    H240737   1.292   0.049   4.453  0.1113 -0.2142  2.3777
 6416TIP3   OH240738   3.709   1.033   3.749 -0.3361  0.5908 -0.0700
 6416TIP3    H140739   3.799   1.065   3.758 -1.5103  4.0642  0.2003
 6416TIP3    H240740   3.663   1.105   3.706 -3.3186 -0.4837  1.2253
 6417TIP3   OH240741   0.675   2.820   4.080  0.1220 -1.1908 -0.4040
 6417TIP3    H140742   0.647   2.732   4.056  0.3543 -1.0779 -1.1139
 6417TIP3    H240743   0.694   2.814   4.174 -0.9781 -1.5953 -0.1961
 6418TIP3   OH240744   4.529   2.519  14.979 -0.1238  0.1150  0.0970
 6418TIP3    H140745   4.544   2.593  14.919  1.5741 -0.7747 -0.6297
 6418TIP3    H240746   4.506   2.446  14.921 -2.3489  0.1930  0.8543
 6419TIP3   OH240747   1.644   5.667  10.405 -0.4574  1.0631  0.1199
 6419TIP3    H140748   1.608   5.708  10.483  1.2229 -1.4249  2.2752
 6419TIP3    H240749   1.578   5.602  10.379  0.5740 -0.6508  1.6692
 6420TIP3   OH240750   3.397   2.283   6.353 -0.0957 -0.2339  0.6047
 6420TIP3    H140751   3.310   2.317   6.373 -0.3918  0.2125 -1.3413
 6420TIP3    H240752   3.399   2.197   6.395 -1.4214 -0.1777  0.8027
 6421TIP3   OH240753   4.700   5.148   2.423  0.1193 -0.1563 -0.3133
 6421TIP3    H140754   4.670   5.239   2.413  1.3399 -0.0580 -3.8620
 6421TIP3    H240755   4.634   5.096   2.377  0.9884 -0.7573 -0.8943
 6422TIP3   OH240756   0.012   5.219  15.208 -0.1175  0.6849  0.0372
 6422TIP3    H140757   0.079   5.196  15.273  0.2239  1.1436 -0.1567
 6422TIP3    H240758   0.057   5.276  15.146 -1.1295  2.4224  0.8630
 6423TIP3   OH240759   4.630   5.186  16.561  0.0668 -0.0370 -0.5939
 6423TIP3    H140760   4.600   5.098  16.540 -0.2432 -0.0307 -0.1839
 6423TIP3    H240761   4.653   5.182  16.654  0.8832  0.0862 -0.7860
 6424TIP3   OH240762   5.662   3.466  11.920  0.1746 -0.4350 -0.3755
 6424TIP3    H140763   5.642   3.477  11.827 -0.0205 -0.9323 -0.3931
 6424TIP3    H240764   5.604   3.528  11.964  1.3717  0.9328 -0.6791
 6425TIP3   OH240765   2.907   5.495   2.022  0.8038 -0.2256 -0.0159
 6425TIP3    H140766   2.851   5.431   2.066  1.2150  0.0461  0.9185
 6425TIP3    H240767   2.882   5.489   1.929 -1.1674  0.3280  0.4622
 6426TIP3   OH240768   3.206   0.460  14.934 -0.5449  0.4040  0.0529
 6426TIP3    H140769   3.201   0.364  14.937 -1.0858  0.3947 -1.0168
 6426TIP3    H240770   3.125   0.489  14.976 -0.9847  0.3830 -0.7813
 6427TIP3   OH240771   4.500   3.731   0.563 -0.3079  0.3102  0.2616
 6427TIP3    H140772   4.464   3.656   0.610 -2.3590  0.7877 -0.5162
 6427TIP3    H240773   4.553   3.776   0.629  0.0153 -1.1665  1.0468
 6428TIP3   OH240774   5.004   1.239   5.070 -0.0012 -0.3490 -0.0200
 6428TIP3    H140775   5.044   1.153   5.055 -0.4984 -0.4034 -1.0625
 6428TIP3    H240776   5.054   1.298   5.014 -0.1741 -0.1011  0.0902
 6429TIP3   OH240777   1.641   3.630   5.709 -0.2541  0.1659  0.3435
 6429TIP3    H140778   1.660   3.648   5.617  0.6756  0.6863  0.6361
 6429TIP3    H240779   1.552   3.664   5.722 -1.2595 -1.8989 -0.9085
 6430TIP3   OH240780   1.980   1.400  16.689 -0.4735  0.5689  0.2326
 6430TIP3    H140781   2.059   1.356  16.721 -0.1314  1.1253  0.1566
 6430TIP3    H240782   1.915   1.384  16.757 -0.7584 -1.2481 -0.4445
 6431TIP3   OH240783   2.550   1.818  12.459  0.1940  0.3888 -0.2923
 6431TIP3    H140784   2.568   1.869  12.537  0.0955 -3.0634  2.0901
 6431TIP3    H240785   2.622   1.755  12.454 -1.8895 -2.0266 -0.6920
 6432TIP3   OH240786   1.353   0.001  12.644  0.0882  0.2966 -0.0153
 6432TIP3    H140787   1.262   0.017  12.617  0.1195 -0.4945 -0.6146
 6432TIP3    H240788   1.404   0.068  12.599 -0.0996  0.2055 -0.3673
 6433TIP3   OH240789   2.754   2.498   4.263  0.2048  0.3465 -0.1755
 6433TIP3    H140790   2.751   2.571   4.326 -1.2549  1.0421 -1.0147
 6433TIP3    H240791   2.828   2.518   4.207  1.1245  0.0572  0.9281
 6434TIP3   OH240792   4.308   2.636  11.206 -0.0480  0.7133  0.1666
 6434TIP3    H140793   4.315   2.703  11.273  1.5650  2.1900 -1.4328
 6434TIP3    H240794   4.398   2.607  11.191 -0.4557 -0.0266 -0.9423
 6435TIP3   OH240795   0.425   4.163   5.195  0.2195  0.4231 -0.0440
 6435TIP3    H140796   0.459   4.246   5.163 -0.2392  1.1903  1.4097
 6435TIP3    H240797   0.351   4.187   5.252 -0.8586 -1.0519 -0.7767
 6436TIP3   OH240798   5.286   5.794   1.927  0.3938 -0.6301  0.0974
 6436TIP3    H140799   5.351   5.857   1.958 -1.1005  1.1064 -0.1867
 6436TIP3    H240800   5.279   5.812   1.833 -1.7841  0.4589  0.4375
 6437TIP3   OH240801   1.234   6.218  12.574  0.9108  0.0594 -0.1969
 6437TIP3    H140802   1.182   6.151  12.530 -0.9571  1.5859 -0.4276
 6437TIP3    H240803   1.223   6.200  12.667 -1.8563  1.5950 -0.1626
 6438TIP3   OH240804   3.331   5.743  16.984 -0.3217  0.3740  0.0113
 6438TIP3    H140805   3.371   5.760  16.899  0.0626  1.7176  0.4580
 6438TIP3    H240806   3.290   5.826  17.009 -2.4300 -0.6421  0.0946
 6439TIP3   OH240807   1.331   6.144   1.095  0.3339  0.0692 -0.5503
 6439TIP3    H140808   1.319   6.050   1.079  0.4898  0.0109 -0.3205
 6439TIP3    H240809   1.308   6.155   1.187 -0.0700  0.3223 -0.6817
 6440TIP3   OH240810   0.081   4.994   1.565 -0.3247  0.0561  1.0501
 6440TIP3    H140811   0.029   4.948   1.499 -1.1681 -0.5055  2.0805
 6440TIP3    H240812   0.091   5.083   1.530  1.3547 -0.8757 -0.9787
 6441TIP3   OH240813   2.182   3.324  16.572 -0.5776 -0.1304  0.3380
 6441TIP3    H140814   2.100   3.355  16.535 -0.0872  1.0042  0.1760
 6441TIP3    H240815   2.208   3.252  16.516 -0.5272  0.7090 -0.7299
 6442TIP3   OH240816   1.999   1.582   1.519  0.8348  0.2740  0.6963
 6442TIP3    H140817   1.941   1.513   1.551 -1.1914  0.6489 -1.9724
 6442TIP3    H240818   1.987   1.654   1.581 -0.9538  0.0305  0.6550
 6443TIP3   OH240819   6.629   5.266  17.163 -0.4629  0.5074  0.1850
 6443TIP3    H140820   6.534   5.266  17.154 -0.4081  1.3092 -0.5303
 6443TIP3    H240821   6.648   5.201  17.230 -1.5610  0.8445  0.8181
 6444TIP3   OH240822   2.265   0.231  10.899 -0.1805 -0.2110  0.5641
 6444TIP3    H140823   2.336   0.280  10.940  1.9054 -1.4599 -1.4207
 6444TIP3    H240824   2.188   0.252  10.951  1.2923  2.5438  1.7322
 6445TIP3   OH240825   1.765   4.321   2.718 -0.1778 -0.1992  0.1902
 6445TIP3    H140826   1.848   4.366   2.703  0.0567 -0.7189 -0.0854
 6445TIP3    H240827   1.790   4.238   2.759 -0.5579 -0.3493  0.1196
 6446TIP3   OH240828   4.294   2.653   3.250  0.2556  0.1883  0.2395
 6446TIP3    H140829   4.254   2.585   3.304 -0.3808  1.0612  0.8694
 6446TIP3    H240830   4.384   2.660   3.283  0.4753 -0.6883 -0.1585
 6447TIP3   OH240831   2.115   2.001  16.239 -0.0411 -0.1063  0.1406
 6447TIP3    H140832   2.094   1.938  16.170  1.2682 -0.7290  0.2995
 6447TIP3    H240833   2.074   2.082  16.210 -0.1040 -0.5404 -1.0184
 6448TIP3   OH240834   5.805   0.423   4.618  0.2865  0.4343  0.1105
 6448TIP3    H140835   5.771   0.458   4.700 -2.8663 -1.0728 -0.4765
 6448TIP3    H240836   5.745   0.456   4.551  1.9186  0.4026 -1.4039
 6449TIP3   OH240837   4.141   3.693  12.294 -0.2938  0.7166  0.6809
 6449TIP3    H140838   4.082   3.721  12.364 -1.6246  0.1202 -0.1716
 6449TIP3    H240839   4.112   3.743  12.217 -0.8843 -0.9397 -0.1882
 6450TIP3   OH240840   1.471   0.201  15.091  0.5888 -0.1191  0.1453
 6450TIP3    H140841   1.505   0.127  15.141  0.3159 -0.1086  0.3464
 6450TIP3    H240842   1.464   0.272  15.155 -1.3302 -0.5754  0.4709
 6451TIP3   OH240843   2.975   4.957   0.172 -0.0230  0.1799  0.3693
 6451TIP3    H140844   3.002   5.041   0.209  1.3858  0.0702 -0.3962
 6451TIP3    H240845   3.056   4.916   0.142 -0.6029 -1.8118  1.4245
 6452TIP3   OH240846   1.926   5.633  15.683 -0.5133 -0.0054 -0.7263
 6452TIP3    H140847   1.889   5.548  15.662 -0.6287 -0.6219  1.7613
 6452TIP3    H240848   1.880   5.661  15.763  2.2650  0.5423  0.7773
 6453TIP3   OH240849   5.140   3.773   4.213 -0.5813 -0.2686 -0.1180
 6453TIP3    H140850   5.057   3.762   4.260 -0.6289  0.5493 -0.0137
 6453TIP3    H240851   5.115   3.771   4.121 -0.4774 -1.9639 -0.1322
 6454TIP3   OH240852   4.644   2.168  12.775 -0.4555 -0.1402  0.4516
 6454TIP3    H140853   4.552   2.166  12.801 -0.5397  0.2794  0.1963
 6454TIP3    H240854   4.654   2.091  12.718 -0.9910  0.5800 -0.6320
 6455TIP3   OH240855   0.964   0.353  16.535 -0.0513  0.2480 -0.2222
 6455TIP3    H140856   0.896   0.379  16.597  0.5339  0.7116  0.2358
 6455TIP3    H240857   1.042   0.401  16.563  0.2842  0.2835 -1.1688
 6456TIP3   OH240858   2.029   5.491   1.692  0.0387  0.1872  0.2014
 6456TIP3    H140859   2.018   5.400   1.722 -0.7409  0.6491  1.3764
 6456TIP3    H240860   2.042   5.484   1.598  1.9115 -1.2843  0.5395
 6457TIP3   OH240861   3.733   1.826   1.668 -0.5763  0.2302  0.0230
 6457TIP3    H140862   3.731   1.755   1.732  2.2333 -0.3423 -0.4650
 6457TIP3    H240863   3.655   1.813   1.615 -0.3856 -2.1542  0.2966
 6458TIP3   OH240864   3.368   4.933   2.860  0.0767  0.1519 -0.4415
 6458TIP3    H140865   3.349   4.842   2.884 -0.5784 -0.4293 -3.0903
 6458TIP3    H240866   3.339   4.984   2.936 -0.7775 -1.7243  0.5359
 6459TIP3   OH240867   1.456   5.235  16.706  0.0913 -0.2394 -0.0470
 6459TIP3    H140868   1.387   5.183  16.665 -1.3016  1.0447  0.6023
 6459TIP3    H240869   1.521   5.247  16.637 -0.2888 -1.5689 -0.6360
 6460TIP3   OH240870   1.075   3.368   5.769  0.0035  0.4403 -0.5061
 6460TIP3    H140871   1.053   3.344   5.859  0.3717 -0.2515 -0.5955
 6460TIP3    H240872   1.162   3.331   5.755 -0.9410 -1.3048 -1.8573
 6461TIP3   OH240873   0.131   6.071  11.776  0.1163  0.1111  0.1177
 6461TIP3    H140874   0.146   6.080  11.870  1.4272 -0.8189  0.0055
 6461TIP3    H240875   0.199   6.011  11.746 -0.3572  0.3114 -1.4112
 6462TIP3   OH240876   3.423   5.743  14.392  0.3940  0.4708  0.3275
 6462TIP3    H140877   3.453   5.829  14.362  0.3454  0.1591 -0.6190
 6462TIP3    H240878   3.504   5.691  14.399  0.3835  0.4835  0.5283
 6463TIP3   OH240879   1.246   3.657  16.557 -0.1336  0.3749  0.3190
 6463TIP3    H140880   1.190   3.621  16.488  0.1847  0.2046  0.1452
 6463TIP3    H240881   1.213   3.617  16.638  2.2561 -2.8771 -0.2130
 6464TIP3   OH240882   0.383   0.611  12.079 -0.0480 -0.0697  0.5056
 6464TIP3    H140883   0.410   0.577  12.164  1.0765 -1.3058 -0.3100
 6464TIP3    H240884   0.466   0.632  12.035 -0.6137  0.5256 -0.2790
 6465TIP3   OH240885   6.416   3.959   1.648 -0.0490 -0.0546  0.4273
 6465TIP3    H140886   6.432   4.049   1.619  1.6533 -0.6076 -0.4520
 6465TIP3    H240887   6.498   3.932   1.689 -0.6189 -1.1280  0.8871
 6466TIP3   OH240888   3.490   4.455  14.639 -0.0326  0.2163 -0.3791
 6466TIP3    H140889   3.440   4.375  14.626 -0.9845  1.0625 -2.2052
 6466TIP3    H240890   3.463   4.512  14.566  2.5999  1.1889 -0.6424
 6467TIP3   OH240891   2.080   3.939   3.300  0.1493  0.4234  0.3066
 6467TIP3    H140892   2.056   3.855   3.259  0.4139  0.7640 -0.5491
 6467TIP3    H240893   2.088   3.918   3.393 -3.0774  0.2144  0.5890
 6468TIP3   OH240894   3.387   5.872   0.451 -0.4549  0.0956  0.2072
 6468TIP3    H140895   3.374   5.887   0.357  0.6653 -0.2834 -0.0224
 6468TIP3    H240896   3.481   5.887   0.465 -0.6142  0.1307  1.2593
 6469TIP3   OH240897   2.890   0.394  12.872  0.4440 -1.2080 -0.2954
 6469TIP3    H140898   2.839   0.385  12.791  2.1505 -1.9294 -1.3001
 6469TIP3    H240899   2.970   0.345  12.856  1.3012 -0.4129  1.4321
 6470TIP3   OH240900   3.332   3.817  13.417  0.2571  0.4982 -0.3719
 6470TIP3    H140901   3.303   3.755  13.350 -0.2745  0.5973 -0.2318
 6470TIP3    H240902   3.424   3.794  13.431  0.1712 -0.0078 -0.6005
 6471TIP3   OH240903   3.717   6.609  13.927  0.4196 -0.2144 -0.4514
 6471TIP3    H140904   3.696   6.577  13.840  1.2454  0.8694 -1.0721
 6471TIP3    H240905   3.775   6.684  13.912 -1.8274  1.8775  0.9054
 6472TIP3   OH240906   3.557   2.694   1.683 -0.3024  0.2239 -0.1480
 6472TIP3    H140907   3.557   2.784   1.650  1.9391 -0.0646 -1.0046
 6472TIP3    H240908   3.519   2.642   1.612  0.8304  0.1451 -0.7010
 6473TIP3   OH240909   5.165   3.193  15.959 -0.3748 -0.0561 -0.0867
 6473TIP3    H140910   5.069   3.202  15.958 -0.3072  0.6114 -0.9491
 6473TIP3    H240911   5.197   3.283  15.963  0.1951 -0.3401  2.6741
 6474TIP3   OH240912   5.994   1.589   0.692  0.3218 -0.6768 -0.6395
 6474TIP3    H140913   5.908   1.577   0.651  0.8410  0.5663 -2.1314
 6474TIP3    H240914   6.057   1.559   0.626  1.0967 -0.2120 -0.1251
 6475TIP3   OH240915   1.090   6.527  10.265 -0.4580  0.0334  0.1557
 6475TIP3    H140916   1.002   6.540  10.230 -0.5750  1.4789  0.9590
 6475TIP3    H240917   1.076   6.515  10.359  0.2646  1.0579  0.4001
 6476TIP3   OH240918   5.434   3.575   2.261  0.3563 -0.0414  0.2384
 6476TIP3    H140919   5.462   3.485   2.273  0.2599 -0.1610 -0.3984
 6476TIP3    H240920   5.450   3.593   2.168 -3.2864 -0.7043 -0.6190
 6477TIP3   OH240921   4.586   3.739   3.706 -0.4663  0.2135  0.3468
 6477TIP3    H140922   4.510   3.796   3.697  0.6004  1.6289 -0.0498
 6477TIP3    H240923   4.559   3.671   3.767 -2.6281 -0.3684 -1.2400
 6478TIP3   OH240924   6.277   5.439  12.433  0.6366 -0.1873 -0.3306
 6478TIP3    H140925   6.351   5.499  12.423  0.7490  0.1851  2.2887
 6478TIP3    H240926   6.202   5.496  12.453  0.2218 -0.7475 -0.2629
 6479TIP3   OH240927   4.628   4.182   1.871  0.6135 -0.8258 -0.1276
 6479TIP3    H140928   4.573   4.215   1.800 -0.7831 -1.7027  0.5504
 6479TIP3    H240929   4.618   4.247   1.941  1.2937 -0.4233 -0.4000
 6480TIP3   OH240930   0.486   2.400  11.035  0.0351  0.4975  0.1662
 6480TIP3    H140931   0.445   2.319  11.065 -0.2538  1.4366  2.4044
 6480TIP3    H240932   0.537   2.374  10.959 -0.8761 -1.5893  0.2192
 6481TIP3   OH240933   3.552   1.533   0.264  0.1722 -0.2519  0.7536
 6481TIP3    H140934   3.602   1.527   0.183 -0.5050  1.6336  0.1576
 6481TIP3    H240935   3.617   1.526   0.333  1.0039  0.0339  0.0130
 6482TIP3   OH240936   4.305   3.236  14.374  0.1682 -0.2792 -0.1697
 6482TIP3    H140937   4.242   3.299  14.410  0.8346 -0.1399  0.7909
 6482TIP3    H240938   4.272   3.215  14.287 -0.2097  1.2030 -0.4020
 6483TIP3   OH240939   1.944   5.048  10.888 -0.2059 -0.5935 -0.1279
 6483TIP3    H140940   1.902   5.036  10.973 -0.4628 -2.5572 -0.5000
 6483TIP3    H240941   1.872   5.065  10.828  0.0595  1.8554  0.1880
 6484TIP3   OH240942   0.608   0.880  16.892  0.0830  0.5141  0.3076
 6484TIP3    H140943   0.607   0.926  16.976  0.8613  1.6487 -0.2907
 6484TIP3    H240944   0.655   0.798  16.910  0.2741  0.7662  0.9568
 6485TIP3   OH240945   2.468   1.320  15.713  0.2497  0.3304 -0.0518
 6485TIP3    H140946   2.445   1.232  15.683 -1.0630 -0.2103  2.3874
 6485TIP3    H240947   2.384   1.361  15.733  0.9911  0.9910  1.8520
 6486TIP3   OH240948   6.724   5.498   2.032  0.1889 -0.0869 -0.4459
 6486TIP3    H140949   6.819   5.489   2.032  0.1091 -1.0440 -0.4716
 6486TIP3    H240950   6.700   5.506   1.940  0.3154  1.0848 -0.3862
 6487TIP3   OH240951   1.829   1.299  15.145 -0.2019  0.3026  0.3865
 6487TIP3    H140952   1.884   1.331  15.216 -0.7332 -0.5746  1.2066
 6487TIP3    H240953   1.786   1.221  15.180 -1.6326  0.7171 -0.3700
 6488TIP3   OH240954   6.106   0.213   0.051  0.2060 -0.0722 -0.5331
 6488TIP3    H140955   6.112   0.124   0.085  1.6302  0.3190  0.2860
 6488TIP3    H240956   6.179   0.220  -0.011 -1.1521 -0.1350 -2.1850
 6489TIP3   OH240957   0.905   6.534   4.211  0.1376 -0.3273  0.4366
 6489TIP3    H140958   0.833   6.570   4.262 -1.8007 -0.5767 -2.0507
 6489TIP3    H240959   0.895   6.439   4.218 -0.4324 -0.3689 -0.7495
 6490TIP3   OH240960   4.131   6.044   0.064 -0.0756  0.0518  0.1554
 6490TIP3    H140961   4.083   6.019  -0.015  1.3112 -1.1394 -0.3136
 6490TIP3    H240962   4.223   6.029   0.043  0.2084 -1.8306  2.5521
 6491TIP3   OH240963   4.901   0.236  13.096  0.0429  0.4161 -0.1233
 6491TIP3    H140964   4.860   0.263  13.014 -1.9348 -0.4197  0.5588
 6491TIP3    H240965   4.957   0.162  13.072 -0.6051  0.1083 -0.7158
 6492TIP3   OH240966   4.208   3.376  13.428 -0.7012  0.5725  0.6083
 6492TIP3    H140967   4.303   3.390  13.423 -0.5058 -0.2164  2.0511
 6492TIP3    H240968   4.185   3.394  13.519 -1.8200 -0.0102  0.4548
 6493TIP3   OH240969   3.097   4.355  16.205 -0.1943  0.9230 -0.7287
 6493TIP3    H140970   3.011   4.321  16.229 -0.7937  2.0567 -1.2155
 6493TIP3    H240971   3.153   4.333  16.279 -0.8911  0.1079 -0.4421
 6494TIP3   OH240972   0.605   5.189  15.155 -0.5303 -0.0322  0.3113
 6494TIP3    H140973   0.645   5.137  15.085 -2.2778 -0.0885 -0.6647
 6494TIP3    H240974   0.679   5.229  15.201  0.6484 -0.1737 -1.4387
 6495TIP3   OH240975   3.743   1.519   5.490 -0.4111 -0.3973 -0.0301
 6495TIP3    H140976   3.766   1.606   5.520 -0.7460  0.0035 -0.9067
 6495TIP3    H240977   3.797   1.460   5.542  0.1009  0.3524  0.2911
 6496TIP3   OH240978   2.948   1.103  12.452  0.0457 -0.2863 -0.3478
 6496TIP3    H140979   2.925   1.151  12.372  0.2940  1.1430  0.4122
 6496TIP3    H240980   3.030   1.058  12.431  0.2051  0.2286 -0.8433
 6497TIP3   OH240981   4.720   2.355  12.135  0.0190 -0.5262  0.2185
 6497TIP3    H140982   4.741   2.282  12.194  0.0813  0.3814  1.3503
 6497TIP3    H240983   4.666   2.413  12.189  0.4578  0.5471 -0.4957
 6498TIP3   OH240984   3.047   5.023  12.494  0.0133  0.2335 -0.1308
 6498TIP3    H140985   3.054   5.092  12.560 -0.6988  0.3493 -0.1742
 6498TIP3    H240986   3.131   5.025  12.449  1.7476 -1.9721  2.8316
 6499TIP3   OH240987   6.656   6.786  15.536 -0.1806  0.4736  0.1984
 6499TIP3    H140988   6.581   6.745  15.579 -1.0375  0.8265 -0.9223
 6499TIP3    H240989   6.626   6.803  15.446  1.5464 -0.2117 -0.5316
 6500TIP3   OH240990   3.591   1.462   4.640 -0.0557  0.7554  0.1661
 6500TIP3    H140991   3.580   1.557   4.634 -0.8588  0.7436  1.2885
 6500TIP3    H240992   3.623   1.447   4.729 -0.0103 -0.0310  0.0225
 6501TIP3   OH240993   0.856   2.510   2.839  0.0745 -0.0811  0.0112
 6501TIP3    H140994   0.794   2.458   2.787  1.3851  0.2942 -1.9757
 6501TIP3    H240995   0.932   2.453   2.849  1.6028  1.4629 -2.3454
 6502TIP3   OH240996   0.743   0.997   3.911 -0.1241  0.4103 -0.3685
 6502TIP3    H140997   0.684   0.933   3.951  1.1325 -0.3355  0.3241
 6502TIP3    H240998   0.753   0.966   3.821  0.0102 -0.0338 -0.2025
 6503TIP3   OH240999   1.138   2.217   0.203 -0.0214  0.5981 -0.1748
 6503TIP3    H141000   1.085   2.205   0.282  0.4352  1.7838  0.3174
 6503TIP3    H241001   1.075   2.229   0.133 -0.4096  1.8032  0.3772
 6504TIP3   OH241002   2.155   3.140   1.013  0.2905 -0.0454  1.0020
 6504TIP3    H141003   2.178   3.233   1.006  0.4840 -0.0642  1.3547
 6504TIP3    H241004   2.239   3.094   1.017  0.2118 -0.3696 -0.6708
 6505TIP3   OH241005   5.665   0.807  15.531 -0.1011  0.8437  0.3630
 6505TIP3    H141006   5.664   0.790  15.625  0.5766  0.2212  0.2614
 6505TIP3    H241007   5.744   0.764  15.500 -0.3499  1.0080 -0.5011
 6506TIP3   OH241008   2.547   1.001  15.181  0.0157  0.4209  0.2167
 6506TIP3    H141009   2.466   0.956  15.157  0.3994 -0.2836  0.2306
 6506TIP3    H241010   2.571   1.052  15.103  0.0387 -0.0712 -0.0969
 6507TIP3   OH241011   6.003   3.897  14.743 -0.5205  0.0152  0.2546
 6507TIP3    H141012   5.977   3.846  14.820 -2.1083  0.1686 -0.1531
 6507TIP3    H241013   5.964   3.851  14.669 -1.2022  1.2852 -0.1990
 6508TIP3   OH241014   4.992   2.635  16.010 -0.2347 -0.5005 -0.5036
 6508TIP3    H141015   5.025   2.723  16.028 -2.7005  0.0510  1.6115
 6508TIP3    H241016   4.930   2.648  15.938 -0.6438 -0.5056 -0.1493
 6509TIP3   OH241017   4.247   6.292  11.905  0.7451 -0.7240  0.4270
 6509TIP3    H141018   4.261   6.317  11.996 -0.0529  1.4262 -0.0136
 6509TIP3    H241019   4.219   6.200  11.910 -0.5772 -0.2599  2.4555
 6510TIP3   OH241020   2.175   5.090   0.902  0.3610  0.0581  0.2979
 6510TIP3    H141021   2.105   5.095   0.967 -0.3490  0.7914 -0.5168
 6510TIP3    H241022   2.164   5.168   0.848  0.7767 -0.6798 -0.8760
 6511TIP3   OH241023   5.776   4.472  11.306  0.2181  0.0129  0.0775
 6511TIP3    H141024   5.808   4.561  11.291 -0.4156  0.0709 -0.9952
 6511TIP3    H241025   5.854   4.418  11.313  0.6561  0.8674  2.1789
 6512TIP3   OH241026   4.720   6.441   1.001  0.6338 -0.0773  0.3761
 6512TIP3    H141027   4.741   6.473   1.089 -0.4830 -0.7368  0.8819
 6512TIP3    H241028   4.625   6.445   0.995  0.7160  0.2533 -0.9184
 6513TIP3   OH241029   3.772   4.009  14.333 -0.2195  0.1997 -0.3496
 6513TIP3    H141030   3.695   4.064  14.316 -0.6639 -0.5178 -0.6593
 6513TIP3    H241031   3.781   4.010  14.428  0.3075  1.5365 -0.4034
 6514TIP3   OH241032   3.879   4.269   2.909 -0.4406 -0.3807  0.4478
 6514TIP3    H141033   3.883   4.175   2.897 -4.1535 -0.9490  3.0268
 6514TIP3    H241034   3.921   4.284   2.994  0.0639  0.2919  0.0852
 6515TIP3   OH241035   0.958   5.448   0.381 -0.3920 -0.1009  0.4114
 6515TIP3    H141036   1.025   5.446   0.313 -1.2731 -1.4326 -0.4235
 6515TIP3    H241037   1.007   5.466   0.462  1.0275 -1.4462 -0.1166
 6516TIP3   OH241038   2.072   2.676   1.836  0.3988  0.3982  0.1179
 6516TIP3    H141039   2.056   2.582   1.822  0.2028  0.3391  0.7333
 6516TIP3    H241040   2.141   2.698   1.773 -0.0768  0.0129 -0.5502
 6517TIP3   OH241041   0.837   4.539  13.711 -0.1697  0.4233 -0.4563
 6517TIP3    H141042   0.842   4.574  13.622 -0.2686  0.5215 -0.4246
 6517TIP3    H241043   0.817   4.446  13.699 -1.5974  0.7308 -0.5084
 6518TIP3   OH241044   3.849   3.104   0.640  0.2028  0.2560 -0.4629
 6518TIP3    H141045   3.905   3.043   0.591 -1.1661  0.3582 -2.2341
 6518TIP3    H241046   3.782   3.049   0.679  0.1661  0.3962 -0.3288
 6519TIP3   OH241047   5.997   2.385  12.205 -0.6239  0.1576  0.0030
 6519TIP3    H141048   5.949   2.344  12.133  1.6458 -1.6223 -0.5778
 6519TIP3    H241049   5.994   2.478  12.185 -3.4395  0.0506 -0.2213
 6520TIP3   OH241050   2.608   5.623   1.897  0.1363  0.5130  0.3099
 6520TIP3    H141051   2.685   5.653   1.850 -0.4332  1.3397 -0.0928
 6520TIP3    H241052   2.538   5.622   1.832 -0.3623  0.4542  0.8420
 6521TIP3   OH241053   2.693   2.659  15.643 -0.5683 -0.5715 -0.0552
 6521TIP3    H141054   2.624   2.665  15.577  0.2041 -0.8408 -0.8904
 6521TIP3    H241055   2.753   2.731  15.622  0.1829 -1.2506 -0.2312
 6522TIP3   OH241056   1.498   1.753  11.643  0.1943  0.0642  0.5515
 6522TIP3    H141057   1.425   1.758  11.705 -0.0475  0.7625  0.2122
 6522TIP3    H241058   1.473   1.811  11.571  0.8767 -0.0511  0.2125
 6523TIP3   OH241059   2.273   1.692   5.844 -1.0417  0.0470 -0.0916
 6523TIP3    H141060   2.292   1.690   5.751  1.7831  0.8696  0.4024
 6523TIP3    H241061   2.271   1.600   5.871 -1.1127 -0.1668 -0.8290
 6524TIP3   OH241062   4.157   5.312  14.875 -0.2604 -0.8349 -0.3968
 6524TIP3    H141063   4.182   5.404  14.881  0.4990 -1.0913  0.4070
 6524TIP3    H241064   4.227   5.271  14.824  0.3142 -1.2905  0.7210
 6525TIP3   OH241065   5.473   6.807   2.089  0.6252  0.8220  0.0609
 6525TIP3    H141066   5.471   6.719   2.053 -0.5401  1.2525 -0.9350
 6525TIP3    H241067   5.386   6.843   2.071  1.7244  2.8681 -1.2812
 6526TIP3   OH241068   4.232   1.700   2.618 -0.0169 -0.1453  0.4245
 6526TIP3    H141069   4.305   1.729   2.673  0.5442  0.7458 -0.7606
 6526TIP3    H241070   4.244   1.746   2.535 -0.1254 -2.4590 -0.9193
 6527TIP3   OH241071   6.373   6.662  15.377 -0.0188 -0.7244 -0.1820
 6527TIP3    H141072   6.427   6.584  15.376  1.5392  0.2443  2.7991
 6527TIP3    H241073   6.434   6.733  15.356 -0.6348  0.0831  0.7106
 6528TIP3   OH241074   4.057   5.061  13.030 -0.2155 -0.3052  0.4571
 6528TIP3    H141075   3.973   5.029  12.997  0.6147 -0.9510 -1.0582
 6528TIP3    H241076   4.035   5.139  13.081 -1.9409 -1.5503  1.6790
 6529TIP3   OH241077   6.308   2.837   0.311 -0.0198 -0.3837  0.4853
 6529TIP3    H141078   6.398   2.834   0.343  0.4462 -2.6513 -0.9051
 6529TIP3    H241079   6.279   2.927   0.328  2.4509  0.3388  1.0536
 6530TIP3   OH241080   4.706   2.651  11.999 -0.1903 -0.9704  0.4244
 6530TIP3    H141081   4.785   2.704  12.009 -0.1894 -0.6767 -0.9906
 6530TIP3    H241082   4.681   2.627  12.088  0.9229 -0.2248  0.9437
 6531TIP3   OH241083   6.150   3.099  16.765 -0.3908 -0.1072  0.1910
 6531TIP3    H141084   6.206   3.024  16.743 -0.3108 -0.0409  0.1693
 6531TIP3    H241085   6.143   3.097  16.860 -0.1455  0.0335  0.2137
 6532TIP3   OH241086   0.887   1.295   1.131  0.6527  0.5400 -0.3932
 6532TIP3    H141087   0.881   1.248   1.047 -0.5202  0.9502 -0.5471
 6532TIP3    H241088   0.822   1.365   1.124 -0.4576 -0.2577  1.3882
 6533TIP3   OH241089   2.586   3.065  15.192  0.0673  0.4570 -0.3546
 6533TIP3    H141090   2.586   2.972  15.168 -0.3511  0.1408  0.7983
 6533TIP3    H241091   2.660   3.074  15.252 -0.6294  0.5880  0.5025
 6534TIP3   OH241092   3.650   6.475  10.420 -0.2309  0.1770 -0.3476
 6534TIP3    H141093   3.638   6.500  10.512  0.2220  0.2580 -0.3094
 6534TIP3    H241094   3.697   6.392  10.423 -0.6435 -0.0628 -0.4997
 6535TIP3   OH241095   2.340   0.345  13.097 -0.2628  0.7143  0.5293
 6535TIP3    H141096   2.285   0.311  13.027  1.1542 -0.5064 -0.0272
 6535TIP3    H241097   2.373   0.428  13.064  0.0533  0.3506 -0.0769
 6536TIP3   OH241098   6.080   5.061   4.091 -0.3930 -0.6190 -0.0962
 6536TIP3    H141099   6.065   5.155   4.087 -2.6076 -1.0215 -3.3716
 6536TIP3    H241100   6.048   5.035   4.178 -0.0520  1.5768  0.7207
 6537TIP3   OH241101   5.277   6.409  11.396 -0.0699  0.1726  0.4318
 6537TIP3    H141102   5.370   6.428  11.381 -0.0092 -0.1331  0.4182
 6537TIP3    H241103   5.276   6.318  11.425 -0.2758  0.4704  1.3597
 6538TIP3   OH241104   0.447   6.224   4.491 -0.2531 -0.1041  0.0596
 6538TIP3    H141105   0.502   6.146   4.480 -0.2606 -0.0755 -0.1798
 6538TIP3    H241106   0.380   6.196   4.553  0.9723  0.3628  1.6186
 6539TIP3   OH241107   5.768   6.615  13.343 -0.2596 -0.3802 -0.5152
 6539TIP3    H141108   5.806   6.698  13.315 -1.3412 -0.1732 -1.3928
 6539TIP3    H241109   5.703   6.640  13.410 -0.1934 -0.5646 -0.3820
 6540TIP3   OH241110   3.531   5.051   0.601  0.3538  0.0775 -0.5034
 6540TIP3    H141111   3.481   4.990   0.546  1.1659  1.2001 -2.5370
 6540TIP3    H241112   3.579   4.995   0.661  1.5442 -1.3790 -2.7277
 6541TIP3   OH241113   5.502   4.416  13.751 -0.3665 -0.7114  0.2143
 6541TIP3    H141114   5.534   4.474  13.819 -0.7447  2.8783 -2.5553
 6541TIP3    H241115   5.578   4.399  13.695 -0.9105 -0.5863 -0.5703
 6542TIP3   OH241116   3.309   6.505  15.515 -0.0922 -0.1407 -0.6114
 6542TIP3    H141117   3.264   6.543  15.439 -1.5469 -0.1856  0.1960
 6542TIP3    H241118   3.274   6.416  15.520  0.3163 -0.2737 -0.1375
 6543TIP3   OH241119   4.262   2.695   1.966 -0.3133 -0.7829 -0.2510
 6543TIP3    H141120   4.315   2.772   1.985 -0.4687 -0.4121 -1.2828
 6543TIP3    H241121   4.174   2.719   1.995 -0.5535 -0.2138 -1.4286
 6544TIP3   OH241122   1.234   6.065  17.287 -0.4456 -0.5062 -0.0504
 6544TIP3    H141123   1.218   5.983  17.332  2.2044 -1.4747 -0.7887
 6544TIP3    H241124   1.266   6.124  17.355 -0.8909 -0.5358  0.1863
 6545TIP3   OH241125   6.541   3.935  13.295  0.0482  0.7858  0.4315
 6545TIP3    H141126   6.457   3.966  13.328 -0.6420  0.6163 -1.1146
 6545TIP3    H241127   6.583   3.895  13.371 -1.8384 -0.3176  0.9378
 6546TIP3   OH241128   4.695   1.392  14.788 -0.0272 -0.0777 -0.6416
 6546TIP3    H141129   4.679   1.392  14.694  0.7500  1.0705 -0.7794
 6546TIP3    H241130   4.767   1.330  14.801 -0.6451 -0.8153 -0.7058
 6547TIP3   OH241131   4.367   4.018   4.096  0.0583 -0.3689  0.0635
 6547TIP3    H141132   4.393   4.061   4.177  0.4855 -2.0178  0.8315
 6547TIP3    H241133   4.450   3.994   4.054 -0.1819 -0.9318 -0.0897
 6548TIP3   OH241134   1.216   1.468   0.155  0.5531  0.1203  0.2678
 6548TIP3    H141135   1.138   1.492   0.205  1.3505  1.6129  0.8170
 6548TIP3    H241136   1.196   1.495   0.065  0.0025 -0.5424  0.1842
 6549TIP3   OH241137   6.125   2.717  15.779 -0.6396 -0.3996 -0.3512
 6549TIP3    H141138   6.105   2.670  15.698 -0.0475  0.3305 -0.9257
 6549TIP3    H241139   6.103   2.808  15.760  0.7196 -0.0075 -0.1278
 6550TIP3   OH241140   1.833   2.713  12.547 -0.1224  0.1830  0.5176
 6550TIP3    H141141   1.795   2.642  12.495  1.4418 -0.9708  0.8974
 6550TIP3    H241142   1.905   2.746  12.493 -1.6986  2.4688 -0.2809
 6551TIP3   OH241143   3.179   1.029   2.569 -0.0204  0.7021  0.4480
 6551TIP3    H141144   3.144   0.944   2.594 -1.6744  0.5770 -2.1221
 6551TIP3    H241145   3.234   1.011   2.493 -0.8650  1.9732 -0.4882
 6552TIP3   OH241146   6.428   0.411   1.859  0.5223 -0.1152  0.1220
 6552TIP3    H141147   6.460   0.326   1.830  0.8773 -0.1447  0.6015
 6552TIP3    H241148   6.332   0.403   1.856  0.5571 -0.5703  0.2949
 6553TIP3   OH241149   0.432   5.831  15.218 -0.6156 -0.1820  0.2503
 6553TIP3    H141150   0.376   5.759  15.187 -0.4484  0.4497 -1.6076
 6553TIP3    H241151   0.500   5.788  15.270  0.2180 -1.5335 -1.8839
 6554TIP3   OH241152   4.325   0.841  13.810 -0.1217  0.0660  0.4349
 6554TIP3    H141153   4.258   0.775  13.828 -0.9186  1.0050  0.9764
 6554TIP3    H241154   4.363   0.860  13.896 -0.6561  1.1065  0.4464
 6555TIP3   OH241155   2.378   1.934  10.967 -0.3800  0.1059  0.4149
 6555TIP3    H141156   2.466   1.972  10.957 -0.4788  0.6288  1.4750
 6555TIP3    H241157   2.373   1.868  10.898 -0.3537  2.2764 -1.7752
 6556TIP3   OH241158   5.505   6.038  14.131  0.4811  0.0862 -0.9564
 6556TIP3    H141159   5.523   5.946  14.112  2.8327  0.7282 -1.9679
 6556TIP3    H241160   5.581   6.067  14.182 -0.1600  1.5106 -0.7876
 6557TIP3   OH241161   0.559   3.536  14.188 -0.1730  0.3734 -0.3486
 6557TIP3    H141162   0.501   3.481  14.136  0.8786 -1.7209  0.6236
 6557TIP3    H241163   0.569   3.489  14.271  3.3332  0.3530 -0.7018
 6558TIP3   OH241164   3.436   0.624  14.882  0.6130  0.2582  0.0197
 6558TIP3    H141165   3.370   0.554  14.875  1.7333 -0.6774 -1.5680
 6558TIP3    H241166   3.473   0.613  14.970 -1.0580  0.5457  0.7745
 6559TIP3   OH241167   0.552   4.645   5.277 -0.0511  0.2283 -0.1007
 6559TIP3    H141168   0.492   4.719   5.284  0.1425  0.1866  2.6772
 6559TIP3    H241169   0.512   4.578   5.333  1.4941 -0.5578  0.0731
 6560TIP3   OH241170   4.575   5.279  14.065  0.0571  0.1550  0.2376
 6560TIP3    H141171   4.505   5.214  14.051 -1.1172  1.3714  0.3193
 6560TIP3    H241172   4.648   5.228  14.100  0.1511 -1.5846 -2.3344
 6561TIP3   OH241173   2.564   1.044  13.349 -0.3307 -0.0860  0.0376
 6561TIP3    H141174   2.502   1.116  13.358 -0.6430 -0.3822  0.2314
 6561TIP3    H241175   2.634   1.064  13.412  0.5918  1.0939 -1.3069
 6562TIP3   OH241176   6.230   1.976   0.140 -0.2105  0.5713  1.2453
 6562TIP3    H141177   6.172   1.972   0.216  1.9776  0.5577  2.9737
 6562TIP3    H241178   6.257   2.067   0.136 -1.1290  0.7899 -0.1711
 6563TIP3   OH241179   1.198   6.363  10.476  0.4102  0.7241  0.1472
 6563TIP3    H141180   1.268   6.311  10.437  0.5693  0.7763  0.3577
 6563TIP3    H241181   1.122   6.305  10.476  0.2148  0.9848 -0.9159
 6564TIP3   OH241182   0.162   3.380   2.910  0.3830 -0.4485 -0.0354
 6564TIP3    H141183   0.221   3.449   2.941 -0.9465  0.3623  0.7228
 6564TIP3    H241184   0.164   3.388   2.815 -0.4687  1.2266  0.0883
 6565TIP3   OH241185   3.153   3.573   4.850 -0.1389 -0.5857  0.0871
 6565TIP3    H141186   3.148   3.573   4.946 -0.4473 -0.4169  0.0716
 6565TIP3    H241187   3.200   3.654   4.828  0.1986 -0.7748  0.1086
 6566TIP3   OH241188   4.227   0.719  14.652 -0.2449 -0.4927 -0.1763
 6566TIP3    H141189   4.195   0.629  14.664  1.0426 -0.9237  0.0940
 6566TIP3    H241190   4.263   0.743  14.737 -0.1640  0.1153 -0.3805
 6567TIP3   OH241191   1.597   5.088  11.790  0.1273 -0.6379 -0.4963
 6567TIP3    H141192   1.653   5.049  11.723  0.5797  0.2125 -0.6210
 6567TIP3    H241193   1.536   5.144  11.742  0.9958  0.6286 -0.1432
 6568TIP3   OH241194   1.815   2.698   0.861 -0.3673 -0.5853 -0.0130
 6568TIP3    H141195   1.781   2.691   0.951 -1.5734  1.7690 -0.2504
 6568TIP3    H241196   1.855   2.785   0.858  1.3213 -1.3979 -1.2194
 6569TIP3   OH241197   3.951   2.578  11.942 -0.5013 -0.3127 -0.5989
 6569TIP3    H141198   3.861   2.610  11.935 -0.4077  0.3034  0.7940
 6569TIP3    H241199   4.001   2.656  11.967  0.0178 -1.1704  1.0953
 6570TIP3   OH241200   0.796   0.229  11.809 -0.3470  0.6159  0.0594
 6570TIP3    H141201   0.880   0.190  11.782 -1.3191 -2.4148  1.2741
 6570TIP3    H241202   0.741   0.222  11.731 -0.6357 -0.8509  0.3809
 6571TIP3   OH241203   5.937   2.878  14.572 -0.1841  0.0560  0.0394
 6571TIP3    H141204   5.918   2.922  14.655 -0.0846 -1.0198  0.6391
 6571TIP3    H241205   6.018   2.919  14.541 -2.3069  3.2483 -1.5154
 6572TIP3   OH241206   5.144   0.663  14.217 -0.2614 -0.4904 -0.4379
 6572TIP3    H141207   5.207   0.663  14.146  0.6537 -1.5953  0.3597
 6572TIP3    H241208   5.192   0.697  14.293 -1.3054  0.9714 -0.3960
 6573TIP3   OH241209   3.079   5.425   0.220  0.2536 -0.1747 -0.0392
 6573TIP3    H141210   3.065   5.515   0.191 -1.6649 -0.7630 -1.0078
 6573TIP3    H241211   2.992   5.393   0.243  0.8918 -1.8176  0.1798
 6574TIP3   OH241212   5.414   0.982   3.112 -0.3982 -0.0370  0.2638
 6574TIP3    H141213   5.397   0.912   3.049 -1.8393  2.2292 -1.9818
 6574TIP3    H241214   5.376   0.950   3.194 -2.8928 -1.0564 -1.2244
 6575TIP3   OH241215   0.938   3.778  10.585 -0.3080  0.6819  0.0509
 6575TIP3    H141216   1.002   3.849  10.581  1.8644 -0.9767  3.4066
 6575TIP3    H241217   0.877   3.804  10.653 -1.2101  0.6347 -0.7215
 6576TIP3   OH241218   1.777   5.846  16.358  0.1596  0.2356  0.5861
 6576TIP3    H141219   1.804   5.844  16.450  0.2406  0.5764  0.5699
 6576TIP3    H241220   1.801   5.760  16.324  0.8325  0.3843  0.6825
 6577TIP3   OH241221   4.753   6.739  13.224  0.0643 -0.0199  0.1267
 6577TIP3    H141222   4.687   6.794  13.267 -1.7839 -0.5036 -1.9783
 6577TIP3    H241223   4.818   6.723  13.292 -2.1249  0.2351  2.3821
 6578TIP3   OH241224   5.397   2.937   0.186  0.3191 -0.1490  0.0943
 6578TIP3    H141225   5.416   2.849   0.155  1.4337  0.0440  0.2060
 6578TIP3    H241226   5.376   2.926   0.279  0.6006 -0.2805  0.1427
 6579TIP3   OH241227   3.055   0.336   0.620 -0.3623 -0.2631  0.0237
 6579TIP3    H141228   2.966   0.358   0.592 -0.4565 -0.7472 -0.0579
 6579TIP3    H241229   3.103   0.323   0.538  0.2360  1.7679  0.0308
 6580TIP3   OH241230   4.183   6.612  12.389  0.3762 -0.0866 -0.4718
 6580TIP3    H141231   4.249   6.543  12.388 -0.1721 -0.5999 -1.1689
 6580TIP3    H241232   4.223   6.684  12.341  0.4437 -0.3818 -0.8558
 6581TIP3   OH241233   5.771   3.968   1.064  0.1947 -0.1369  0.1219
 6581TIP3    H141234   5.679   3.952   1.087 -0.2111  0.4540 -1.0576
 6581TIP3    H241235   5.778   3.937   0.974  0.7931  1.1458 -0.2836
 6582TIP3   OH241236   1.778   4.453   0.592 -0.3367 -0.4328  0.3990
 6582TIP3    H141237   1.735   4.442   0.676 -1.9551  1.1993 -0.1845
 6582TIP3    H241238   1.835   4.528   0.603  1.1669 -1.5942  0.6849
 6583TIP3   OH241239   0.089   1.429   3.360 -0.3009 -0.0064  0.2546
 6583TIP3    H141240   0.150   1.378   3.306 -0.1906 -0.7609  1.0804
 6583TIP3    H241241   0.085   1.514   3.317  1.6247  0.1738  0.3953
 6584TIP3   OH241242   4.369   3.136   1.612  0.0599 -0.2001 -0.1170
 6584TIP3    H141243   4.297   3.122   1.550 -0.7565 -0.2030  0.8125
 6584TIP3    H241244   4.329   3.121   1.698  1.5442 -1.6786  0.3299
 6585TIP3   OH241245   4.459   3.034   4.695  0.1769 -0.3160 -0.0247
 6585TIP3    H141246   4.460   2.960   4.633 -0.1055 -1.8023  1.6971
 6585TIP3    H241247   4.541   3.024   4.744  0.4243  0.8839 -0.1900
 6586TIP3   OH241248   5.844   0.976   6.852 -0.1132 -0.0646  0.2876
 6586TIP3    H141249   5.800   1.061   6.846  0.5558  0.2214 -0.4905
 6586TIP3    H241250   5.772   0.913   6.860 -0.6739  0.3788 -1.2325
 6587TIP3   OH241251   1.307   3.101  14.764  0.1205  0.0375 -0.2031
 6587TIP3    H141252   1.389   3.135  14.802  0.1935  0.9627 -1.1470
 6587TIP3    H241253   1.238   3.143  14.816  0.2329 -1.4983  1.2288
 6588TIP3   OH241254   0.030   0.041  11.810 -0.1404  0.0447  0.1935
 6588TIP3    H141255   0.072   0.052  11.725 -2.0677  0.2010 -0.7801
 6588TIP3    H241256  -0.064   0.054  11.792 -0.4861  1.0441  2.4968
 6589TIP3   OH241257   3.364   6.776   0.312 -0.2674  0.2979  0.0343
 6589TIP3    H141258   3.452   6.756   0.343 -0.7803 -0.8658  0.7903
 6589TIP3    H241259   3.318   6.810   0.389 -0.3621  1.2886 -0.4562
 6590TIP3   OH241260   2.216   0.349   0.029  0.1771 -0.1762 -0.4068
 6590TIP3    H141261   2.168   0.386  -0.045 -2.2144 -1.6885  0.3325
 6590TIP3    H241262   2.281   0.291  -0.010  0.4171  0.7412 -1.3798
 6591TIP3   OH241263   4.142   5.560  15.897  0.2636 -0.1680  0.1051
 6591TIP3    H141264   4.101   5.606  15.824  0.8999  0.9049  0.4086
 6591TIP3    H241265   4.108   5.471  15.892  0.3705 -0.1274 -1.5525
 6592TIP3   OH241266   5.833   1.844  12.445  0.1453 -0.3131 -0.4375
 6592TIP3    H141267   5.915   1.814  12.486  0.2586 -1.8456 -1.7263
 6592TIP3    H241268   5.765   1.820  12.507  0.5032 -0.7204 -0.1984
 6593TIP3   OH241269   0.683   3.024  11.939  0.0031  0.2588 -0.1281
 6593TIP3    H141270   0.719   3.022  11.850 -0.1580  1.6783 -0.2401
 6593TIP3    H241271   0.757   3.000  11.995  0.7901  1.8077 -0.4684
 6594TIP3   OH241272   0.465   6.464  16.489  0.9428 -0.1878  0.2965
 6594TIP3    H141273   0.554   6.489  16.512  0.9231 -0.8637  1.1198
 6594TIP3    H241274   0.443   6.393  16.549 -0.0778 -0.1671 -0.0355
 6595TIP3   OH241275   1.224   4.835   4.361 -0.5001  0.0918  0.1975
 6595TIP3    H141276   1.279   4.880   4.297 -1.1304 -0.6535 -0.8882
 6595TIP3    H241277   1.195   4.755   4.316 -3.5055  1.0735  0.2438
 6596TIP3   OH241278   1.743   5.439  13.853  0.1519 -0.3731 -0.1492
 6596TIP3    H141279   1.671   5.382  13.878  1.0596 -1.5248 -0.1500
 6596TIP3    H241280   1.746   5.505  13.922 -2.0579  0.7616 -1.0992
 6597TIP3   OH241281   1.701   4.918   1.025 -0.1006 -0.6324 -0.0981
 6597TIP3    H141282   1.712   4.841   0.969  1.7606 -0.8407  0.5373
 6597TIP3    H241283   1.738   4.990   0.975 -0.3497 -0.4378 -0.0042
 6598TIP3   OH241284   5.495   0.704  15.990  0.5122 -0.0295 -0.6221
 6598TIP3    H141285   5.486   0.779  15.931 -1.0429 -0.2234 -0.6582
 6598TIP3    H241286   5.406   0.668  15.995  0.7922 -0.4583  1.2597
 6599TIP3   OH241287   2.522   5.077  17.182  0.2720  0.5168  0.2130
 6599TIP3    H141288   2.617   5.073  17.197  0.1608 -0.9663  0.5706
 6599TIP3    H241289   2.490   5.137  17.250  0.7847 -0.0506  0.9655
 6600TIP3   OH241290   3.706   4.312  13.482  0.5575  0.5786  0.2642
 6600TIP3    H141291   3.696   4.224  13.520 -0.0522 -0.2822 -1.8061
 6600TIP3    H241292   3.798   4.315  13.455  0.4995  0.4429  0.0456
 6601TIP3   OH241293   1.583   2.372   6.149 -0.5021  0.0829 -1.1651
 6601TIP3    H141294   1.518   2.316   6.192 -0.4094  0.8384 -0.0212
 6601TIP3    H241295   1.645   2.394   6.219  0.4857  0.1180 -2.0332
 6602TIP3   OH241296   6.717   0.471   3.603 -0.0900 -0.6007 -0.1058
 6602TIP3    H141297   6.629   0.507   3.589 -0.0092 -1.0031 -1.7885
 6602TIP3    H241298   6.723   0.399   3.541  0.7146 -1.8544  1.4093
 6603TIP3   OH241299   6.606   3.121  16.768 -0.3247 -0.7119  0.4244
 6603TIP3    H141300   6.665   3.147  16.697 -0.7669 -0.8597  0.0006
 6603TIP3    H241301   6.596   3.026  16.758 -3.2715 -0.2638 -1.5626
 6604TIP3   OH241302   1.083   0.856  17.094  0.4426 -0.3437  0.3019
 6604TIP3    H141303   1.127   0.941  17.101  0.7133 -0.6193  2.0438
 6604TIP3    H241304   1.018   0.856  17.164 -1.6858 -0.3707 -1.6009
 6605TIP3   OH241305   4.911   5.895  14.461  0.2176  0.4736  0.9090
 6605TIP3    H141306   4.975   5.956  14.424  2.0185 -0.7828  1.9178
 6605TIP3    H241307   4.894   5.929  14.549 -0.3933  0.7004  0.7102
 6606TIP3   OH241308   0.052   1.714  15.837 -0.3041 -0.3716  0.5254
 6606TIP3    H141309   0.067   1.752  15.750 -1.5521 -1.7704 -0.3456
 6606TIP3    H241310   0.134   1.728  15.884  0.5566  0.0140 -1.0309
 6607TIP3   OH241311   1.180   1.485  15.678  0.2193  0.2423 -0.2230
 6607TIP3    H141312   1.119   1.419  15.711 -0.1051  1.0434  0.8283
 6607TIP3    H241313   1.132   1.530  15.609  0.7345 -1.1476 -1.5097
 6608TIP3   OH241314   2.796   4.461   3.276  0.5117 -0.0233 -0.0657
 6608TIP3    H141315   2.884   4.459   3.313  0.7695  1.6455 -0.5337
 6608TIP3    H241316   2.809   4.444   3.183  0.4852  1.4089 -0.3434
 6609TIP3   OH241317   2.110   3.976   5.894  0.4152  0.2919 -0.4841
 6609TIP3    H141318   2.165   4.032   5.950 -0.2834  0.5184 -0.0141
 6609TIP3    H241319   2.025   3.975   5.938  0.4413 -1.2177 -0.4386
 6610TIP3   OH241320   4.253   0.897   4.364 -0.2962 -0.3977  0.4656
 6610TIP3    H141321   4.170   0.921   4.405  0.2066  2.2231  0.0584
 6610TIP3    H241322   4.316   0.895   4.436 -0.1129  0.7218  0.3488
 6611TIP3   OH241323   3.798   6.670  14.815  0.0585  0.5776  0.1849
 6611TIP3    H141324   3.893   6.686  14.813  0.8626 -3.6181  0.4572
 6611TIP3    H241325   3.772   6.664  14.723  0.1335  1.3563  0.1128
 6612TIP3   OH241326   6.309   5.795   3.303  0.0002  0.3253 -0.1764
 6612TIP3    H141327   6.371   5.837   3.362 -1.7604  1.5569  0.8392
 6612TIP3    H241328   6.335   5.702   3.303 -0.1179  0.2519  2.7264
 6613TIP3   OH241329   2.849   0.813  12.247 -0.2464  0.0391  0.0399
 6613TIP3    H141330   2.826   0.758  12.172 -0.5085  2.0261 -1.3742
 6613TIP3    H241331   2.939   0.787  12.268 -0.4414 -1.0835 -0.4314
 6614TIP3   OH241332   2.133   1.082   1.174 -0.6035  0.8860 -0.3546
 6614TIP3    H141333   2.133   1.014   1.242  1.0037  1.9362  0.7353
 6614TIP3    H241334   2.194   1.049   1.108 -0.7867  0.6820 -0.4206
 6615TIP3   OH241335   0.443   3.948  15.581  0.2668 -0.1231  0.4313
 6615TIP3    H141336   0.390   4.022  15.552 -0.0970 -1.4677 -2.4772
 6615TIP3    H241337   0.426   3.943  15.675 -0.7593  2.6192  0.4542
 6616TIP3   OH241338   6.749   5.075  16.401 -0.0349  0.1854  0.6179
 6616TIP3    H141339   6.820   5.084  16.464 -0.7269  1.5648  1.2197
 6616TIP3    H241340   6.737   5.163  16.366 -1.2770 -0.0926  0.3304
 6617TIP3   OH241341   5.169   2.598   3.739  0.2404  0.7505  0.5418
 6617TIP3    H141342   5.105   2.559   3.799  0.7486  1.0595  1.3031
 6617TIP3    H241343   5.124   2.674   3.702  0.8105  2.1133  2.5614
 6618TIP3   OH241344   4.895   1.958  14.612  0.0597  0.2552  0.1449
 6618TIP3    H141345   4.854   1.935  14.695  0.8730 -0.2622  0.4103
 6618TIP3    H241346   4.972   2.011  14.637  1.0162 -0.9528 -0.2006
 6619TIP3   OH241347   0.134   1.584   0.765 -0.5092 -0.0810 -0.3199
 6619TIP3    H141348   0.194   1.626   0.705 -0.6724 -1.4354 -1.4524
 6619TIP3    H241349   0.069   1.541   0.709 -1.8308  0.3460  0.8500
 6620TIP3   OH241350   0.259   4.093   2.139  0.2245  0.0888  0.1435
 6620TIP3    H141351   0.277   4.130   2.225 -1.5527  0.6575  0.3018
 6620TIP3    H241352   0.337   4.042   2.117  1.4867  1.5196  1.2329
 6621TIP3   OH241353   1.087   0.110   3.603 -0.3483  0.0518  0.5871
 6621TIP3    H141354   1.020   0.046   3.627  0.0814  0.0457  1.7884
 6621TIP3    H241355   1.155   0.100   3.670  1.4884 -0.8747 -1.3765
 6622TIP3   OH241356   5.005   4.124  14.104 -0.3508 -0.1978 -0.0483
 6622TIP3    H141357   4.932   4.182  14.124 -0.4966 -0.1250 -0.7703
 6622TIP3    H241358   5.012   4.066  14.180 -0.1080  0.8609  0.7497
 6623TIP3   OH241359   3.597   3.713  15.406 -0.3118 -0.4366 -0.0558
 6623TIP3    H141360   3.574   3.667  15.325  0.7408  0.3060 -0.8028
 6623TIP3    H241361   3.693   3.712  15.407 -0.3277 -1.1978  1.6393
 6624TIP3   OH241362   4.033   2.363   6.206 -0.3657  0.7188 -0.2339
 6624TIP3    H141363   4.104   2.427   6.202 -0.3782  0.7919  0.7661
 6624TIP3    H241364   3.953   2.415   6.218 -0.3976  0.5255  0.3901
 6625TIP3   OH241365   5.772   0.883   5.776  0.5137  0.0428 -0.3644
 6625TIP3    H141366   5.795   0.834   5.854  0.9696 -2.6308 -2.1086
 6625TIP3    H241367   5.778   0.975   5.802 -2.3849 -0.7786  3.5557
 6626TIP3   OH241368   3.376   5.839   6.276 -0.2017  0.0534  0.5235
 6626TIP3    H141369   3.332   5.917   6.309 -0.4037 -0.1028  0.6277
 6626TIP3    H241370   3.382   5.781   6.352 -0.6872 -0.3161  0.2849
 6627TIP3   OH241371   5.242   1.892   6.538 -0.2136  0.3695  0.8776
 6627TIP3    H141372   5.257   1.933   6.623  0.5075 -0.7714  1.3035
 6627TIP3    H241373   5.329   1.871   6.505 -0.5933 -1.4936  1.0012
 6628TIP3   OH241374   1.778   0.807  15.994  0.1087 -0.1303  0.2039
 6628TIP3    H141375   1.815   0.893  15.975 -0.6151  0.2340  0.4136
 6628TIP3    H241376   1.781   0.801  16.090 -3.2518  1.2377  0.4711
 6629TIP3   OH241377   5.599   1.997   2.155 -0.3524  0.0166 -0.1138
 6629TIP3    H141378   5.688   1.996   2.191 -0.8240  0.7388  1.1343
 6629TIP3    H241379   5.606   1.955   2.070  0.7090 -2.3706  1.1009
 6630TIP3   OH241380   3.727   2.526   3.363  0.3442  0.3516  0.6051
 6630TIP3    H141381   3.657   2.484   3.415  0.6243  1.3363  1.8159
 6630TIP3    H241382   3.683   2.556   3.284 -0.8982  2.0074  1.8798
 6631TIP3   OH241383   2.860   3.938  16.013  0.1538  0.3487 -1.2082
 6631TIP3    H141384   2.854   3.999  16.087 -1.1286  0.2067 -1.1975
 6631TIP3    H241385   2.934   3.970  15.962  0.5092  0.9572 -0.3266
 6632TIP3   OH241386   3.037   6.483   4.537  0.1079 -0.1803 -0.1005
 6632TIP3    H141387   3.013   6.572   4.511  1.4887  0.8318  1.9807
 6632TIP3    H241388   2.991   6.427   4.475  1.0267  2.0472 -2.8878
 6633TIP3   OH241389   2.241   2.858  15.381  0.5782 -0.0928 -0.2823
 6633TIP3    H141390   2.265   2.951  15.384  0.5872 -0.1149  0.5886
 6633TIP3    H241391   2.180   2.847  15.455 -0.5237 -0.4729 -1.2345
 6634TIP3   OH241392   6.110   2.848  13.717 -0.5124  0.9027 -0.4012
 6634TIP3    H141393   6.050   2.828  13.790 -0.5479  0.0980 -0.6510
 6634TIP3    H241394   6.177   2.903  13.757  0.2369 -0.6903  0.5640
 6635TIP3   OH241395   0.294   6.222   4.725 -0.2136  0.3881 -0.0391
 6635TIP3    H141396   0.278   6.200   4.817  1.5466 -0.4523  0.0828
 6635TIP3    H241397   0.209   6.254   4.693 -1.1404 -0.4085  1.5617
 6636TIP3   OH241398   2.795   1.337  15.180  0.2342 -0.2940  0.5002
 6636TIP3    H141399   2.768   1.247  15.199  0.7486 -0.3352  1.0340
 6636TIP3    H241400   2.846   1.364  15.257 -0.8267  0.8232  0.8452
 6637TIP3   OH241401   2.391   1.606  11.396  0.1015 -0.0818  0.3894
 6637TIP3    H141402   2.470   1.616  11.449  0.0607 -1.0487  0.6538
 6637TIP3    H241403   2.407   1.659  11.318  1.0507 -0.3316  0.4043
 6638TIP3   OH241404   0.016   1.672  11.749  0.0229 -0.6803 -0.4770
 6638TIP3    H141405   0.061   1.589  11.761  0.0080 -0.6968 -0.5360
 6638TIP3    H241406  -0.077   1.649  11.742  0.0119 -0.6528 -0.4276
 6639TIP3   OH241407   5.032   4.943  11.975 -0.4926 -0.2983  0.0513
 6639TIP3    H141408   5.010   4.854  12.002  1.8976  0.1226  3.5735
 6639TIP3    H241409   4.987   4.999  12.037 -0.1143  0.9162 -0.7505
 6640TIP3   OH241410   4.988   3.665  16.773  0.0554 -0.3481  0.0855
 6640TIP3    H141411   4.940   3.607  16.832  0.1582 -0.8482 -0.3220
 6640TIP3    H241412   4.989   3.750  16.818 -1.1204 -0.3574  0.1379
 6641TIP3   OH241413   5.626   4.874   4.881 -0.0181 -0.0247 -0.4561
 6641TIP3    H141414   5.626   4.781   4.906 -0.4951 -0.0804 -0.6582
 6641TIP3    H241415   5.640   4.921   4.963 -0.5093 -0.2479 -0.2425
 6642TIP3   OH241416   5.418   5.404   2.302  0.0579  0.0948  0.0730
 6642TIP3    H141417   5.345   5.445   2.254 -0.8458 -0.8192  0.6481
 6642TIP3    H241418   5.449   5.336   2.244 -1.6718 -1.6635  1.1369
 6643TIP3   OH241419   1.706   5.347   2.293  0.3496 -0.4454 -0.2431
 6643TIP3    H141420   1.677   5.394   2.215 -0.9011 -1.6376 -0.5150
 6643TIP3    H241421   1.718   5.416   2.359 -1.1964  0.3021 -0.7047
 6644TIP3   OH241422   3.426   0.298   1.080 -0.6993 -0.6293  0.8081
 6644TIP3    H141423   3.486   0.224   1.087 -1.3469 -1.2477 -0.0591
 6644TIP3    H241424   3.385   0.303   1.167  0.0364 -0.6934  1.1601
 6645TIP3   OH241425   2.120   3.376   4.658 -0.0807 -0.0051 -0.2796
 6645TIP3    H141426   2.215   3.366   4.651 -0.2411 -0.3614 -2.6070
 6645TIP3    H241427   2.107   3.470   4.660  0.2283  0.1201 -2.5129
 6646TIP3   OH241428   5.876   1.726  12.891 -0.7499  0.6054 -0.9167
 6646TIP3    H141429   5.857   1.649  12.838  0.2958 -0.7090  0.5830
 6646TIP3    H241430   5.900   1.793  12.827  0.3770 -0.9110 -2.1342
 6647TIP3   OH241431   0.141   2.599   0.032  0.0119 -0.5423 -0.0720
 6647TIP3    H141432   0.176   2.668   0.090 -1.2574 -1.2990  1.6403
 6647TIP3    H241433   0.151   2.635  -0.056  1.3738  0.9323  0.6515
 6648TIP3   OH241434   6.083   3.795  16.657 -0.7411  0.0303  0.0751
 6648TIP3    H141435   5.989   3.809  16.648 -0.5742 -0.5498 -3.0501
 6648TIP3    H241436   6.091   3.710  16.699 -1.6619 -2.1131 -3.8881
 6649TIP3   OH241437   3.384   5.772  12.888 -0.5947 -0.0929 -0.2682
 6649TIP3    H141438   3.328   5.755  12.812 -2.1596  3.2125  0.0402
 6649TIP3    H241439   3.447   5.837  12.857 -0.7706  0.7180  1.0055
 6650TIP3   OH241440   6.297   3.515  12.744  0.4833 -0.1358  0.1446
 6650TIP3    H141441   6.218   3.475  12.708  0.5353  0.0689 -0.2041
 6650TIP3    H241442   6.300   3.485  12.835 -0.6037  0.7436  0.4988
 6651TIP3   OH241443   4.887   5.981  16.293  0.1327 -0.1646  0.2341
 6651TIP3    H141444   4.963   5.931  16.324 -0.1530 -0.2284  0.8365
 6651TIP3    H241445   4.811   5.930  16.323 -0.1675  0.8255  1.1936
 6652TIP3   OH241446   1.490   4.189  16.310  0.4053 -0.5186  0.1576
 6652TIP3    H141447   1.562   4.183  16.246 -0.2573 -2.1709 -0.4618
 6652TIP3    H241448   1.534   4.189  16.395  1.2276  0.3279 -0.2513
 6653TIP3   OH241449   3.258   2.531  16.008 -0.2757  0.2565  0.2398
 6653TIP3    H141450   3.352   2.546  15.997 -0.4339  1.0871 -0.0335
 6653TIP3    H241451   3.235   2.470  15.938 -0.0422  0.4591 -0.0149
 6654TIP3   OH241452   2.007   2.770   6.407  0.4041 -0.2126 -0.2510
 6654TIP3    H141453   2.002   2.855   6.451  0.2925 -0.4498  0.2010
 6654TIP3    H241454   2.099   2.760   6.383  0.2732  0.4033 -1.0441
 6655TIP3   OH241455   1.094   2.352   2.856  0.2828 -0.2644  0.1693
 6655TIP3    H141456   1.154   2.392   2.793  0.8087 -0.7801  0.3451
 6655TIP3    H241457   1.055   2.279   2.808 -0.4061  0.2192 -0.0297
 6656TIP3   OH241458   0.164   2.278   3.343 -0.6930 -0.0504 -0.3130
 6656TIP3    H141459   0.217   2.312   3.415 -0.6392  0.9441 -0.8126
 6656TIP3    H241460   0.192   2.329   3.267 -1.9016  0.0303 -0.7132
 6657TIP3   OH241461   0.904   3.164   4.660  0.3750 -0.5885 -0.6396
 6657TIP3    H141462   0.813   3.162   4.629  1.0096  0.8830 -2.6837
 6657TIP3    H241463   0.950   3.217   4.595  2.3499  0.1619  1.3351
 6658TIP3   OH241464   6.237   1.963  14.081 -0.1303 -0.3628  0.2518
 6658TIP3    H141465   6.199   2.041  14.121  0.1356 -0.1309  0.0541
 6658TIP3    H241466   6.219   1.973  13.987 -1.3353 -1.2275  0.3843
 6659TIP3   OH241467   2.005   1.645  16.536  0.8332  0.5480  0.4416
 6659TIP3    H141468   1.999   1.573  16.598  1.3065  0.3697  0.2843
 6659TIP3    H241469   2.096   1.644  16.506  0.1763 -0.5160 -1.6213
 6660TIP3   OH241470   3.139   2.154   1.873  0.1318 -0.5756 -0.3118
 6660TIP3    H141471   3.162   2.219   1.806 -0.1194  0.2727  0.4063
 6660TIP3    H241472   3.062   2.109   1.839  1.0852 -1.3998 -1.4046
 6661TIP3   OH241473   1.038   5.419  13.029  0.1422 -0.0681 -0.5219
 6661TIP3    H141474   0.980   5.364  13.081 -0.5988 -0.5882 -1.8853
 6661TIP3    H241475   1.095   5.461  13.094 -0.0413 -1.5339  0.6186
 6662TIP3   OH241476   5.276   1.521   5.150 -0.5013  0.2211  0.1474
 6662TIP3    H141477   5.252   1.607   5.115  1.1584  0.6291 -0.0195
 6662TIP3    H241478   5.225   1.459   5.097  0.7042  0.9257 -1.9184
 6663TIP3   OH241479   4.628   1.901  14.247  0.1881 -0.1999  0.3542
 6663TIP3    H141480   4.649   1.845  14.172 -0.4265  0.5066 -0.3569
 6663TIP3    H241481   4.711   1.911  14.293  0.5152 -0.8636 -0.0725
 6664TIP3   OH241482   4.194   2.686   0.587 -0.1111 -0.4182  0.3499
 6664TIP3    H141483   4.270   2.712   0.535 -0.1290  0.5593  0.7954
 6664TIP3    H241484   4.135   2.645   0.523  0.5090 -0.5964 -0.1155
 6665TIP3   OH241485   5.280   6.315   4.398  1.1493  0.2581  0.1365
 6665TIP3    H141486   5.302   6.241   4.341  1.2007  0.5148 -0.1828
 6665TIP3    H241487   5.314   6.291   4.484  0.9605 -0.1895  0.0862
 6666TIP3   OH241488   3.363   1.362  13.553  0.1068  0.0459  0.2872
 6666TIP3    H141489   3.362   1.418  13.631  0.6663 -2.1715  1.9405
 6666TIP3    H241490   3.428   1.402  13.495 -0.4011  1.7875  0.8958
 6667TIP3   OH241491   3.172   2.951   4.892 -0.2200 -0.1602  0.8543
 6667TIP3    H141492   3.166   2.970   4.799 -1.7535 -0.4166  0.8937
 6667TIP3    H241493   3.192   3.035   4.933 -2.4296  0.5078  0.5774
 6668TIP3   OH241494   3.682   6.066  11.843 -0.6240 -0.5173  0.0714
 6668TIP3    H141495   3.776   6.081  11.847 -0.8837  0.8546  1.9121
 6668TIP3    H241496   3.671   5.994  11.781  1.4129  1.0081 -2.1224
 6669TIP3   OH241497   5.109   1.295  12.241 -0.4853 -0.1894 -0.0232
 6669TIP3    H141498   5.203   1.306  12.228  0.1120 -2.2764  2.0222
 6669TIP3    H241499   5.094   1.201  12.229 -2.4078  0.1898 -0.8045
 6670TIP3   OH241500   3.103   3.251  13.653 -0.2114 -0.2146 -0.2666
 6670TIP3    H141501   3.012   3.273  13.634 -0.4163 -1.1446 -0.3558
 6670TIP3    H241502   3.140   3.227  13.569  0.5103  1.5373 -0.4709
 6671TIP3   OH241503   4.984   2.598  14.473 -0.1025 -0.3769 -0.5348
 6671TIP3    H141504   5.051   2.581  14.539 -1.0370 -1.5834  0.1217
 6671TIP3    H241505   5.027   2.654  14.409  1.5920 -1.2879 -0.2095
 6672TIP3   OH241506   1.746   4.169   1.739 -0.0350 -0.2025  0.2316
 6672TIP3    H141507   1.749   4.191   1.645 -0.4815 -0.9231  0.0441
 6672TIP3    H241508   1.667   4.115   1.748 -0.2265  0.2127  1.1014
 6673TIP3   OH241509   2.658   6.047  15.964 -0.3005 -0.0637  0.3481
 6673TIP3    H141510   2.725   6.110  15.938 -0.3974 -0.1878 -0.2191
 6673TIP3    H241511   2.604   6.035  15.885 -0.9332 -0.0296  0.7724
 6674TIP3   OH241512   4.642   0.784  14.748 -0.4419 -0.1191  0.1434
 6674TIP3    H141513   4.616   0.697  14.777  0.6495 -0.0359  1.4177
 6674TIP3    H241514   4.623   0.785  14.654 -1.5514 -1.3115  0.3383
 6675TIP3   OH241515   0.378   2.304   3.539  0.1207 -0.0640 -0.7718
 6675TIP3    H141516   0.448   2.294   3.474 -0.1873  0.8544 -1.2582
 6675TIP3    H241517   0.423   2.299   3.623  0.4149 -2.1575 -1.0094
 6676TIP3   OH241518   2.025   3.205  10.771  0.2586 -0.3568  0.2381
 6676TIP3    H141519   1.992   3.133  10.718 -0.2384  1.1022 -1.4975
 6676TIP3    H241520   2.118   3.211  10.748 -0.3115  1.3452 -1.8204
 6677TIP3   OH241521   5.398   3.764   0.031 -0.3900 -0.8098 -0.1760
 6677TIP3    H141522   5.446   3.812  -0.037 -1.6612 -0.3155 -0.7492
 6677TIP3    H241523   5.306   3.783   0.012 -0.7342  0.3000  2.3888
 6678TIP3   OH241524   4.639   3.038  15.274  0.3084 -0.0507  0.0621
 6678TIP3    H141525   4.648   2.953  15.317 -0.8326  0.1820  0.7616
 6678TIP3    H241526   4.547   3.042  15.248  0.6316  0.4637 -1.0501
 6679TIP3   OH241527   6.124   4.760  13.217 -0.1149  0.1307  0.0885
 6679TIP3    H141528   6.147   4.737  13.127  0.3185  1.4601 -0.1441
 6679TIP3    H241529   6.181   4.833  13.239 -0.6510  0.2162  1.2290
 6680TIP3   OH241530   4.452   2.798   0.679  0.0843 -0.1063 -0.3572
 6680TIP3    H141531   4.501   2.865   0.631  0.3348  1.5051  2.0640
 6680TIP3    H241532   4.361   2.809   0.650  0.0475  1.6132  0.3452
 6681TIP3   OH241533   1.686   3.761   2.652 -0.0259  0.1911  0.1389
 6681TIP3    H141534   1.719   3.774   2.563  1.8982  0.5088  0.8701
 6681TIP3    H241535   1.610   3.704   2.641 -0.5465  1.1943 -1.8180
 6682TIP3   OH241536   4.835   2.261   5.585 -0.2627 -0.5085  0.1426
 6682TIP3    H141537   4.758   2.221   5.626 -0.4830 -1.1432 -0.8715
 6682TIP3    H241538   4.904   2.196   5.595  0.0905 -0.0289  0.8554
 6683TIP3   OH241539   5.675   5.721  10.490  0.8653 -0.3993  0.3662
 6683TIP3    H141540   5.755   5.693  10.533  0.0263 -1.5018  1.2487
 6683TIP3    H241541   5.656   5.653  10.426 -0.4554 -1.2074  1.5825
 6684TIP3   OH241542   0.694   2.406  11.955 -1.0773 -0.3376  0.1365
 6684TIP3    H141543   0.670   2.334  12.014  1.1570 -0.8222  0.5263
 6684TIP3    H241544   0.778   2.378  11.918 -1.0443  1.3038 -1.0356
 6685TIP3   OH241545   6.313   0.125  10.417 -0.4954 -0.3396  1.1810
 6685TIP3    H141546   6.355   0.210  10.407 -2.3025  0.4088 -0.4874
 6685TIP3    H241547   6.357   0.068  10.354 -0.1757 -0.2752  1.3492
 6686TIP3   OH241548   2.024   5.966   2.801  0.0169 -0.3396  0.0593
 6686TIP3    H141549   2.085   5.893   2.805 -0.0185 -0.4732 -1.6239
 6686TIP3    H241550   1.992   5.976   2.891  2.2898 -0.4410  0.9112
 6687TIP3   OH241551   0.625   2.389  13.204  0.8271 -0.0132 -0.2016
 6687TIP3    H141552   0.610   2.369  13.297  1.2045  0.2702 -0.0794
 6687TIP3    H241553   0.583   2.474  13.191 -0.8459 -0.8851 -0.7372
 6688TIP3   OH241554   5.451   1.489  11.933  0.2466 -0.3884 -0.2328
 6688TIP3    H141555   5.505   1.566  11.917  0.4486 -0.4443  0.1842
 6688TIP3    H241556   5.394   1.483  11.856  0.4339  0.0050 -0.4009
 6689TIP3   OH241557   4.764   0.550  15.001 -0.3556 -0.8038 -0.0262
 6689TIP3    H141558   4.723   0.573  14.918 -1.1985  0.4158  0.7104
 6689TIP3    H241559   4.834   0.614  15.013 -0.3811 -0.8361  0.3118
 6690TIP3   OH241560   2.403   0.116  14.426 -0.0434 -0.0874 -0.0353
 6690TIP3    H141561   2.396   0.023  14.407  0.6450 -0.5306  1.7814
 6690TIP3    H241562   2.340   0.131  14.496  1.8617  0.2031  1.6744
 6691TIP3   OH241563   5.479   2.265   6.268 -0.0734 -0.9246 -0.1735
 6691TIP3    H141564   5.538   2.199   6.306 -1.7419 -1.1952  2.0516
 6691TIP3    H241565   5.502   2.346   6.312 -1.6742 -1.1342  1.0821
 6692TIP3   OH241566   3.941   3.440   4.657 -0.4043  0.0590 -0.4780
 6692TIP3    H141567   3.927   3.430   4.751 -0.3334  0.7679 -0.3899
 6692TIP3    H241568   4.015   3.381   4.638 -3.3131 -3.6606 -0.9438
 6693TIP3   OH241569   3.128   0.298  14.459  0.1133 -0.6328 -0.5562
 6693TIP3    H141570   3.141   0.204  14.441 -0.2758 -0.9422  0.6955
 6693TIP3    H241571   3.215   0.336  14.451  0.3599 -1.1992 -0.6074
 6694TIP3   OH241572   5.631   5.748   5.168 -0.1862  0.0030 -0.0320
 6694TIP3    H141573   5.681   5.705   5.237 -1.9286 -4.3211 -1.3078
 6694TIP3    H241574   5.578   5.813   5.215  0.9264 -0.7065  2.3076
 6695TIP3   OH241575   0.050   5.737  11.908  0.3152 -0.1902  0.9903
 6695TIP3    H141576   0.089   5.817  11.945  1.3432  0.1799 -0.8201
 6695TIP3    H241577  -0.043   5.757  11.899  0.5058  0.6700  0.9062
 6696TIP3   OH241578   5.037   0.090  12.555 -0.4683  0.0247 -0.1098
 6696TIP3    H141579   4.983   0.088  12.634 -1.3489  1.2043 -0.6579
 6696TIP3    H241580   4.977   0.067  12.485 -0.1207  0.7321 -0.6468
 6697TIP3   OH241581   3.976   4.491   1.972 -0.6297 -0.3050  0.3421
 6697TIP3    H141582   4.045   4.522   1.914  0.0458 -1.2599  0.6025
 6697TIP3    H241583   3.898   4.488   1.918 -0.7191  1.8436  0.3295
 6698TIP3   OH241584   1.207   3.594  12.077  0.1464  0.0677 -0.1733
 6698TIP3    H141585   1.150   3.579  12.001  1.4048  0.9057 -1.3129
 6698TIP3    H241586   1.277   3.650  12.043  0.2581  1.1640  1.8328
 6699TIP3   OH241587   3.801   0.463  10.778 -0.1232 -0.4731 -0.2120
 6699TIP3    H141588   3.710   0.438  10.761 -0.1017 -0.4474 -0.3708
 6699TIP3    H241589   3.829   0.405  10.848 -0.0733 -0.9019 -0.5809
 6700TIP3   OH241590   1.547   1.592   4.342 -0.4111  0.4294 -0.6477
 6700TIP3    H141591   1.595   1.633   4.414 -2.0363 -0.2113  0.8381
 6700TIP3    H241592   1.509   1.513   4.380 -0.4814 -0.4437 -2.4887
 6701TIP3   OH241593   0.927   0.645   2.282  0.3518  0.0251  0.4278
 6701TIP3    H141594   0.868   0.624   2.354  0.0138 -1.5180 -0.2891
 6701TIP3    H241595   0.896   0.730   2.250  0.4822  0.7100  2.0489
 6702TIP3   OH241596   5.952   4.447  13.888 -0.2225  0.0824  0.1265
 6702TIP3    H141597   5.889   4.512  13.855  0.2098 -0.4840 -1.8735
 6702TIP3    H241598   5.906   4.364  13.882  0.6084 -0.3033 -1.1144
 6703TIP3   OH241599   5.069   5.525   6.271  0.0209  0.1060 -0.1726
 6703TIP3    H141600   5.112   5.526   6.357 -0.4124 -0.0303  0.0463
 6703TIP3    H241601   5.067   5.617   6.244 -1.3250  0.3375  0.7033
 6704TIP3   OH241602   6.753   2.396  16.404  0.2618  0.1237 -0.8210
 6704TIP3    H141603   6.753   2.423  16.496  0.9172  1.4182 -1.1861
 6704TIP3    H241604   6.794   2.469  16.358  1.1004 -1.0668 -1.9941
 6705TIP3   OH241605   5.293   3.698   2.967  0.4255 -0.2815 -0.2999
 6705TIP3    H141606   5.228   3.694   3.037  2.1646 -0.8973  1.3270
 6705TIP3    H241607   5.247   3.736   2.893 -1.2118  1.2540  1.4670
 6706TIP3   OH241608   4.772   3.407   3.111  0.2747 -0.6046 -0.1469
 6706TIP3    H141609   4.798   3.413   3.203 -1.5049 -1.9219  0.4737
 6706TIP3    H241610   4.691   3.356   3.112  0.1842 -0.5749 -2.4476
 6707TIP3   OH241611   2.873   5.041   4.155 -0.0884 -0.0153 -0.0106
 6707TIP3    H141612   2.957   5.085   4.151 -0.2544  0.3361  0.3004
 6707TIP3    H241613   2.814   5.097   4.104 -0.8288  1.3563  2.2545
 6708TIP3   OH241614   4.968   0.928   4.751  0.2699  0.1550 -0.0524
 6708TIP3    H141615   4.911   0.999   4.722  1.3355  2.2029  2.6068
 6708TIP3    H241616   4.944   0.915   4.843  1.8160 -1.2455  0.1725
 6709TIP3   OH241617   2.057   2.584  10.859  0.0925 -0.1044 -0.3311
 6709TIP3    H141618   2.100   2.522  10.800  0.5816 -0.0315 -0.0522
 6709TIP3    H241619   2.070   2.670  10.818 -1.0556 -0.2459 -0.9963
 6710TIP3   OH241620   0.687   4.635   2.047  0.2811 -0.4696 -0.9278
 6710TIP3    H141621   0.660   4.694   2.117 -2.0695  0.8823 -2.8807
 6710TIP3    H241622   0.621   4.566   2.047 -0.4052  0.1732 -2.5468
 6711TIP3   OH241623   0.005   0.292   4.981 -0.2628  0.3433  0.1786
 6711TIP3    H141624  -0.077   0.311   4.935 -1.0499 -0.7534  1.1170
 6711TIP3    H241625   0.071   0.342   4.933 -0.9565 -1.2390 -2.5365
 6712TIP3   OH241626   0.662   1.564  16.003  0.0010  0.3450  0.1140
 6712TIP3    H141627   0.571   1.583  15.977 -0.5280 -0.5783  1.2694
 6712TIP3    H241628   0.715   1.620  15.946 -1.1573 -1.1378 -2.5644
 6713TIP3   OH241629   1.555   1.515   2.404  0.1334  0.7671 -0.0469
 6713TIP3    H141630   1.548   1.506   2.309 -1.5980  0.2945  0.0987
 6713TIP3    H241631   1.630   1.461   2.428 -0.5729 -0.6590 -0.9465
 6714TIP3   OH241632   1.896   4.694  12.225  0.3955 -0.9234  0.2684
 6714TIP3    H141633   1.822   4.691  12.165 -0.7556  2.3754  1.4065
 6714TIP3    H241634   1.856   4.696  12.312  1.8649 -0.6431  0.9616
 6715TIP3   OH241635   5.395   3.193   5.792 -0.5956 -0.1828  0.5201
 6715TIP3    H141636   5.408   3.277   5.749 -1.4385 -0.4476 -0.2677
 6715TIP3    H241637   5.325   3.208   5.855  1.7997  0.6541  3.1191
 6716TIP3   OH241638   0.268   5.134  12.928  0.0123 -0.1064  0.0837
 6716TIP3    H141639   0.266   5.157  12.835 -0.1072  2.8442  0.7503
 6716TIP3    H241640   0.182   5.163  12.961  0.1878 -0.8205  1.1783
 6717TIP3   OH241641   5.505   4.244   2.641 -0.4586  0.0961 -0.4434
 6717TIP3    H141642   5.571   4.299   2.599  1.3771 -1.3378  0.4378
 6717TIP3    H241643   5.544   4.156   2.641 -2.0944 -0.6607  0.6931
 6718TIP3   OH241644   1.765   3.774   3.360 -0.2283 -0.1495 -0.1629
 6718TIP3    H141645   1.793   3.811   3.276 -0.2074 -0.2320 -0.1923
 6718TIP3    H241646   1.670   3.777   3.358 -0.3012 -2.2983 -1.1552
 6719TIP3   OH241647   2.221   6.413  14.035  0.0720  0.3908  0.4039
 6719TIP3    H141648   2.210   6.484  13.972  1.5176  1.0229  0.8446
 6719TIP3    H241649   2.159   6.346  14.007  1.0466  0.4406 -2.0010
 6720TIP3   OH241650   6.730   0.942   4.876 -0.0674 -0.6133 -0.2664
 6720TIP3    H141651   6.810   0.995   4.870 -1.4595  1.6109  0.0653
 6720TIP3    H241652   6.720   0.923   4.969  0.5400 -1.6474 -0.4089
 6721TIP3   OH241653   3.492   6.489   5.118 -0.4216 -0.6382  0.1585
 6721TIP3    H141654   3.466   6.406   5.079 -1.0131  0.0479 -0.9292
 6721TIP3    H241655   3.417   6.546   5.105 -0.6846 -0.4411  2.4793
 6722TIP3   OH241656   5.592   5.722  13.778 -0.1226 -0.7382 -0.2357
 6722TIP3    H141657   5.656   5.669  13.824  0.2438 -0.5400 -0.5115
 6722TIP3    H241658   5.634   5.744  13.695  0.1822  0.8939  0.3203
 6723TIP3   OH241659   2.784   0.836   5.771 -0.4791 -0.5276  0.0327
 6723TIP3    H141660   2.840   0.902   5.729 -0.7874 -1.3606 -1.7240
 6723TIP3    H241661   2.699   0.881   5.781 -0.1410 -0.0164  0.6090
 6724TIP3   OH241662   2.761   1.796  14.263  0.3358  0.0336  1.0746
 6724TIP3    H141663   2.847   1.800  14.305  0.8187 -0.4511  0.1430
 6724TIP3    H241664   2.740   1.703  14.260  0.5589  0.0111 -0.2530
 6725TIP3   OH241665   3.972   1.709   0.904  0.1276 -0.4462  0.2221
 6725TIP3    H141666   3.909   1.664   0.960  1.4958 -1.5986  0.8777
 6725TIP3    H241667   3.984   1.794   0.945  1.6233 -1.5289  2.0931
 6726TIP3   OH241668   4.585   1.078   5.606  0.0497 -0.2894  0.2706
 6726TIP3    H141669   4.638   1.049   5.681  0.9646 -2.7929 -1.2817
 6726TIP3    H241670   4.495   1.069   5.636  0.4174  1.4706  2.0279
 6727TIP3   OH241671   5.240   3.592  12.733 -0.1287 -0.4526  0.7905
 6727TIP3    H141672   5.316   3.535  12.731 -0.6224 -1.1002  0.0282
 6727TIP3    H241673   5.262   3.665  12.675  0.0594 -0.4536  0.8635
 6728TIP3   OH241674   1.302   5.993  14.804 -0.0279  0.6190  0.2520
 6728TIP3    H141675   1.347   5.909  14.803 -1.4437 -0.1531 -0.4264
 6728TIP3    H241676   1.349   6.047  14.740  0.0430 -0.1338 -0.3403
 6729TIP3   OH241677   5.432   0.596   0.823 -0.0041  0.2483  0.4300
 6729TIP3    H141678   5.515   0.643   0.835 -1.2177  1.5822  3.9844
 6729TIP3    H241679   5.450   0.508   0.856  0.6202 -0.1799 -0.9832
 6730TIP3   OH241680   1.679   3.413  14.434 -0.5148 -0.5215 -0.6371
 6730TIP3    H141681   1.755   3.469  14.447 -1.0012 -0.0103  0.0427
 6730TIP3    H241682   1.617   3.467  14.385 -0.3004 -1.0623 -1.5137
 6731TIP3   OH241683   1.160   1.432   4.538  0.2972  0.5511  0.2454
 6731TIP3    H141684   1.173   1.503   4.476  0.3909  0.7331  0.4736
 6731TIP3    H241685   1.157   1.353   4.484 -0.2389  0.7677 -0.0499
 6732TIP3   OH241686   5.911   6.412   6.660 -0.2377 -0.4577 -0.0696
 6732TIP3    H141687   5.981   6.357   6.694  0.8393 -0.6826 -2.5002
 6732TIP3    H241688   5.857   6.353   6.607  0.4917  0.6142 -2.0729
 6733TIP3   OH241689   6.708   6.792   2.316  0.0754 -0.3042  0.3591
 6733TIP3    H141690   6.676   6.730   2.251 -0.8786  0.2352  0.2955
 6733TIP3    H241691   6.764   6.852   2.267 -1.5313  0.7692 -0.1935
 6734TIP3   OH241692   4.464   4.299  17.074 -0.4789 -0.1572  0.3665
 6734TIP3    H141693   4.486   4.295  16.981 -0.9712  1.4177  0.1809
 6734TIP3    H241694   4.544   4.331  17.116 -0.5774  0.0885  0.3660
 6735TIP3   OH241695   2.027   1.703   2.644  0.4372  0.4703  0.5999
 6735TIP3    H141696   1.974   1.625   2.658  2.5633 -0.9864  0.7452
 6735TIP3    H241697   2.027   1.716   2.550  0.1796  0.2073  0.5644
 6736TIP3   OH241698   0.470   4.867   2.569 -0.1834  0.4176  0.8048
 6736TIP3    H141699   0.553   4.911   2.587 -0.3114  0.7259  0.6455
 6736TIP3    H241700   0.451   4.888   2.478  0.2573 -0.8040  0.4212
 6737TIP3   OH241701   1.297   4.702  12.330 -0.0921  0.5073 -0.0494
 6737TIP3    H141702   1.377   4.670  12.372  0.5920  1.1316 -0.8491
 6737TIP3    H241703   1.317   4.699  12.236 -1.1722  0.2423 -0.2736
 6738TIP3   OH241704   3.384   0.200   0.803 -0.0145 -0.2306  0.0065
 6738TIP3    H141705   3.414   0.291   0.812  0.0241 -0.0342 -1.9088
 6738TIP3    H241706   3.445   0.150   0.858  1.3341  0.6425 -0.6702
 6739TIP3   OH241707   0.854   5.807  13.444 -0.5304 -0.1067  0.4693
 6739TIP3    H141708   0.911   5.753  13.390  0.6691  1.0806  0.5231
 6739TIP3    H241709   0.861   5.895  13.406 -2.3702  0.0466  0.4388
 6740TIP3   OH241710   4.048   0.450  11.812  0.4443 -0.2027  0.2011
 6740TIP3    H141711   3.996   0.376  11.780 -0.1634  0.7474 -1.0443
 6740TIP3    H241712   3.984   0.511  11.848  0.6094  1.1249 -1.6434
 6741TIP3   OH241713   0.544   4.205   4.255  0.3462  0.0202  0.6058
 6741TIP3    H141714   0.541   4.256   4.336 -3.2583 -0.0305  0.6028
 6741TIP3    H241715   0.541   4.271   4.185 -0.0030 -0.0455  0.5580
 6742TIP3   OH241716   6.147   1.156   0.442  0.4409 -0.0999  0.1786
 6742TIP3    H141717   6.117   1.065   0.442 -1.0248  0.3602 -1.4625
 6742TIP3    H241718   6.112   1.193   0.523  0.4547 -0.7989  0.5070
 6743TIP3   OH241719   0.096   2.150   1.954 -0.3868 -0.5106 -0.0187
 6743TIP3    H141720   0.179   2.195   1.938 -1.4247  1.0621 -1.0898
 6743TIP3    H241721   0.034   2.189   1.892 -1.8206 -2.0187  0.4029
 6744TIP3   OH241722   1.556   3.783  17.247 -0.0543 -1.1848  0.2933
 6744TIP3    H141723   1.651   3.789  17.258 -0.2830  0.3213  1.7150
 6744TIP3    H241724   1.532   3.864  17.202 -0.5891 -1.8451 -0.6075
 6745TIP3   OH241725   5.734   4.688   5.544 -0.1649  0.0542 -0.4819
 6745TIP3    H141726   5.815   4.731   5.571  0.4757 -2.0516  1.1524
 6745TIP3    H241727   5.667   4.756   5.551  0.7486  0.7498  2.3795
 6746TIP3   OH241728   5.779   0.463   3.803 -0.0232 -0.3281  0.2025
 6746TIP3    H141729   5.837   0.468   3.727 -1.0773 -1.5812 -0.7141
 6746TIP3    H241730   5.752   0.553   3.820  1.5147  0.1619  0.1287
 6747TIP3   OH241731   5.085   1.587  16.611  0.6528  0.3733  0.0488
 6747TIP3    H141732   5.041   1.502  16.619 -0.6469  1.2536  3.1384
 6747TIP3    H241733   5.172   1.571  16.647  1.0244 -0.0791 -1.0445
 6748TIP3   OH241734   6.230   1.400  13.067  0.1287  0.1812  0.0036
 6748TIP3    H141735   6.228   1.404  13.162 -0.6636 -2.6516  0.1626
 6748TIP3    H241736   6.143   1.371  13.042  0.9258 -1.0932 -1.4203
 6749TIP3   OH241737   4.115   2.439   2.261  0.4731  0.2178 -0.5025
 6749TIP3    H141738   4.101   2.357   2.213  1.0205  0.4373 -1.0309
 6749TIP3    H241739   4.118   2.411   2.353 -0.4403 -0.2129 -0.5946
 6750TIP3   OH241740   6.097   0.416  13.526  0.2735  0.1905 -0.7538
 6750TIP3    H141741   6.175   0.373  13.492  0.9609  1.0602 -0.3057
 6750TIP3    H241742   6.121   0.509  13.529 -0.8551  0.4872 -0.8207
 6751TIP3   OH241743   0.196   2.094  13.907 -0.4889 -0.4635 -0.4066
 6751TIP3    H141744   0.270   2.115  13.851 -0.1880 -0.2892  0.0550
 6751TIP3    H241745   0.121   2.135  13.864 -0.6485 -2.2443 -1.8880
 6752TIP3   OH241746   4.707   4.445  16.410 -0.1242 -0.2717 -0.2829
 6752TIP3    H141747   4.620   4.484  16.409  0.1739  0.4472  0.5302
 6752TIP3    H241748   4.734   4.444  16.318  0.0736  1.9669 -0.2823
 6753TIP3   OH241749   0.126   1.556   1.029  0.6302  0.2340 -0.8156
 6753TIP3    H141750   0.118   1.548   0.934  0.9409  0.0525 -0.8269
 6753TIP3    H241751   0.199   1.616   1.042 -0.7613  1.9580 -0.7141
 6754TIP3   OH241752   1.034   3.438   1.572  0.0635 -0.6857 -0.0180
 6754TIP3    H141753   1.106   3.412   1.629  1.3811  2.9422  0.0830
 6754TIP3    H241754   0.961   3.455   1.631  0.9894  1.6392  0.4853
 6755TIP3   OH241755   3.368   2.410  12.185 -0.1286 -0.4823  0.1407
 6755TIP3    H141756   3.354   2.457  12.267  1.5929  1.5471 -0.7005
 6755TIP3    H241757   3.400   2.476  12.124  1.4469 -2.5452 -1.3460
 6756TIP3   OH241758   0.581   1.950  12.946  0.1293 -0.3680 -0.5086
 6756TIP3    H141759   0.491   1.980  12.960 -0.3552 -2.5664  1.4411
 6756TIP3    H241760   0.635   2.027  12.965 -1.2307  0.2624  0.9721
 6757TIP3   OH241761   3.259   2.669   2.230  0.4294 -0.2507  0.2853
 6757TIP3    H141762   3.208   2.674   2.311  0.4741 -1.0997  0.3773
 6757TIP3    H241763   3.333   2.612   2.253 -0.5166 -1.9795 -0.8424
 6758TIP3   OH241764   6.108   0.173   4.914  0.2200 -0.2635  0.1484
 6758TIP3    H141765   6.072   0.085   4.916  2.1276 -1.0859 -0.8073
 6758TIP3    H241766   6.080   0.210   4.830  0.2502 -0.3149  0.1165
 6759TIP3   OH241767   3.628   1.334  17.066  0.0737  0.4798 -0.1202
 6759TIP3    H141768   3.691   1.285  17.012  0.8375 -0.0917  1.2784
 6759TIP3    H241769   3.659   1.425  17.061  0.4210  0.3569 -0.2596
 6760TIP3   OH241770   6.681   5.556  12.197 -0.6458  0.1311  0.7544
 6760TIP3    H141771   6.697   5.462  12.198 -0.1647  0.2129  0.9158
 6760TIP3    H241772   6.756   5.594  12.242 -0.1224  0.7065 -0.5672
 6761TIP3   OH241773   3.327   6.762  11.956 -0.0656 -0.2659  0.1178
 6761TIP3    H141774   3.314   6.782  12.049 -0.2311  0.4578 -0.0538
 6761TIP3    H241775   3.251   6.710  11.931 -0.4753  0.3086  0.1678
 6762TIP3   OH241776   3.737   0.638  13.486 -0.3364 -0.3117  0.3252
 6762TIP3    H141777   3.725   0.694  13.410  1.2739  2.1366  1.7878
 6762TIP3    H241778   3.648   0.619  13.516 -0.9364  0.1440 -1.1420
 6763TIP3   OH241779   0.539   3.128  14.876 -0.1030 -0.4459 -0.2350
 6763TIP3    H141780   0.611   3.188  14.856 -1.7853  1.0859 -1.8563
 6763TIP3    H241781   0.581   3.042  14.883  1.9166  0.4475 -0.9275
 6764TIP3   OH241782   6.200   3.018   2.038  0.3201 -0.4238 -0.4147
 6764TIP3    H141783   6.281   3.059   2.007  0.8947 -0.0348  1.5228
 6764TIP3    H241784   6.226   2.973   2.119 -1.2867 -0.7804 -0.0893
 6765TIP3   OH241785   4.262   4.850  13.721 -0.5853  0.2905 -0.8740
 6765TIP3    H141786   4.289   4.787  13.788 -2.3820 -2.5517 -2.7430
 6765TIP3    H241787   4.330   4.847  13.655  0.6976  2.3861  0.2902
 6766TIP3   OH241788   4.113   4.053  13.439 -0.2026 -0.3032 -0.1415
 6766TIP3    H141789   4.191   4.012  13.401 -0.6409 -0.1988 -1.1779
 6766TIP3    H241790   4.117   4.144  13.409  0.1363  0.1177  1.1564
 6767TIP3   OH241791   1.406   5.627  14.215 -0.0539 -0.4564  0.1085
 6767TIP3    H141792   1.488   5.620  14.264 -0.1867 -1.4730  0.1756
 6767TIP3    H241793   1.431   5.673  14.135  0.7765 -1.6159 -0.3094
 6768TIP3   OH241794   4.149   3.475  15.292 -0.1357  0.9211  0.1041
 6768TIP3    H141795   4.100   3.551  15.260 -1.2954  0.0819 -0.1388
 6768TIP3    H241796   4.227   3.513  15.334 -0.7986  2.2558  0.1620
 6769TIP3   OH241797   0.080   5.781  15.275  0.0594  0.2669  0.0234
 6769TIP3    H141798   0.084   5.843  15.202 -0.4378  0.0564 -0.1837
 6769TIP3    H241799  -0.003   5.735  15.263  0.5910 -0.6976 -0.0345
 6770TIP3   OH241800   1.818   4.272   2.445  0.1114  0.1918 -0.1485
 6770TIP3    H141801   1.781   4.299   2.530  0.4214 -1.0673  0.4026
 6770TIP3    H241802   1.913   4.276   2.458  0.1659  0.9059 -0.7417
 6771TIP3   OH241803   4.157   2.280  13.077  0.2243  0.1464  0.0053
 6771TIP3    H141804   4.067   2.300  13.052  0.2148 -0.7121 -0.6526
 6771TIP3    H241805   4.208   2.356  13.047 -0.4758  1.3128  1.6900
 6772TIP3   OH241806   6.776   0.764  15.221 -0.7263 -0.0293 -0.6033
 6772TIP3    H141807   6.752   0.855  15.239 -1.3202 -0.2659 -0.1865
 6772TIP3    H241808   6.697   0.714  15.239 -0.7294 -0.5128 -1.8729
 6773TIP3   OH241809   0.363   5.821   2.232  0.4258 -0.4544  0.0078
 6773TIP3    H141810   0.420   5.876   2.286  0.3749 -1.3163  0.9740
 6773TIP3    H241811   0.423   5.767   2.181  0.4810 -0.4412  0.0588
 6774TIP3   OH241812   6.668   2.463   3.026  0.0542 -0.2696  0.1011
 6774TIP3    H141813   6.703   2.540   2.981  1.6129 -0.3324  1.1556
 6774TIP3    H241814   6.645   2.495   3.113  0.0929 -0.8596  0.3263
 6775TIP3   OH241815   5.603   0.291  16.956  0.9457  0.6451  0.7234
 6775TIP3    H141816   5.687   0.246  16.943  0.6090 -0.1157  1.0948
 6775TIP3    H241817   5.597   0.301  17.051  1.2030  1.8540  0.6132
 6776TIP3   OH241818   0.117   6.364   0.173 -0.1121 -0.0607 -0.3319
 6776TIP3    H141819   0.151   6.278   0.199  0.5639 -0.2100 -1.6887
 6776TIP3    H241820   0.049   6.345   0.109  1.1465  0.4613 -1.8572
 6777TIP3   OH241821   4.597   3.416  14.361  0.2209  0.3667 -0.2709
 6777TIP3    H141822   4.529   3.461  14.412 -0.1936  1.4024 -1.7104
 6777TIP3    H241823   4.549   3.362  14.299  0.6956  1.3192 -1.4806
 6778TIP3   OH241824   1.842   1.841  12.352 -0.6128 -0.7249  0.4054
 6778TIP3    H141825   1.776   1.781  12.319 -0.7814 -0.8383  0.9484
 6778TIP3    H241826   1.840   1.915  12.291 -2.7639  0.2772  1.6326
 6779TIP3   OH241827   6.807   5.859  10.938 -0.5991  0.6913  0.3433
 6779TIP3    H141828   6.819   5.954  10.929 -1.3874  0.6951 -0.7723
 6779TIP3    H241829   6.866   5.821  10.874 -0.9304  0.4547  0.1788
 6780TIP3   OH241830   6.375   2.136   1.020 -0.4680 -0.6974 -0.7416
 6780TIP3    H141831   6.422   2.098   0.945  0.1494  1.1605 -1.3220
 6780TIP3    H241832   6.344   2.060   1.070  2.1480 -1.9820 -0.9869
 6781TIP3   OH241833   1.254   3.796  13.939 -0.0021 -0.3355  0.0812
 6781TIP3    H141834   1.256   3.867  13.875  0.2123  0.3689  0.8542
 6781TIP3    H241835   1.218   3.721  13.891  2.7398 -0.6270 -1.6698
 6782TIP3   OH241836   2.270   0.856   0.290 -0.1794 -0.5302  0.0035
 6782TIP3    H141837   2.301   0.852   0.199 -0.2430 -1.3852  0.0188
 6782TIP3    H241838   2.184   0.897   0.285 -0.0139 -0.2095 -0.2742
 6783TIP3   OH241839   2.317   0.274  16.074 -0.0776 -0.7468 -0.1754
 6783TIP3    H141840   2.267   0.356  16.078  0.9485 -0.0826 -0.7948
 6783TIP3    H241841   2.295   0.237  15.988  0.2100 -0.6344 -0.2979
 6784TIP3   OH241842   0.959   4.203  12.822 -0.1723  0.4210 -0.0821
 6784TIP3    H141843   0.971   4.196  12.916 -0.5453  0.3269 -0.0418
 6784TIP3    H241844   1.013   4.132  12.786 -0.6610 -0.0553  0.1063
 6785TIP3   OH241845   4.609   0.685   3.089  0.6357  0.1523  0.8301
 6785TIP3    H141846   4.582   0.612   3.144 -0.6831  0.7592  0.9968
 6785TIP3    H241847   4.624   0.645   3.003  0.8574 -0.4707  1.1506
 6786TIP3   OH241848   4.453   5.023   2.631  0.4476 -0.0211 -0.1772
 6786TIP3    H141849   4.473   4.984   2.547  1.4477 -0.2041  0.1392
 6786TIP3    H241850   4.370   5.069   2.617 -0.0422 -1.1002 -0.9114
 6787TIP3   OH241851   4.567   6.220  12.429 -0.2302  0.4779 -0.9358
 6787TIP3    H141852   4.476   6.245  12.440 -0.4668 -1.4294  1.9774
 6787TIP3    H241853   4.564   6.143  12.371 -0.4761  0.5266 -0.9860
 6788TIP3   OH241854   3.472   0.518   5.524  0.6030 -0.3791  0.0438
 6788TIP3    H141855   3.491   0.430   5.554  0.6463  0.2055  1.8130
 6788TIP3    H241856   3.444   0.507   5.433  1.5454 -2.0889 -0.0604
 6789TIP3   OH241857   0.831   3.339   3.450  0.5635 -0.4301  0.2368
 6789TIP3    H141858   0.924   3.324   3.433  1.3782  2.0941  2.1128
 6789TIP3    H241859   0.803   3.262   3.500  1.3214 -1.7566 -1.3364
 6790TIP3   OH241860   3.396   2.380  15.021 -0.2825 -0.1874 -0.0731
 6790TIP3    H141861   3.308   2.360  15.052 -0.3983  0.4512  0.0147
 6790TIP3    H241862   3.449   2.306  15.050 -0.2725  0.6715  2.1852
 6791TIP3   OH241863   1.860   3.038  14.983  0.1461  0.3995  0.1504
 6791TIP3    H141864   1.787   3.011  15.039 -0.0855  0.8594  0.0739
 6791TIP3    H241865   1.936   2.990  15.017 -0.1365  0.1350  0.4071
 6792TIP3   OH241866   3.444   4.647  14.433  0.1774 -0.0823 -0.3281
 6792TIP3    H141867   3.398   4.569  14.402  1.5720 -0.5143 -1.3689
 6792TIP3    H241868   3.392   4.720  14.401 -1.2154 -0.5782  0.7688
 6793TIP3   OH241869   5.443   6.063  15.124  0.3153  0.2234 -0.3325
 6793TIP3    H141870   5.406   5.975  15.128  0.0830  0.2776 -1.2366
 6793TIP3    H241871   5.394   6.107  15.055  1.6620  0.4817 -1.1483
 6794TIP3   OH241872   4.337   0.877  11.925  0.0435 -0.1559  0.2369
 6794TIP3    H141873   4.374   0.920  11.848 -0.5840 -1.9476 -1.0997
 6794TIP3    H241874   4.372   0.788  11.922 -0.3336 -0.3698  1.7937
 6795TIP3   OH241875   3.149   4.937   4.877  0.3838  0.0170 -0.5157
 6795TIP3    H141876   3.184   4.874   4.940  0.4378  0.1211 -0.4422
 6795TIP3    H241877   3.129   5.015   4.929  0.6626  0.1912 -0.6687
 6796TIP3   OH241878   4.512   1.808   3.347  0.0955 -0.5049  0.1119
 6796TIP3    H141879   4.423   1.804   3.383 -0.2841  1.1216 -0.5791
 6796TIP3    H241880   4.564   1.845   3.419 -0.0696 -0.1143  0.0328
 6797TIP3   OH241881   6.441   4.743  16.058  0.3768 -0.3708 -0.3541
 6797TIP3    H141882   6.507   4.675  16.050  0.3125 -0.6182  1.0438
 6797TIP3    H241883   6.418   4.744  16.151 -0.0939  1.1178 -0.4613
 6798TIP3   OH241884   0.551   2.056  10.763  0.1566 -0.1413  0.0671
 6798TIP3    H141885   0.559   1.991  10.693  0.5895 -1.3822  1.2320
 6798TIP3    H241886   0.507   2.009  10.834  0.7257  0.7496  1.0289
 6799TIP3   OH241887   4.486   0.370   4.313  0.6044  0.7013  0.4419
 6799TIP3    H141888   4.460   0.399   4.225  0.6727 -0.6095 -0.0301
 6799TIP3    H241889   4.404   0.341   4.353  0.8181 -0.3454  0.1536
 6800TIP3   OH241890   2.982   5.714  14.333  0.0218 -0.6950  0.6839
 6800TIP3    H141891   2.956   5.622  14.325 -1.3806 -0.3543  1.2142
 6800TIP3    H241892   2.900   5.762  14.335  0.7313  0.5022  1.3455
 6801TIP3   OH241893   6.779   4.550  14.210 -0.2035 -0.2207 -0.6921
 6801TIP3    H141894   6.753   4.638  14.180 -1.1072  0.1813  1.1772
 6801TIP3    H241895   6.873   4.547  14.195 -0.1330  1.1378 -0.6217
 6802TIP3   OH241896   3.580   1.753   4.488 -0.6102 -0.6990  0.0493
 6802TIP3    H141897   3.606   1.839   4.458 -0.0459 -0.1989  1.8644
 6802TIP3    H241898   3.485   1.756   4.492 -0.5125  0.8286  2.7515
 6803TIP3   OH241899   2.326   2.746   6.644  0.5522 -0.3893 -0.7555
 6803TIP3    H141900   2.307   2.667   6.695  0.4783 -0.2561 -0.5725
 6803TIP3    H241901   2.353   2.714   6.558  0.1119 -0.6050 -0.8184
 6804TIP3   OH241902   4.129   6.159  16.717 -0.0280  0.3250 -0.2652
 6804TIP3    H141903   4.080   6.227  16.763 -0.1880 -0.7572  1.2239
 6804TIP3    H241904   4.078   6.143  16.637 -1.6796 -0.1993  0.8674
 6805TIP3   OH241905   3.951   6.004   0.267  0.2204  0.6644  0.1969
 6805TIP3    H141906   4.018   5.986   0.201 -0.6360  0.4495 -0.6161
 6805TIP3    H241907   3.890   6.064   0.225 -1.3668 -0.9321  0.1123
 6806TIP3   OH241908   5.416   5.805   6.012 -0.1661  0.1847 -0.2987
 6806TIP3    H141909   5.441   5.730   5.959 -1.2141 -0.1085 -0.3895
 6806TIP3    H241910   5.320   5.803   6.014 -0.1616  0.6031  1.0052
 6807TIP3   OH241911   5.286   0.903  12.390  0.0226 -0.2015 -0.5445
 6807TIP3    H141912   5.303   0.830  12.330  1.9477  0.3016 -0.6278
 6807TIP3    H241913   5.335   0.881  12.469  1.6162  1.5690 -1.0108
 6808TIP3   OH241914   0.406   0.655  12.387 -0.0382  0.3822 -0.0219
 6808TIP3    H141915   0.396   0.743  12.423 -0.7627  0.5255 -0.5632
 6808TIP3    H241916   0.482   0.619  12.432  0.7521  1.5756 -0.3688
 6809TIP3   OH241917   4.571   1.924  15.103  0.5757 -0.0865 -0.2831
 6809TIP3    H141918   4.532   1.923  15.190 -0.8193 -0.3894 -0.9053
 6809TIP3    H241919   4.590   2.017  15.087 -0.6066  0.1612 -0.2867
 6810TIP3   OH241920   4.924   5.941   2.327 -0.7940  0.0654 -0.0681
 6810TIP3    H141921   4.930   5.848   2.349  0.1719 -0.0326 -0.7080
 6810TIP3    H241922   4.832   5.963   2.342 -1.0092 -0.9669  0.1988
 6811TIP3   OH241923   4.599   4.971  14.055  0.2062 -0.3167  0.1387
 6811TIP3    H141924   4.658   4.998  14.125  0.3506 -0.1691 -0.0417
 6811TIP3    H241925   4.611   4.876  14.050 -0.1748 -0.3953  0.6540
 6812TIP3   OH241926   4.349   4.758  11.056  0.4593 -0.0832  0.3057
 6812TIP3    H141927   4.419   4.695  11.071  0.5851  0.0850  0.4220
 6812TIP3    H241928   4.275   4.705  11.026  1.1489 -0.0804 -1.4704
 6813TIP3   OH241929   2.656   4.804  16.554 -0.0066  0.0045 -0.0745
 6813TIP3    H141930   2.721   4.775  16.618  0.3241  1.3572  0.2232
 6813TIP3    H241931   2.598   4.728  16.543  1.1238 -0.9282  0.2887
 6814TIP3   OH241932   0.111   1.808  13.883 -0.2895  0.0373 -0.2616
 6814TIP3    H141933   0.036   1.817  13.824 -0.0268 -1.4550 -0.8534
 6814TIP3    H241934   0.130   1.897  13.912 -2.2058  0.4476 -0.2066
 6815TIP3   OH241935   0.737   1.588  12.031  0.3299 -0.5324  0.2963
 6815TIP3    H141936   0.646   1.575  12.006  0.1269  0.3947  0.5399
 6815TIP3    H241937   0.781   1.614  11.950  0.3384 -0.7961  0.2168
 6816TIP3   OH241938   0.738   6.423  16.160  0.1214  0.4648  0.1386
 6816TIP3    H141939   0.819   6.372  16.165 -0.4750 -0.5295 -0.2969
 6816TIP3    H241940   0.742   6.467  16.075  0.5945  1.1007  0.4805
 6817TIP3   OH241941   2.471   0.378   6.343  0.4035 -0.5293  0.2942
 6817TIP3    H141942   2.387   0.418   6.322  0.4132  0.1055  1.4403
 6817TIP3    H241943   2.535   0.448   6.332  0.7032 -0.8333  0.0898
 6818TIP3   OH241944   5.680   6.384   0.285 -0.1537 -0.1478 -0.0117
 6818TIP3    H141945   5.607   6.374   0.223  0.0237  1.2177 -0.4457
 6818TIP3    H241946   5.758   6.391   0.230 -0.3316  4.5456  0.1408
 6819TIP3   OH241947   4.970   5.256   1.070 -0.8639 -0.1235  0.1884
 6819TIP3    H141948   4.984   5.322   1.002  1.2894 -1.7433 -1.0234
 6819TIP3    H241949   4.905   5.196   1.031  0.2175 -0.9380 -0.4066
 6820TIP3   OH241950   6.404   3.901  14.877 -0.0019 -0.0571 -0.3383
 6820TIP3    H141951   6.324   3.954  14.879 -0.3579 -0.5627 -0.8905
 6820TIP3    H241952   6.384   3.828  14.935  0.0961 -0.1325 -0.4016
 6821TIP3   OH241953   2.552   1.583  10.953 -0.1430 -0.6007  0.3002
 6821TIP3    H141954   2.623   1.588  11.018  0.2369  0.0400 -0.1652
 6821TIP3    H241955   2.472   1.596  11.004  0.2586  1.7400  0.3870
 6822TIP3   OH241956   2.215   3.287  11.337 -0.3106  0.0051  0.1957
 6822TIP3    H141957   2.269   3.283  11.416 -1.5000  0.6211  1.0562
 6822TIP3    H241958   2.191   3.196  11.320 -1.9924  0.0821  1.9307
 6823TIP3   OH241959   3.972   3.910  15.412  0.0805 -0.2483 -0.1886
 6823TIP3    H141960   3.964   3.998  15.449 -1.8247 -0.6928  0.5279
 6823TIP3    H241961   3.929   3.915  15.327 -1.5397 -0.8939  0.5809
 6824TIP3   OH241962   4.873   6.312  14.709  0.0361 -0.1982  0.2967
 6824TIP3    H141963   4.877   6.361  14.792 -2.4324  1.6494 -0.6080
 6824TIP3    H241964   4.922   6.367  14.647 -0.5977 -0.1289 -0.1416
 6825TIP3   OH241965   6.319   6.310   2.080 -0.3687  0.1742 -0.2076
 6825TIP3    H141966   6.291   6.255   2.007  0.4170 -0.3126 -0.1524
 6825TIP3    H241967   6.406   6.341   2.054  0.0902 -0.3350  0.6954
 6826TIP3   OH241968   2.012   5.231  12.315  0.2292  0.0616  0.2084
 6826TIP3    H141969   2.076   5.263  12.379 -0.1100 -2.2011  1.7577
 6826TIP3    H241970   2.060   5.225  12.233  1.5113  0.1787  0.9330
 6827TIP3   OH241971   1.654   2.246  14.765 -0.0470  0.4745  0.1199
 6827TIP3    H141972   1.584   2.261  14.701 -0.0630  1.6302  0.3890
 6827TIP3    H241973   1.695   2.164  14.737  0.5331  1.4308 -1.9398
 6828TIP3   OH241974   2.804   5.591  14.004 -0.5885  0.5750  0.0222
 6828TIP3    H141975   2.798   5.673  14.052 -0.9799  0.3296  0.3934
 6828TIP3    H241976   2.725   5.588  13.951 -1.7246 -0.6386  1.7317
 6829TIP3   OH241977   5.310   5.475   1.262 -0.1633  0.1510  0.5450
 6829TIP3    H141978   5.234   5.532   1.274 -1.0652 -0.8033 -0.5206
 6829TIP3    H241979   5.272   5.390   1.238  1.2316 -0.3596  0.1293
 6830TIP3   OH241980   1.163   1.585  17.185 -0.0335 -0.0017 -0.0857
 6830TIP3    H141981   1.180   1.677  17.203  1.0255 -0.5662  1.9984
 6830TIP3    H241982   1.214   1.566  17.106  2.2227  0.4582  1.2033
 6831TIP3   OH241983   2.914   3.937  12.453 -0.4933  0.0346  0.0237
 6831TIP3    H141984   2.852   3.975  12.515 -2.0524 -0.8847 -0.9425
 6831TIP3    H241985   2.863   3.872  12.404  1.8699 -2.6662  1.0212
 6832TIP3   OH241986   2.358   4.701   0.026 -0.1946  0.4963 -0.1688
 6832TIP3    H141987   2.273   4.734  -0.004 -0.1719  1.3705  0.7203
 6832TIP3    H241988   2.420   4.727  -0.042 -0.0723  2.8358  0.7993
 6833TIP3   OH241989   2.609   0.440  13.335  0.6364  0.0331  0.6900
 6833TIP3    H141990   2.554   0.376  13.380  1.7140 -1.1352  0.3660
 6833TIP3    H241991   2.682   0.389  13.301  0.7412  1.1931 -0.8731
 6834TIP3   OH241992   2.366   3.521   2.157  0.0957 -0.1092  0.0724
 6834TIP3    H141993   2.375   3.426   2.149  0.1988 -0.1695  0.9014
 6834TIP3    H241994   2.396   3.555   2.073  0.5399 -0.7800 -0.0387
 6835TIP3   OH241995   0.556   6.190  14.731 -0.4636  0.0277  0.6198
 6835TIP3    H141996   0.636   6.164  14.687 -1.9643 -2.1407 -0.9205
 6835TIP3    H241997   0.526   6.268  14.684  1.1659  1.4251  1.8004
 6836TIP3   OH241998   2.692   5.757  13.335  0.2228  0.0159  0.8499
 6836TIP3    H141999   2.773   5.794  13.369 -0.1728  2.4123 -0.6994
 6836TIP3    H242000   2.623   5.806  13.378 -0.3148  1.2302 -1.3143
 6837TIP3   OH242001   5.626   1.615   4.568 -0.2495  0.2710  0.2247
 6837TIP3    H142002   5.563   1.687   4.560 -0.7515 -0.2529 -0.7065
 6837TIP3    H242003   5.706   1.656   4.599  0.0195  1.5301 -2.0216
 6838TIP3   OH242004   5.330   0.865  16.208  0.3409 -0.1850 -0.1793
 6838TIP3    H142005   5.341   0.783  16.257  1.5827  0.3524  0.4502
 6838TIP3    H242006   5.340   0.839  16.116 -1.3008 -1.0769 -0.1221
 6839TIP3   OH242007   4.056   0.010   1.385 -0.2784  0.1932 -0.1239
 6839TIP3    H142008   4.039   0.104   1.380 -3.1386 -0.2022  1.2290
 6839TIP3    H242009   4.144  -0.000   1.349 -1.1754  2.9792 -3.3799
 6840TIP3   OH242010   6.566   2.102  15.481  0.6168 -0.1091 -0.6802
 6840TIP3    H142011   6.529   2.157  15.412  0.4850 -0.2154 -0.6957
 6840TIP3    H242012   6.576   2.016  15.440 -0.6467 -0.5018 -0.2033
 6841TIP3   OH242013   6.451   2.219  13.443 -0.0257 -0.0779  0.3282
 6841TIP3    H142014   6.402   2.235  13.523 -1.3639 -0.5157 -0.3767
 6841TIP3    H242015   6.399   2.261  13.374  1.7709  1.4140 -0.1530
 6842TIP3   OH242016   2.013   2.836   5.561 -0.6009  0.0794  0.0594
 6842TIP3    H142017   2.047   2.890   5.632 -0.0489  0.6259 -0.6083
 6842TIP3    H242018   1.924   2.868   5.545 -1.1163 -0.7647  1.2239
 6843TIP3   OH242019   4.444   6.279  13.250 -0.0396 -0.0871  0.2834
 6843TIP3    H142020   4.525   6.322  13.225 -0.9255  1.8118  0.6524
 6843TIP3    H242021   4.381   6.350  13.263 -1.6168 -1.4918  0.5490
 6844TIP3   OH242022   4.573   3.510  11.440 -0.0025 -0.3170 -0.2163
 6844TIP3    H142023   4.511   3.442  11.465  0.6821 -1.1395 -0.6975
 6844TIP3    H242024   4.643   3.463  11.395  0.5037  0.7063 -0.5250
 6845TIP3   OH242025   6.221   2.911   1.337 -0.1630  0.4467  0.3304
 6845TIP3    H142026   6.286   2.842   1.323 -2.9023 -2.3362  0.5318
 6845TIP3    H242027   6.259   2.989   1.298  3.7006 -0.8065  1.3719
 6846TIP3   OH242028   1.113   6.077  14.193 -0.0942 -0.3327 -0.0186
 6846TIP3    H142029   1.150   6.153  14.148 -0.3056 -0.8634 -1.1083
 6846TIP3    H242030   1.100   6.012  14.124 -0.3900 -1.1808  0.8193
 6847TIP3   OH242031   4.914   3.314  14.239 -0.0288 -0.5922 -0.4351
 6847TIP3    H142032   4.868   3.306  14.156 -1.4647  2.5028 -0.0297
 6847TIP3    H242033   5.004   3.291  14.220 -0.7073 -1.6665 -2.4311
 6848TIP3   OH242034   2.329   5.432   3.468 -0.4414 -0.2141  0.0348
 6848TIP3    H142035   2.414   5.402   3.501 -0.0254 -1.5349 -2.1626
 6848TIP3    H242036   2.345   5.453   3.376 -2.9849 -2.5103 -0.9818
 6849TIP3   OH242037   1.941   3.069  15.900  0.2999 -0.2139 -0.2265
 6849TIP3    H142038   1.996   3.012  15.953  1.5661  0.8446 -0.3974
 6849TIP3    H242039   1.971   3.157  15.919 -1.5118  0.4129 -0.1305
 6850TIP3   OH242040   6.812   1.118  14.759  0.4231 -0.1829 -0.5240
 6850TIP3    H142041   6.824   1.032  14.798  0.3407  0.1802  0.3131
 6850TIP3    H242042   6.899   1.144  14.730  0.9786  0.7394  1.9434
 6851TIP3   OH242043   3.441   2.450  15.461  0.4361  0.0158  0.0656
 6851TIP3    H142044   3.396   2.518  15.512  0.3776 -0.0958  0.1625
 6851TIP3    H242045   3.422   2.472  15.370  1.4268  0.8379  0.0492
 6852TIP3   OH242046   3.552   4.467   3.642 -0.0047 -0.1570 -0.9872
 6852TIP3    H142047   3.533   4.424   3.558 -0.1498  1.2771 -1.7223
 6852TIP3    H242048   3.604   4.544   3.617  1.8081 -0.8940  0.4611
 6853TIP3   OH242049   6.641   3.972   5.375 -0.2020 -0.0494  0.0106
 6853TIP3    H142050   6.656   4.046   5.435  0.1554 -0.4764  0.4605
 6853TIP3    H242051   6.546   3.961   5.373 -0.3552  1.3590 -1.2179
 6854TIP3   OH242052   4.282   0.069   4.873  0.3173 -0.0415 -0.4492
 6854TIP3    H142053   4.270   0.055   4.779 -0.7639 -0.3119 -0.2730
 6854TIP3    H242054   4.373   0.044   4.888 -0.7262 -4.3675 -0.6523
 6855TIP3   OH242055   4.674   6.338   5.286  0.3735  0.2636  0.5551
 6855TIP3    H142056   4.636   6.287   5.214  2.1624 -1.2531  0.6571
 6855TIP3    H242057   4.732   6.401   5.243  0.1382  0.5109  0.5921
 6856TIP3   OH242058   0.220   6.218  11.295 -0.3783 -0.3344 -0.4594
 6856TIP3    H142059   0.236   6.304  11.256 -0.8288  0.1167  0.3523
 6856TIP3    H242060   0.139   6.228  11.344  0.9152 -0.4826  1.7850
 6857TIP3   OH242061   3.316   4.286  16.811  0.7230 -0.6262 -0.4799
 6857TIP3    H142062   3.376   4.344  16.764  0.7438 -1.1324 -1.0797
 6857TIP3    H242063   3.348   4.288  16.902 -0.6679  2.1080  0.0017
 6858TIP3   OH242064   2.732   0.861  14.354 -0.2264 -0.3505 -0.1063
 6858TIP3    H142065   2.669   0.933  14.353 -0.2571 -0.3884 -2.1774
 6858TIP3    H242066   2.778   0.867  14.271 -0.1273 -2.6262 -0.2581
 6859TIP3   OH242067   3.420   1.981   3.856 -0.0455  0.2964  0.3547
 6859TIP3    H142068   3.504   1.947   3.824 -0.9277  0.6895 -2.4897
 6859TIP3    H242069   3.443   2.061   3.903  1.3260 -0.5217  1.1226
 6860TIP3   OH242070   3.272   1.656  12.061  0.1714  0.3497 -0.1792
 6860TIP3    H142071   3.325   1.736  12.071  1.5280 -0.6706  1.0697
 6860TIP3    H242072   3.203   1.665  12.127  0.8361  0.0957  0.5526
 6861TIP3   OH242073   4.065   5.653   0.088 -0.2845  0.1233 -0.0771
 6861TIP3    H142074   4.153   5.679   0.063  0.4876 -1.6062  0.7696
 6861TIP3    H242075   4.071   5.629   0.180 -1.6361 -0.0158 -0.0048
 6862TIP3   OH242076   5.342   4.165   1.288 -0.4049  0.0987  0.7401
 6862TIP3    H142077   5.408   4.202   1.230  0.1947 -1.0603  0.6600
 6862TIP3    H242078   5.376   4.181   1.376 -0.1532 -0.2551  0.7063
 6863TIP3   OH242079   2.479   4.000  11.620 -0.1373 -0.0587 -0.0843
 6863TIP3    H142080   2.559   4.051  11.632 -0.3049  0.1253  0.2642
 6863TIP3    H242081   2.502   3.934  11.555  0.0052  0.6180 -0.7246
 6864TIP3   OH242082   2.185   3.445  13.699 -0.1364  0.3021  0.4470
 6864TIP3    H142083   2.243   3.508  13.657  1.6180 -1.3010  0.4126
 6864TIP3    H242084   2.212   3.443  13.791 -2.2038  1.8106  1.1427
 6865TIP3   OH242085   3.850   4.418   1.574 -0.7045 -0.4138  0.1821
 6865TIP3    H142086   3.791   4.455   1.640 -1.0911  0.6413 -0.7348
 6865TIP3    H242087   3.813   4.446   1.491  1.4400  0.8284 -0.4094
 6866TIP3   OH242088   0.931   0.008  14.136  0.3264  0.2507 -0.5537
 6866TIP3    H142089   1.025   0.022  14.143  0.3205  0.3780 -0.7239
 6866TIP3    H242090   0.901   0.076  14.076 -0.0277  0.8722  0.3109
 6867TIP3   OH242091   3.237   4.647   1.624 -0.3505  0.1653 -0.2687
 6867TIP3    H142092   3.300   4.613   1.561 -0.5964 -0.5468 -0.1339
 6867TIP3    H242093   3.173   4.694   1.571 -0.1415  0.2221 -0.4754
 6868TIP3   OH242094   6.685   3.572  10.787 -0.5769 -0.3143  0.1086
 6868TIP3    H142095   6.717   3.498  10.735 -0.9691 -0.3927 -0.0226
 6868TIP3    H242096   6.754   3.638  10.781 -1.6224  0.6174 -2.4572
 6869TIP3   OH242097   0.441   4.977  14.195 -0.0634 -0.4634 -0.2369
 6869TIP3    H142098   0.444   5.053  14.137  0.9011 -0.6880 -0.4800
 6869TIP3    H242099   0.348   4.966  14.215 -0.1957  0.8217 -0.1380
 6870TIP3   OH242100   0.753   5.274  16.364  0.2910  0.0311 -0.1036
 6870TIP3    H142101   0.730   5.352  16.415  1.6561  0.4187 -0.0757
 6870TIP3    H242102   0.720   5.201  16.416 -1.9501  0.6148 -0.6377
 6871TIP3   OH242103   5.383   4.747  11.333  0.3557  0.0591 -0.1529
 6871TIP3    H142104   5.308   4.699  11.368  0.0020 -0.1811 -1.2077
 6871TIP3    H242105   5.457   4.689  11.349  0.2069 -0.0179  0.2583
 6872TIP3   OH242106   5.300   2.810  14.598 -0.3050  0.2569 -0.0603
 6872TIP3    H142107   5.218   2.769  14.627  0.7038 -2.1563 -0.4263
 6872TIP3    H242108   5.315   2.881  14.659 -0.3553 -2.1063  2.8281
 6873TIP3   OH242109   4.927   4.880   0.093 -0.3668  0.7928  0.0412
 6873TIP3    H142110   4.836   4.857   0.108 -0.9742  2.1551 -1.4445
 6873TIP3    H242111   4.933   4.972   0.115  0.7811  0.5799  0.6556
 6874TIP3   OH242112   2.101   0.042   5.660  0.5443 -0.1493  0.1252
 6874TIP3    H142113   2.142   0.112   5.711 -1.3002  1.2917 -0.2769
 6874TIP3    H242114   2.012   0.037   5.695  0.4343 -1.8105 -0.3639
 6875TIP3   OH242115   1.871   2.996  14.677  0.0576 -0.4312 -0.0429
 6875TIP3    H142116   1.928   2.950  14.738 -2.4270 -1.6901  1.4088
 6875TIP3    H242117   1.888   3.089  14.693  0.9910 -0.7791  1.0171
 6876TIP3   OH242118   3.237   3.873   5.971 -0.5552  0.4299 -0.3338
 6876TIP3    H142119   3.316   3.860   5.918 -0.2060  3.6240 -0.6752
 6876TIP3    H242120   3.268   3.865   6.061  0.6680  3.8380 -0.3913
 6877TIP3   OH242121   2.185   4.709   6.289 -0.2353 -0.3465 -0.4359
 6877TIP3    H142122   2.195   4.692   6.195 -3.0592  1.2271 -1.1002
 6877TIP3    H242123   2.093   4.736   6.298 -0.2754 -1.4345  2.9400
 6878TIP3   OH242124   1.401   5.240   1.564 -0.8005  0.0087 -0.0211
 6878TIP3    H142125   1.319   5.279   1.594 -0.5005 -0.3709  1.2939
 6878TIP3    H242126   1.374   5.163   1.514 -1.2549 -0.0381  0.2911
 6879TIP3   OH242127   0.992   4.428  10.671 -0.0252 -0.0027 -0.3444
 6879TIP3    H142128   1.082   4.445  10.644  0.4636 -1.9268  0.0505
 6879TIP3    H242129   0.982   4.477  10.753 -0.2252  2.4416 -1.7670
 6880TIP3   OH242130   5.033   6.789   1.534 -0.1056 -0.2189  0.6509
 6880TIP3    H142131   5.018   6.710   1.482 -0.3277 -0.9304  1.7963
 6880TIP3    H242132   5.119   6.820   1.507 -0.2368 -0.5648 -0.1676
 6881TIP3   OH242133   5.913   0.314   1.130 -0.3038 -0.3196  0.1755
 6881TIP3    H142134   5.845   0.254   1.099  0.0672 -0.4777 -0.3481
 6881TIP3    H242135   5.883   0.401   1.102  0.3705 -0.5333 -1.2812
 6882TIP3   OH242136   3.566   0.496   6.164 -0.0832 -0.2355  0.1809
 6882TIP3    H142137   3.486   0.545   6.186 -0.6608 -0.6987 -0.8857
 6882TIP3    H242138   3.572   0.429   6.232 -0.9892 -0.6569 -0.1527
 6883TIP3   OH242139   1.912   6.496   2.990  0.3261  0.5882 -0.2223
 6883TIP3    H142140   1.821   6.508   3.019  0.3731  2.8836 -0.9449
 6883TIP3    H242141   1.917   6.403   2.967 -2.3568  0.7769 -1.8030
 6884TIP3   OH242142   5.518   1.389   1.065  0.1062 -0.1552  0.0470
 6884TIP3    H142143   5.576   1.347   1.129 -0.2350 -0.7742 -0.0398
 6884TIP3    H242144   5.444   1.328   1.057  0.4121 -0.3657 -1.3472
 6885TIP3   OH242145   2.617   3.810  11.506 -0.7241 -0.1643 -0.2966
 6885TIP3    H142146   2.625   3.743  11.574 -0.7847  0.7242  0.5911
 6885TIP3    H242147   2.568   3.767  11.435 -1.2380 -0.8806  0.4919
 6886TIP3   OH242148   0.566   5.724   0.418  0.0502 -0.0492 -0.2074
 6886TIP3    H142149   0.622   5.693   0.347  0.6686  0.6060 -0.0171
 6886TIP3    H242150   0.560   5.650   0.478  0.4458 -0.2317 -0.3892
 6887TIP3   OH242151   3.516   1.436   6.363 -0.4279  0.6112  1.2570
 6887TIP3    H142152   3.434   1.401   6.399 -1.0370  2.1168  1.3335
 6887TIP3    H242153   3.526   1.522   6.404  0.5830  0.9412  0.3321
 6888TIP3   OH242154   4.429   2.533   3.589  0.2154  0.4548 -0.0764
 6888TIP3    H142155   4.364   2.501   3.526 -1.8198  1.8730  1.2360
 6888TIP3    H242156   4.410   2.486   3.670  0.1373  1.6253  0.6006
 6889TIP3   OH242157   4.859   1.974  14.988  0.1382 -0.2606  0.0412
 6889TIP3    H142158   4.814   2.056  15.010  0.0573 -0.4449  0.5720
 6889TIP3    H242159   4.791   1.920  14.947 -0.0136 -0.3682  0.4312
 6890TIP3   OH242160   2.789   3.420   2.785  0.7266 -0.3064 -0.1211
 6890TIP3    H142161   2.711   3.411   2.730  0.2271 -0.8793  0.6632
 6890TIP3    H242162   2.756   3.408   2.875  1.0594  3.3381  0.5516
 6891TIP3   OH242163   3.817   6.465  16.955  0.5636 -0.1713  0.4673
 6891TIP3    H142164   3.820   6.388  17.012  0.4331 -0.8116 -0.3738
 6891TIP3    H242165   3.894   6.456  16.898 -0.3348 -0.5424 -0.7134
 6892TIP3   OH242166   1.547   0.097   2.204 -0.2445  0.1358 -0.2390
 6892TIP3    H142167   1.589   0.051   2.276 -0.3883  0.4519  0.0479
 6892TIP3    H242168   1.460   0.056   2.197  0.2570 -0.8139 -1.1143
 6893TIP3   OH242169   2.883   4.416  15.727  0.0089 -0.5297 -0.5178
 6893TIP3    H142170   2.898   4.416  15.822  0.2344  0.0865 -0.5468
 6893TIP3    H242171   2.801   4.465  15.716  0.3918  0.0721 -0.6986
 6894TIP3   OH242172   4.348   1.841  16.985 -0.4426 -0.5139  0.2472
 6894TIP3    H142173   4.436   1.829  17.020 -0.3208  0.8767  0.4379
 6894TIP3    H242174   4.343   1.934  16.964 -1.5385 -0.7689 -0.6720
 6895TIP3   OH242175   2.688   6.156  15.175  0.0810  0.3330  0.0047
 6895TIP3    H142176   2.618   6.136  15.238 -1.0125 -0.4686 -1.4283
 6895TIP3    H242177   2.642   6.191  15.099  1.1847 -0.6832 -1.1482
 6896TIP3   OH242178   5.259   0.983   1.245  0.2044  0.2650 -0.5803
 6896TIP3    H142179   5.237   0.955   1.334  0.3445  0.1409 -0.5858
 6896TIP3    H242180   5.270   0.901   1.197  1.2507  0.3284 -0.4455
 6897TIP3   OH242181   2.151   0.110  10.401 -0.1084 -0.4684  0.1277
 6897TIP3    H142182   2.184   0.046  10.464  0.5285 -0.8848 -0.6298
 6897TIP3    H242183   2.211   0.184  10.408 -1.5596  0.5925  1.9075
 6898TIP3   OH242184   5.580   5.758  14.155 -0.1947  0.2402 -0.1470
 6898TIP3    H142185   5.646   5.689  14.162 -0.1747  0.2401 -0.3283
 6898TIP3    H242186   5.591   5.810  14.235 -0.5966 -0.3017  0.2634
 6899TIP3   OH242187   6.302   1.987   4.933 -0.3093  0.3334  0.1046
 6899TIP3    H142188   6.381   1.949   4.893  0.1912  2.5931 -1.1392
 6899TIP3    H242189   6.291   1.938   5.015  0.9073 -1.7409 -0.9391
 6900TIP3   OH242190   0.271   6.534  11.793 -0.6008  0.4221  0.3387
 6900TIP3    H142191   0.220   6.493  11.863  0.9319  1.3894  2.0876
 6900TIP3    H242192   0.207   6.584  11.743 -1.9881 -1.5740  0.0534
 6901TIP3   OH242193   1.224   6.117   6.217  0.3533 -0.0956 -0.0199
 6901TIP3    H142194   1.245   6.030   6.253  0.3614 -0.8315 -1.7326
 6901TIP3    H242195   1.132   6.131   6.239 -0.2949 -1.5488 -1.6629
 6902TIP3   OH242196   6.068   0.562   5.661  0.7891  0.6519 -0.4130
 6902TIP3    H142197   6.095   0.513   5.583 -0.5758 -2.0831  0.7622
 6902TIP3    H242198   6.135   0.542   5.727  0.3693  0.5803 -0.0030
 6903TIP3   OH242199   0.784   0.645  15.478 -0.3230  0.4915 -0.2473
 6903TIP3    H142200   0.797   0.709  15.408 -0.6827 -0.8441 -1.5663
 6903TIP3    H242201   0.810   0.562  15.439 -1.7668 -0.4715  0.7811
 6904TIP3   OH242202   5.483   3.538   0.447  0.5380 -0.1213 -0.2277
 6904TIP3    H142203   5.510   3.454   0.484  1.0959 -0.8940 -2.3153
 6904TIP3    H242204   5.403   3.519   0.398  0.8608  0.4823 -1.0045
 6905TIP3   OH242205   6.678   4.636   3.854  0.7163 -0.3946 -0.2266
 6905TIP3    H142206   6.686   4.560   3.796  0.2247 -1.2112  0.7583
 6905TIP3    H242207   6.637   4.601   3.934  1.6932  0.6308  0.7464
 6906TIP3   OH242208   0.995   1.847  11.059  0.4738 -0.3534 -0.1827
 6906TIP3    H142209   0.932   1.817  11.124  0.8079  1.0358  0.8115
 6906TIP3    H242210   0.967   1.936  11.039  2.0328  0.2311  0.1742
 6907TIP3   OH242211   0.259   0.899   4.123  0.3062  0.6695 -0.7364
 6907TIP3    H142212   0.216   0.923   4.042  0.8737  1.4604 -0.8100
 6907TIP3    H242213   0.239   0.971   4.183 -1.1419 -0.4958  0.2122
 6908TIP3   OH242214   4.658   1.936  14.811  0.8597 -0.3366 -0.4108
 6908TIP3    H142215   4.648   1.841  14.816  0.6832 -0.3033 -0.1435
 6908TIP3    H242216   4.633   1.958  14.722 -0.9778 -0.3095  0.0933
 6909TIP3   OH242217   0.948   3.976   5.464  0.4949  0.4659 -0.5429
 6909TIP3    H142218   0.997   4.026   5.398  1.7276  0.2580  0.2049
 6909TIP3    H242219   0.973   3.885   5.449 -0.6569  0.2206 -0.9821
 6910TIP3   OH242220   3.885   2.841   2.906 -0.3480 -0.1875 -0.6775
 6910TIP3    H142221   3.909   2.925   2.866 -1.7412 -0.1510 -1.4579
 6910TIP3    H242222   3.790   2.846   2.919  0.0480 -0.2405  2.5769
 6911TIP3   OH242223   0.032   4.306   3.443 -0.4002  0.3288  0.2294
 6911TIP3    H142224  -0.063   4.310   3.444 -0.4809 -1.1670 -0.5762
 6911TIP3    H242225   0.053   4.217   3.471  0.8230  1.1753  2.1304
 6912TIP3   OH242226   3.229   4.388  12.272 -0.1203  0.4264  0.5015
 6912TIP3    H142227   3.204   4.338  12.350 -2.0761 -0.8555 -0.9033
 6912TIP3    H242228   3.151   4.437  12.248  0.2147  0.2006 -1.1080
 6913TIP3   OH242229   2.498   5.398   4.635 -0.4595 -0.5769  0.1479
 6913TIP3    H142230   2.589   5.417   4.610 -1.8604  1.0433 -4.1717
 6913TIP3    H242231   2.496   5.303   4.648  2.2082 -0.4238  2.1675
 6914TIP3   OH242232   3.577   0.760   1.343 -0.2294  0.3585 -0.0189
 6914TIP3    H142233   3.574   0.760   1.438  0.6220  1.2126  0.0147
 6914TIP3    H242234   3.500   0.710   1.316 -0.2480 -0.2363  1.1189
 6915TIP3   OH242235   2.813   2.062  15.568 -0.5105 -0.2148  0.6449
 6915TIP3    H142236   2.847   1.985  15.613  2.5526  1.2582  1.0367
 6915TIP3    H242237   2.874   2.132  15.592 -2.7079  2.1378 -0.3767
 6916TIP3   OH242238   4.101   5.015   2.033  0.0796 -0.0029  0.2598
 6916TIP3    H142239   4.077   5.098   2.074 -1.5683  0.1250 -0.9170
 6916TIP3    H242240   4.052   5.014   1.951 -0.0207 -2.1863  0.3173
 6917TIP3   OH242241   6.678   6.371   0.063  0.1575  0.1743 -0.0502
 6917TIP3    H142242   6.637   6.357  -0.023  2.2647 -1.7269 -0.8009
 6917TIP3    H242243   6.605   6.369   0.125 -1.0913 -1.2694 -1.5282
 6918TIP3   OH242244   6.461   4.798   4.839 -0.0008 -0.6205 -0.8741
 6918TIP3    H142245   6.518   4.759   4.773  0.0070 -2.0167 -0.0598
 6918TIP3    H242246   6.467   4.738   4.914  0.9588  1.5482  0.8564
 6919TIP3   OH242247   5.372   4.079  14.500 -0.3158 -0.2519  0.1009
 6919TIP3    H142248   5.426   4.102  14.576  0.1343  2.7319 -1.0226
 6919TIP3    H242249   5.297   4.138  14.506 -0.1816  0.1383 -1.8377
 6920TIP3   OH242250   3.395   2.978  13.744  0.4320 -0.4242  0.2032
 6920TIP3    H142251   3.456   2.911  13.713  1.1112 -0.0560  0.7585
 6920TIP3    H242252   3.377   3.032  13.667  0.1075 -1.0603 -0.1766
 6921TIP3   OH242253   5.727   4.876  13.937  0.2580  0.4510 -0.2241
 6921TIP3    H142254   5.724   4.963  13.896 -0.0624  0.1905 -0.7629
 6921TIP3    H242255   5.776   4.889  14.018  0.3252  1.1095 -0.3694
 6922TIP3   OH242256   4.290   5.923   3.845  0.2444 -0.0132  0.8699
 6922TIP3    H142257   4.282   5.871   3.924 -0.3188 -0.2864  0.6343
 6922TIP3    H242258   4.370   5.974   3.857  1.1128 -1.3594  0.8506
 6923TIP3   OH242259   0.314   6.708   3.566 -0.1527  0.4301 -0.4626
 6923TIP3    H142260   0.284   6.750   3.647 -1.0542 -0.0148 -0.5574
 6923TIP3    H242261   0.387   6.653   3.594 -0.8834 -0.2453  0.1835
 6924TIP3   OH242262   5.963   2.949   0.024 -0.5906  0.3985  0.5965
 6924TIP3    H142263   6.047   2.973  -0.016 -1.5660  1.3600 -0.9115
 6924TIP3    H242264   5.963   2.854   0.024 -0.7440  0.3746 -2.0847
 6925TIP3   OH242265   6.732   2.133  13.776  0.1300  0.1814 -0.0193
 6925TIP3    H142266   6.702   2.206  13.722 -0.4606  0.3252  0.5040
 6925TIP3    H242267   6.670   2.129  13.848  0.8604 -0.0799  0.6015
 6926TIP3   OH242268   3.010   0.107  14.247  0.2185 -0.7683 -0.1740
 6926TIP3    H142269   3.095   0.091  14.288 -0.6399 -0.2033  1.8673
 6926TIP3    H242270   3.008   0.202  14.233 -0.1443 -0.7580 -0.0522
 6927TIP3   OH242271   6.311   3.200   2.453 -0.1854  0.3251  0.5414
 6927TIP3    H142272   6.371   3.176   2.382 -1.2417 -0.5524 -0.0555
 6927TIP3    H242273   6.285   3.290   2.433  0.9738  0.7332  0.8337
 6928TIP3   OH242274   4.752   1.148  13.870 -0.5064 -0.0513  0.0683
 6928TIP3    H142275   4.734   1.094  13.948 -0.8072 -0.5179 -0.3263
 6928TIP3    H242276   4.810   1.094  13.817  0.3804  0.6045  0.3538
 6929TIP3   OH242277   0.190   4.113   3.995  0.2601 -0.0278  0.0000
 6929TIP3    H142278   0.183   4.159   4.079 -0.2316  0.3825 -0.2659
 6929TIP3    H242279   0.178   4.021   4.017  1.6895 -0.0925  0.5984
 6930TIP3   OH242280   1.323   3.988   1.954 -0.0830 -0.1307 -0.1885
 6930TIP3    H142281   1.268   3.909   1.950  1.3211 -1.2873  2.1720
 6930TIP3    H242282   1.274   4.049   2.010 -0.8719  0.4315 -1.4869
 6931TIP3   OH242283   2.762   0.456  15.675  0.0214  0.7068 -0.5268
 6931TIP3    H142284   2.857   0.450  15.664 -0.1983  0.3972 -2.4253
 6931TIP3    H242285   2.750   0.522  15.744  1.6143  0.5725 -0.1013
 6932TIP3   OH242286   3.289   1.392  16.000  0.3254 -0.1155  0.2487
 6932TIP3    H142287   3.249   1.479  16.005 -0.4527 -0.5323  1.3569
 6932TIP3    H242288   3.341   1.395  15.920  1.0442  1.6893  0.7450
 6933TIP3   OH242289   0.685   3.419  12.717 -0.0332 -0.0919 -0.0917
 6933TIP3    H142290   0.592   3.424  12.741 -0.4727 -0.1898 -1.7265
 6933TIP3    H242291   0.695   3.333  12.676  0.4522  0.4738 -1.1917
 6934TIP3   OH242292   4.762   0.031   1.115  0.0754  0.2223  0.1479
 6934TIP3    H142293   4.716  -0.018   1.047  0.8787 -1.4463  0.7652
 6934TIP3    H242294   4.722   0.118   1.113 -2.2474 -0.8022 -0.1670
 6935TIP3   OH242295   3.527   4.477   2.147 -1.0271 -0.5354 -0.1223
 6935TIP3    H142296   3.590   4.444   2.212 -2.3358  0.4119  1.6475
 6935TIP3    H242297   3.552   4.569   2.135 -2.4008  0.0118  1.0356
 6936TIP3   OH242298   2.517   4.230  15.060  0.1147  0.0904  0.0396
 6936TIP3    H142299   2.495   4.137  15.053  1.2259 -0.0445 -1.9423
 6936TIP3    H242300   2.573   4.236  15.138 -0.1118 -0.8549  0.2780
 6937TIP3   OH242301   1.794   5.442   6.013 -0.0988  0.2456 -0.0209
 6937TIP3    H142302   1.711   5.411   5.977 -0.2773 -0.8839  1.3304
 6937TIP3    H242303   1.792   5.537   5.998 -1.0691  0.0630 -1.1190
 6938TIP3   OH242304   2.437   1.956  13.136 -0.6504 -0.4808  0.4077
 6938TIP3    H142305   2.495   1.897  13.184 -0.4565 -1.0720 -0.5396
 6938TIP3    H242306   2.354   1.908  13.128 -0.7307 -0.3257  0.2788
 6939TIP3   OH242307   1.036   3.250  11.278 -0.3214  0.0857 -0.5395
 6939TIP3    H142308   1.042   3.323  11.217 -1.0583  1.1636  0.6490
 6939TIP3    H242309   1.087   3.278  11.354 -0.0406 -0.9182 -0.3519
 6940TIP3   OH242310   3.489   6.076  17.273  0.2075 -0.1878 -0.7799
 6940TIP3    H142311   3.536   6.071  17.190 -0.9214 -2.0884 -1.3115
 6940TIP3    H242312   3.403   6.111  17.251  0.4591  0.8482 -0.1670
 6941TIP3   OH242313   1.333   2.723  12.962 -0.9592 -0.2780 -0.2804
 6941TIP3    H142314   1.280   2.664  13.016 -1.0293  0.2856  0.2766
 6941TIP3    H242315   1.282   2.736  12.883 -1.0901 -0.7147 -0.2690
 6942TIP3   OH242316   1.404   4.116   3.987  0.0805  0.4052 -0.1969
 6942TIP3    H142317   1.443   4.090   4.070  1.0107 -0.8540 -1.0261
 6942TIP3    H242318   1.475   4.159   3.939 -0.5344  1.4148 -0.2333
 6943TIP3   OH242319   5.801   3.191   0.741  0.0745  0.3068 -0.1853
 6943TIP3    H142320   5.767   3.193   0.830  0.1685  1.6455 -0.1793
 6943TIP3    H242321   5.829   3.281   0.723  0.5648 -0.0672 -1.3661
 6944TIP3   OH242322   0.228   4.771  12.671 -0.6034 -0.7430  0.0874
 6944TIP3    H142323   0.198   4.801  12.585  1.3527 -1.0693 -0.7398
 6944TIP3    H242324   0.303   4.827  12.691 -1.6289 -0.0200  2.0527
 6945TIP3   OH242325   5.346   2.000  12.438 -0.0477  0.2873 -0.2839
 6945TIP3    H142326   5.420   2.058  12.456  0.1625  1.0530 -3.2961
 6945TIP3    H242327   5.373   1.950  12.360 -1.0159 -2.4623  1.0753
 6946TIP3   OH242328   1.775   0.818  11.650  0.5310 -0.4642  0.0128
 6946TIP3    H142329   1.729   0.899  11.674  1.3545  0.0355 -0.0388
 6946TIP3    H242330   1.738   0.751  11.707  1.4251  0.4100  1.6757
 6947TIP3   OH242331   4.575   3.693   3.110  0.1240 -0.4670 -0.1441
 6947TIP3    H142332   4.515   3.767   3.100  1.1693  0.8496  3.0570
 6947TIP3    H242333   4.604   3.674   3.020 -1.1238  2.1648 -1.1564
 6948TIP3   OH242334   2.002   1.906   4.520  0.3056  0.1105 -0.2473
 6948TIP3    H142335   2.016   1.901   4.614  0.6030  1.4083 -0.2080
 6948TIP3    H242336   2.087   1.932   4.484  0.0943  0.0136 -0.8218
 6949TIP3   OH242337   3.606   4.947  12.216  0.3190  0.0097 -0.0898
 6949TIP3    H142338   3.699   4.969  12.224 -0.3379  2.2961  1.5985
 6949TIP3    H242339   3.603   4.852  12.231  2.3500 -0.0516  0.0647
 6950TIP3   OH242340   5.625   4.578   2.794  0.1481 -0.2658  0.2598
 6950TIP3    H142341   5.570   4.540   2.862 -1.7936 -0.2117 -1.2189
 6950TIP3    H242342   5.685   4.508   2.769  0.1425 -0.6298  1.2586
 6951TIP3   OH242343   2.318   4.486  16.716 -0.2738 -0.1222 -0.4693
 6951TIP3    H142344   2.224   4.502  16.719 -0.4699 -1.1242 -0.8445
 6951TIP3    H242345   2.345   4.479  16.808 -0.6942 -0.5480 -0.3792
 6952TIP3   OH242346   1.802   1.395  17.219 -0.3353 -0.0579 -0.3036
 6952TIP3    H142347   1.860   1.348  17.279 -2.6232 -0.6531  1.5063
 6952TIP3    H242348   1.780   1.476  17.266 -2.0788 -0.4907 -0.3520
 6953TIP3   OH242349   5.302   5.337   0.463  0.6303 -0.1078 -0.5428
 6953TIP3    H142350   5.354   5.257   0.462  1.1011  0.1730  0.7920
 6953TIP3    H242351   5.337   5.389   0.391  1.1004 -0.6089 -0.6763
 6954TIP3   OH242352   0.545   6.146  15.695  0.4892 -0.0040  0.0559
 6954TIP3    H142353   0.559   6.058  15.663 -1.7356  0.1202 -1.3393
 6954TIP3    H242354   0.450   6.156  15.698  0.6582  3.2176 -2.3692
 6955TIP3   OH242355   0.874   3.537  15.731  0.1627 -0.1030 -0.4415
 6955TIP3    H142356   0.887   3.579  15.816 -2.2541  0.8577 -0.4931
 6955TIP3    H242357   0.920   3.594  15.669 -0.5224  0.8045 -0.1259
 6956TIP3   OH242358   1.884   3.419  16.829 -0.3606  0.1333  0.6225
 6956TIP3    H142359   1.862   3.512  16.828  1.1344  0.4931 -0.6025
 6956TIP3    H242360   1.927   3.405  16.914  1.2524  1.0273 -0.0211
 6957TIP3   OH242361   4.168   4.899  15.175 -0.4663  0.0729 -0.1688
 6957TIP3    H142362   4.096   4.837  15.157 -1.2495  1.3730 -1.6344
 6957TIP3    H242363   4.200   4.924  15.088  2.2171 -0.9564  0.4702
 6958TIP3   OH242364   2.848   0.728   2.714 -0.1106  0.2008  0.2380
 6958TIP3    H142365   2.914   0.668   2.678  1.9229  3.4699 -1.7949
 6958TIP3    H242366   2.765   0.683   2.702  1.3491 -2.2483 -1.0698
 6959TIP3   OH242367   2.014   1.800   6.167 -0.4991  0.5417  0.6876
 6959TIP3    H142368   1.979   1.876   6.213  1.6730  1.8196  0.3190
 6959TIP3    H242369   1.937   1.749   6.142 -1.9803  2.4977  1.1583
 6960TIP3   OH242370   2.240   5.198  13.803  0.0628 -0.8158 -0.3227
 6960TIP3    H142371   2.171   5.261  13.823  1.3642  0.1844  1.0886
 6960TIP3    H242372   2.251   5.203  13.708 -1.1745 -0.3442 -0.4541
 6961TIP3   OH242373   6.657   2.087   3.632  0.3603  0.4827 -0.6616
 6961TIP3    H142374   6.670   2.144   3.557  0.9109 -0.4610 -1.2942
 6961TIP3    H242375   6.738   2.095   3.683  0.0230  1.0544 -0.2067
 6962TIP3   OH242376   3.686   3.474   4.046 -0.4355 -0.1427  0.0176
 6962TIP3    H142377   3.686   3.500   3.954  2.7462  4.4454  1.1174
 6962TIP3    H242378   3.762   3.416   4.055  1.9944  2.9994  0.5087
 6963TIP3   OH242379   0.423   0.785   1.846  0.0598 -0.7682  0.1367
 6963TIP3    H142380   0.330   0.805   1.858  0.5073  0.1924  2.2239
 6963TIP3    H242381   0.438   0.704   1.894  0.6565  0.0412  1.3578
 6964TIP3   OH242382   5.017   1.893  10.897 -0.1978 -0.1877  0.1604
 6964TIP3    H142383   5.009   1.925  10.987 -1.3741 -0.6298  0.2176
 6964TIP3    H242384   4.991   1.801  10.902  2.1745 -0.9179 -0.1845
 6965TIP3   OH242385   4.132   1.750  15.766 -0.0346  0.5171 -0.3522
 6965TIP3    H142386   4.219   1.756  15.806  1.0352  0.1899 -2.5163
 6965TIP3    H242387   4.123   1.657  15.744 -0.7539  0.6234 -0.5146
 6966TIP3   OH242388   1.574   5.680  13.996 -0.2372 -0.4576 -0.6688
 6966TIP3    H142389   1.570   5.620  13.921 -0.5931 -2.6893  1.0993
 6966TIP3    H242390   1.665   5.708  13.999 -0.0683 -0.8832 -1.5253
 6967TIP3   OH242391   4.027   4.739   1.509  0.1732 -0.0690  0.2618
 6967TIP3    H142392   4.103   4.781   1.469  0.1376 -1.2613 -1.0800
 6967TIP3    H242393   4.006   4.795   1.583  2.7368 -0.0264  1.0329
 6968TIP3   OH242394   0.523   3.690   1.792  0.1603 -0.0862 -0.6229
 6968TIP3    H142395   0.535   3.665   1.883  0.4516  0.1854 -0.5851
 6968TIP3    H242396   0.458   3.628   1.758 -0.1495 -0.0117 -0.1602
 6969TIP3   OH242397   0.370   2.216  11.645 -0.1838  0.1044  0.6552
 6969TIP3    H142398   0.405   2.305  11.634  1.6286 -0.8141 -1.4786
 6969TIP3    H242399   0.390   2.194  11.736  0.1656  1.5536  0.9469
 6970TIP3   OH242400   4.211   4.963   1.500  0.2946 -0.3355  0.5772
 6970TIP3    H142401   4.204   5.025   1.428 -4.4940 -0.7698  0.4587
 6970TIP3    H242402   4.191   5.014   1.578  2.3207 -0.5058  1.2129
 6971TIP3   OH242403   0.837   2.937   0.880 -0.7073 -0.5684 -0.5598
 6971TIP3    H142404   0.928   2.942   0.907 -0.0618 -2.6104 -2.2860
 6971TIP3    H242405   0.831   2.858   0.826 -3.4919 -0.5004 -0.4568
 6972TIP3   OH242406   4.019   4.318  15.223  0.6477 -0.2049  0.2124
 6972TIP3    H142407   4.073   4.397  15.220  0.7308 -0.3061 -1.8678
 6972TIP3    H242408   3.929   4.351  15.219  0.6981 -0.2080 -1.6331
 6973TIP3   OH242409   0.998   0.868  15.453  0.2207  0.2167  0.0193
 6973TIP3    H142410   1.065   0.804  15.428  0.1903 -0.6271  2.0007
 6973TIP3    H242411   0.920   0.842  15.404 -0.1629 -2.0784  1.7478
 6974TIP3   OH242412   3.146   5.932  15.407 -0.1449 -0.5184  0.1028
 6974TIP3    H142413   3.142   5.963  15.317 -0.5229 -1.3129 -0.1594
 6974TIP3    H242414   3.190   5.847  15.400  0.2652 -0.3601  0.7260
 6975TIP3   OH242415   2.143   1.234   2.719 -0.0307  0.1756  0.1350
 6975TIP3    H142416   2.075   1.241   2.786 -1.0651 -0.7532 -0.7989
 6975TIP3    H242417   2.196   1.313   2.731 -1.0834  0.7631  1.0849
 6976TIP3   OH242418   0.241   5.442   3.030 -0.1067  0.2526  0.4492
 6976TIP3    H142419   0.177   5.394   3.083  1.1367 -0.8234  1.0086
 6976TIP3    H242420   0.324   5.396   3.044  0.6082  1.0226 -1.0446
 6977TIP3   OH242421   5.157   2.400  12.484 -0.3918  0.0849  0.5247
 6977TIP3    H142422   5.139   2.484  12.441  3.1938 -0.2574 -1.8563
 6977TIP3    H242423   5.116   2.335  12.427  2.8146 -0.2326 -1.5201
 6978TIP3   OH242424   3.327   0.268   3.337  0.0907 -0.0524  0.9014
 6978TIP3    H142425   3.381   0.291   3.262  0.1927 -0.1375  0.9494
 6978TIP3    H242426   3.289   0.352   3.366 -1.6473 -0.2973 -0.5582
 6979TIP3   OH242427   2.959   4.518  12.902  0.4214 -0.5330  0.3192
 6979TIP3    H142428   3.008   4.502  12.983  0.9185 -0.1142  0.1053
 6979TIP3    H242429   2.996   4.599  12.867 -0.9079  0.1562  0.5100
 6980TIP3   OH242430   6.392   1.622   4.442  0.2202  0.3832 -0.4133
 6980TIP3    H142431   6.417   1.540   4.399 -0.0430  0.7662 -1.3137
 6980TIP3    H242432   6.474   1.669   4.455  0.6788 -1.1023  2.4115
 6981TIP3   OH242433   3.436   1.265  15.207  0.5198 -0.2974  0.9893
 6981TIP3    H142434   3.455   1.358  15.195  4.1349 -1.3756 -2.8319
 6981TIP3    H242435   3.521   1.224  15.220 -0.6930 -3.4120 -0.2251
 6982TIP3   OH242436   0.580   2.863  14.988  0.1860  0.4171 -0.2220
 6982TIP3    H142437   0.557   2.786  14.936  0.1424  0.4139 -0.1970
 6982TIP3    H242438   0.508   2.873  15.050  1.7601 -1.5006  2.0004
 6983TIP3   OH242439   6.367   1.676   0.593 -0.3835 -0.4863  0.3951
 6983TIP3    H142440   6.295   1.618   0.567 -0.3924 -0.5139  0.4784
 6983TIP3    H242441   6.323   1.751   0.633 -0.3271 -1.0864  1.6075
 6984TIP3   OH242442   0.685   4.966   3.752 -0.0221  0.0975  0.3320
 6984TIP3    H142443   0.714   5.024   3.682  1.2807  1.6275  2.0826
 6984TIP3    H242444   0.589   4.973   3.751  0.0372  0.7690 -0.7561
 6985TIP3   OH242445   5.760   4.408  12.279 -0.3186  0.2088 -0.4613
 6985TIP3    H142446   5.837   4.457  12.308  0.2636  0.5251 -2.4520
 6985TIP3    H242447   5.795   4.337  12.226 -1.4260  1.0529 -2.3966
 6986TIP3   OH242448   4.067   0.518   4.454  0.5164  0.3182 -0.5889
 6986TIP3    H142449   3.972   0.509   4.450  0.3909  1.3945 -0.0961
 6986TIP3    H242450   4.092   0.546   4.365  0.5474 -1.4674 -1.1556
 6987TIP3   OH242451   1.453   4.543  14.247 -0.5596 -0.5580  0.3414
 6987TIP3    H142452   1.485   4.633  14.243  2.2285 -1.5051 -0.2887
 6987TIP3    H242453   1.365   4.546  14.211 -0.2224  1.8048 -0.3429
 6988TIP3   OH242454   3.331   1.060  11.459  0.3217 -0.2948 -0.1761
 6988TIP3    H142455   3.315   1.153  11.470 -0.1347 -0.4099  0.1781
 6988TIP3    H242456   3.243   1.021  11.461  0.4567 -0.6467 -1.0741
 6989TIP3   OH242457   5.016   1.086   0.001  0.0250  0.3617 -0.3855
 6989TIP3    H142458   4.975   1.152   0.056  1.7852  0.5910  0.6903
 6989TIP3    H242459   5.076   1.135  -0.054  0.1814 -0.1656 -0.6882
 6990TIP3   OH242460   2.635   1.441   3.088  0.0886 -0.4659 -0.0160
 6990TIP3    H142461   2.589   1.523   3.075  0.1747 -0.5489 -0.8355
 6990TIP3    H242462   2.726   1.460   3.065 -0.0204 -0.9684 -0.8697
 6991TIP3   OH242463   1.701   6.408  12.303  0.3182  0.2926 -0.2934
 6991TIP3    H142464   1.775   6.368  12.349 -0.4861  0.2569  0.9947
 6991TIP3    H242465   1.684   6.349  12.229 -0.2964 -1.3115  1.0899
 6992TIP3   OH242466   1.725   5.578   3.253  0.3471  0.3702  0.5106
 6992TIP3    H142467   1.761   5.571   3.164 -1.4348  0.7512 -0.2642
 6992TIP3    H242468   1.697   5.669   3.260 -0.6050  0.0439  1.0316
 6993TIP3   OH242469   6.019   4.157  15.651  0.1833  0.1613  0.3938
 6993TIP3    H142470   5.938   4.109  15.669 -2.0529  3.9558  0.9924
 6993TIP3    H242471   5.999   4.211  15.575  2.3954  0.6688  0.1312
 6994TIP3   OH242472   6.540   5.688   1.576  0.4698 -0.1447  0.0214
 6994TIP3    H142473   6.515   5.777   1.602  1.3617  0.2631 -0.5055
 6994TIP3    H242474   6.457   5.644   1.560  0.0404  1.0234 -1.1021
 6995TIP3   OH242475   2.264   0.979   0.957  0.3540 -0.0271  0.3922
 6995TIP3    H142476   2.344   0.928   0.971  0.2213  0.0302  1.4230
 6995TIP3    H242477   2.240   0.961   0.867  0.9667 -0.8574  0.3859
 6996TIP3   OH242478   2.132   2.574   5.256 -0.4304  0.5877  0.1201
 6996TIP3    H142479   2.144   2.616   5.342  1.5711 -1.6806  0.9890
 6996TIP3    H242480   2.041   2.544   5.257 -0.2668  0.0776  1.7037
 6997TIP3   OH242481   2.708   6.136  13.617  0.1395  0.5345 -0.0800
 6997TIP3    H142482   2.802   6.135  13.599  0.5221 -1.9672  1.7416
 6997TIP3    H242483   2.671   6.075  13.554 -0.0990  0.5344  0.0618
 6998TIP3   OH242484   3.939   1.655  12.217 -0.1197  0.6418 -0.7224
 6998TIP3    H142485   3.999   1.718  12.257  0.7097  0.8354 -2.2475
 6998TIP3    H242486   3.909   1.698  12.137 -0.1907 -0.5670 -1.3480
 6999TIP3   OH242487   0.225   0.487  15.013 -0.0673 -0.3573  0.0203
 6999TIP3    H142488   0.179   0.443  15.085 -0.1857 -0.0096  0.1617
 6999TIP3    H242489   0.155   0.518  14.956  0.0241 -0.5627 -0.2035
 7000TIP3   OH242490   0.728   0.442  16.636  0.2078  0.1000 -0.1172
 7000TIP3    H142491   0.648   0.480  16.672 -0.4500 -0.7371 -0.6685
 7000TIP3    H242492   0.736   0.357  16.678  0.1172 -0.3541 -0.9931
 7001TIP3   OH242493   0.921   5.814  15.981  0.2923  0.3650  0.1581
 7001TIP3    H142494   0.874   5.883  15.935  0.0814 -0.3839 -0.7718
 7001TIP3    H242495   0.863   5.738  15.976  0.3632  0.2207  1.4937
 7002TIP3   OH242496   5.963   3.943  12.168 -0.5343  0.4915 -0.1029
 7002TIP3    H142497   6.012   3.941  12.251 -0.1682 -1.3881 -0.3354
 7002TIP3    H242498   5.972   4.033  12.138 -0.2952  1.0966  1.6839
 7003TIP3   OH242499   4.316   3.088  13.444 -0.1359 -0.3560  0.3143
 7003TIP3    H142500   4.388   3.057  13.390  0.3444  1.2256  0.0269
 7003TIP3    H242501   4.256   3.131  13.382 -0.2766  0.2127  0.8343
 7004TIP3   OH242502   6.143   0.496   2.062 -0.4374 -0.2932 -0.3708
 7004TIP3    H142503   6.100   0.475   1.980  0.0165 -2.5357 -0.0490
 7004TIP3    H242504   6.075   0.538   2.115 -1.1874 -0.3949 -1.2530
 7005TIP3   OH242505   5.273   0.446  14.774  0.0201  0.0428  0.6394
 7005TIP3    H142506   5.305   0.524  14.820  0.2794  0.2803  0.0646
 7005TIP3    H242507   5.310   0.373  14.823  0.3789  0.2945  0.7469
 7006TIP3   OH242508   0.975   6.077  16.599  0.0191  0.1919 -0.7876
 7006TIP3    H142509   0.910   6.085  16.669 -0.7267 -0.6463 -1.3647
 7006TIP3    H242510   1.049   6.131  16.628  0.1249 -0.8996  1.1173
 7007TIP3   OH242511   2.956   2.953  11.315 -0.2652 -0.2062  0.1485
 7007TIP3    H142512   2.944   2.992  11.402 -1.2308 -1.2907  0.5167
 7007TIP3    H242513   2.990   3.024  11.261  1.2423  0.2314  1.6403
 7008TIP3   OH242514   2.356   2.244   4.010  0.2285 -0.2536  0.2224
 7008TIP3    H142515   2.286   2.281   4.062  1.4426  0.7015  1.2112
 7008TIP3    H242516   2.431   2.302   4.025  0.3102  0.7949 -3.5230
 7009TIP3   OH242517   6.599   4.359  11.327 -0.3093  0.1544 -0.3083
 7009TIP3    H142518   6.624   4.392  11.241  0.8300  0.2112  0.0370
 7009TIP3    H242519   6.656   4.284  11.342  0.3591  0.8843  0.9188
 7010TIP3   OH242520   0.651   1.144   2.046  0.0353  0.7846 -0.3958
 7010TIP3    H142521   0.703   1.121   2.123 -0.1246 -3.0780 -1.3395
 7010TIP3    H242522   0.696   1.220   2.008  2.2827  0.3835  1.3715
 7011TIP3   OH242523   0.063   4.438   1.891 -0.0666 -0.3707 -0.2135
 7011TIP3    H142524   0.127   4.372   1.865 -0.4884 -1.1465  0.6676
 7011TIP3    H242525   0.101   4.481   1.967 -0.0767 -0.0363 -0.3964
 7012TIP3   OH242526   6.402   4.197   2.636 -0.6570 -0.3858  0.2157
 7012TIP3    H142527   6.370   4.140   2.565 -0.1159 -1.0007  0.4579
 7012TIP3    H242528   6.413   4.138   2.711 -0.0111  0.0216  0.4468
 7013TIP3   OH242529   6.480   2.851  14.629 -0.4949  0.2251  0.1536
 7013TIP3    H142530   6.463   2.777  14.571  2.0945 -0.7714  0.5829
 7013TIP3    H242531   6.413   2.846  14.696  0.1110 -2.2032  0.6068
 7014TIP3   OH242532   2.298   1.319   3.291  0.0162  0.2824  0.3907
 7014TIP3    H142533   2.377   1.267   3.281 -0.7112 -0.6949 -0.2964
 7014TIP3    H242534   2.247   1.301   3.213 -1.1604  0.4581  1.1053
 7015TIP3   OH242535   4.153   6.071   5.752 -0.5739  0.2267  0.2005
 7015TIP3    H142536   4.131   6.148   5.699 -0.8442 -0.3022 -0.4547
 7015TIP3    H242537   4.246   6.058   5.738 -0.5206  0.4510  0.3354
 7016TIP3   OH242538   2.800   6.637  12.626  0.1483  0.0183 -0.2914
 7016TIP3    H142539   2.811   6.571  12.557  2.1246 -0.3575  0.3711
 7016TIP3    H242540   2.742   6.596  12.690  0.3746 -0.6007 -0.4825
 7017TIP3   OH242541   3.875   1.551   4.991  0.1481 -0.1841  0.1834
 7017TIP3    H142542   3.865   1.510   5.077 -0.8333 -0.1442  0.0873
 7017TIP3    H242543   3.845   1.641   5.004 -2.0947 -0.7713 -0.7245
 7018TIP3   OH242544   5.062   3.532   5.095 -0.1205  0.2004  0.5417
 7018TIP3    H142545   5.039   3.614   5.140  0.4807  2.2744 -2.7074
 7018TIP3    H242546   5.141   3.554   5.045  0.6836 -2.7190  0.4622
 7019TIP3   OH242547   6.040   4.020   4.961  0.8435  0.5715 -0.7430
 7019TIP3    H142548   5.959   4.005   4.912  1.2692  0.5889 -1.4558
 7019TIP3    H242549   6.063   4.111   4.944  1.9761  0.0739 -2.0115
 7020TIP3   OH242550   2.767   0.660   4.197 -0.4315 -0.3467 -0.3267
 7020TIP3    H142551   2.703   0.597   4.228 -0.2972 -0.4510 -0.2650
 7020TIP3    H242552   2.729   0.745   4.218 -0.8040 -0.3987 -0.7863
 7021TIP3   OH242553   6.324   4.503  15.453 -0.0889  0.1812 -0.4013
 7021TIP3    H142554   6.286   4.454  15.526  0.4727 -1.4496 -1.1618
 7021TIP3    H242555   6.399   4.548  15.491  2.9774 -4.2261 -0.7618
 7022TIP3   OH242556   5.988   4.918  11.195  0.1794  0.0031 -0.8040
 7022TIP3    H142557   6.073   4.935  11.234 -0.7476 -0.4954  1.5170
 7022TIP3    H242558   6.003   4.846  11.134  1.3829 -0.1884 -0.2853
 7023TIP3   OH242559   5.806   0.669  16.720  0.3834 -0.1646 -0.1291
 7023TIP3    H142560   5.898   0.684  16.744  0.1910 -0.3974  0.7856
 7023TIP3    H242561   5.771   0.756  16.703  0.3027  0.0960  1.3061
 7024TIP3   OH242562   0.537   6.629   2.678  0.5092  0.0645 -0.0277
 7024TIP3    H142563   0.508   6.647   2.589  0.4309  1.7053  0.3258
 7024TIP3    H242564   0.566   6.538   2.675 -0.0406 -0.0802 -1.5818
 7025TIP3   OH242565   4.752   6.542  12.604  0.5715  0.2418  0.4107
 7025TIP3    H142566   4.690   6.586  12.662  0.2303 -0.6928  0.7718
 7025TIP3    H242567   4.697   6.507  12.533  1.0495  1.8348 -0.7819
 7026TIP3   OH242568   3.378   2.641   1.154  0.3392 -0.0094  0.7390
 7026TIP3    H142569   3.340   2.659   1.068  0.5377 -3.2816 -0.0889
 7026TIP3    H242570   3.412   2.726   1.183 -1.6861  1.6036 -1.4052
 7027TIP3   OH242571   2.947   3.229   5.675  0.1897  0.5520  0.7081
 7027TIP3    H142572   2.917   3.140   5.690  0.4440  0.4352  0.5197
 7027TIP3    H242573   2.987   3.255   5.758  0.1247  0.4887  0.7595
 7028TIP3   OH242574   4.301   4.714   2.730  0.0092  0.2048  0.4373
 7028TIP3    H142575   4.248   4.738   2.654 -1.0884  1.7112  1.6319
 7028TIP3    H242576   4.372   4.661   2.694 -2.4488 -2.1438 -1.1982
 7029TIP3   OH242577   0.328   0.605   2.305 -0.3843  0.7617 -0.1267
 7029TIP3    H142578   0.381   0.652   2.371 -0.1498 -0.6358  0.6992
 7029TIP3    H242579   0.268   0.552   2.357  0.0144 -0.5950 -1.0345
 7030TIP3   OH242580   2.022   2.487   2.523 -0.2805  0.9069 -0.2323
 7030TIP3    H142581   1.993   2.469   2.434  1.6737 -0.4367 -0.6264
 7030TIP3    H242582   2.113   2.513   2.514 -0.1043  0.9003  1.3531
 7031TIP3   OH242583   6.380   2.133   2.758 -0.4705 -0.1499 -0.6330
 7031TIP3    H142584   6.450   2.149   2.821 -0.4816  2.6925 -1.2341
 7031TIP3    H242585   6.302   2.122   2.811 -0.2477  0.8651 -0.0681
 7032TIP3   OH242586   2.198   6.649  15.817 -0.0791 -0.5568 -0.4664
 7032TIP3    H142587   2.154   6.655  15.732 -2.4541 -0.1705  0.7377
 7032TIP3    H242588   2.185   6.558  15.844 -1.5061 -0.0817  0.5539
 7033TIP3   OH242589   4.017   0.536   1.126  0.0211  0.1473 -0.4485
 7033TIP3    H142590   3.998   0.556   1.034  1.7371 -0.1816 -0.9079
 7033TIP3    H242591   3.941   0.567   1.174 -1.0918 -0.0578 -2.0280
 7034TIP3   OH242592   4.069   3.458   3.251  0.2078 -0.8343  0.0270
 7034TIP3    H142593   4.020   3.479   3.171  2.5341  2.3906 -0.6357
 7034TIP3    H242594   4.025   3.508   3.320 -0.3285 -1.7241  0.3402
 7035TIP3   OH242595   4.842   0.261   2.692  0.6799  0.4172  0.8275
 7035TIP3    H142596   4.844   0.320   2.767 -0.5325 -0.6334  1.7174
 7035TIP3    H242597   4.894   0.185   2.718 -1.0109 -0.6430  1.2492
 7036TIP3   OH242598   1.268   2.066  14.852  0.2967 -0.4468  0.4724
 7036TIP3    H142599   1.186   2.029  14.883 -0.2326  1.1984  1.0639
 7036TIP3    H242600   1.335   2.030  14.910 -0.1247 -1.0124  0.6009
 7037TIP3   OH242601   4.520   4.776  17.176  0.3462 -0.3267  0.1144
 7037TIP3    H142602   4.552   4.830  17.248 -1.7021 -1.2281  1.7466
 7037TIP3    H242603   4.483   4.838  17.114  0.2742  0.3155  0.7941
 7038TIP3   OH242604   6.342   5.093   3.849  0.0260 -0.4853 -0.2058
 7038TIP3    H142605   6.292   5.174   3.856  0.2921 -0.2901 -0.5829
 7038TIP3    H242606   6.275   5.024   3.854  0.0003 -0.3151  2.2731
 7039TIP3   OH242607   5.214   6.813   4.956 -0.4709  0.5604  0.3543
 7039TIP3    H142608   5.213   6.908   4.968  0.8757  0.4238  1.8232
 7039TIP3    H242609   5.281   6.798   4.889  1.4558  0.4875  2.2328
 7040TIP3   OH242610   3.413   5.054   2.244  0.5174 -0.2708  0.2659
 7040TIP3    H142611   3.342   5.079   2.185  0.0257 -1.6417  0.2647
 7040TIP3    H242612   3.425   5.130   2.301 -0.5055  0.2121 -0.1618
 7041TIP3   OH242613   4.877   2.696   5.189 -0.1552 -0.1589 -0.2790
 7041TIP3    H142614   4.895   2.704   5.282  1.6147  0.0683 -0.6381
 7041TIP3    H242615   4.781   2.695   5.184 -0.3460  3.6391  1.2152
 7042TIP3   OH242616   5.935   5.663  11.892  0.1108 -0.0069  0.2614
 7042TIP3    H142617   5.956   5.656  11.985 -0.1040 -0.0326  0.3070
 7042TIP3    H242618   5.987   5.737  11.861 -0.1269  0.2527  0.4881
 7043TIP3   OH242619   0.061   5.293  13.005 -0.0717  0.3226  0.2113
 7043TIP3    H142620   0.067   5.358  13.075 -1.3116 -1.6761  2.2318
 7043TIP3    H242621  -0.033   5.275  12.997  0.0534  0.4530 -1.9417
 7044TIP3   OH242622   0.724   3.685  14.045 -0.0329 -0.3701 -0.0444
 7044TIP3    H142623   0.759   3.747  14.109 -0.7181  0.3682 -0.3735
 7044TIP3    H242624   0.656   3.638  14.093  0.8157 -1.2108  0.3463
 7045TIP3   OH242625   2.802   1.962  13.521  0.0656 -0.1725 -0.7183
 7045TIP3    H142626   2.835   2.051  13.509  0.6068  0.1644  2.6804
 7045TIP3    H242627   2.880   1.909  13.534 -0.3325 -0.8601 -1.1211
 7046TIP3   OH242628   6.230   4.825   1.668 -0.3618  0.2876 -0.5647
 7046TIP3    H142629   6.302   4.795   1.724  0.7640  0.0888 -2.0962
 7046TIP3    H242630   6.163   4.758   1.678  0.4021 -0.4917 -0.5628
 7047TIP3   OH242631   1.504   5.888   4.672 -0.4915 -0.4708  0.3354
 7047TIP3    H142632   1.526   5.968   4.625  0.8879 -1.2434 -0.3680
 7047TIP3    H242633   1.516   5.911   4.764  2.7444 -0.6652  0.0138
 7048TIP3   OH242634   4.549   2.988  11.085  0.9927 -0.1031 -0.2916
 7048TIP3    H142635   4.625   2.994  11.027  0.6455 -1.6700 -0.9243
 7048TIP3    H242636   4.483   2.942  11.033 -0.2304  0.8235  0.4233
 7049TIP3   OH242637   0.601   3.534   3.470  0.0641 -0.1968 -0.1754
 7049TIP3    H142638   0.522   3.497   3.432  0.4005 -0.6047 -0.4868
 7049TIP3    H242639   0.662   3.460   3.475  0.0021 -0.1715  1.2051
 7050TIP3   OH242640   4.473   4.336  11.515 -0.1029 -0.2863 -0.4666
 7050TIP3    H142641   4.381   4.346  11.494 -0.5377 -3.0204 -0.0235
 7050TIP3    H242642   4.516   4.327  11.430 -0.2347  0.7893 -0.6624
 7051TIP3   OH242643   6.080   6.265  16.536 -0.6991  0.3390  0.9144
 7051TIP3    H142644   6.159   6.222  16.568  0.7757  0.7156 -1.9916
 7051TIP3    H242645   6.074   6.239  16.444 -2.5778  2.2975  0.4341
 7052TIP3   OH242646   0.644   0.999  11.869 -0.3087 -0.0540 -0.0417
 7052TIP3    H142647   0.650   1.094  11.859  1.4778 -0.1718 -0.3824
 7052TIP3    H242648   0.688   0.980  11.952 -0.4090 -0.5931 -0.1051
 7053TIP3   OH242649   0.634   4.429  11.542  0.2299 -0.0976 -0.5488
 7053TIP3    H142650   0.586   4.490  11.485 -0.7988 -0.6075 -0.2500
 7053TIP3    H242651   0.701   4.482  11.584 -1.0240  0.9559  0.1482
 7054TIP3   OH242652   2.516   4.579  16.562  0.4058 -0.6980 -0.0181
 7054TIP3    H142653   2.536   4.493  16.524 -1.3661 -0.6011 -1.2423
 7054TIP3    H242654   2.431   4.567  16.605 -0.1336  0.5754 -0.7082
 7055TIP3   OH242655   3.042   4.519   1.196 -0.0101  0.2858  0.2571
 7055TIP3    H142656   3.001   4.466   1.265 -2.5232 -1.8785 -2.7923
 7055TIP3    H242657   3.003   4.606   1.206 -1.6102 -0.4502  0.5434
 7056TIP3   OH242658   4.595   6.695   3.083  0.2460 -0.1496  0.0189
 7056TIP3    H142659   4.591   6.601   3.071 -0.3119 -0.2892  1.2264
 7056TIP3    H242660   4.504   6.724   3.084  0.4463  0.6489 -2.0892
 7057TIP3   OH242661   5.018   5.980  12.628  0.3017 -0.2627  0.5334
 7057TIP3    H142662   4.926   6.005  12.631  0.5270  0.6390  0.2945
 7057TIP3    H242663   5.018   5.892  12.590 -0.3540  0.4749 -1.2653
 7058TIP3   OH242664   6.539   0.147  14.998 -0.1439  0.2298  0.3645
 7058TIP3    H142665   6.464   0.092  14.973  0.9649 -1.4587  0.6750
 7058TIP3    H242666   6.503   0.236  15.001 -1.7835 -0.3482 -0.9773
 7059TIP3   OH242667   3.053   3.621  13.518  0.7608  0.1677 -0.1282
 7059TIP3    H142668   3.091   3.686  13.577 -3.4900  2.0818  0.6872
 7059TIP3    H242669   2.997   3.568  13.574 -3.2325  1.9190 -2.2495
 7060TIP3   OH242670   6.535   2.450  12.871  1.3529 -0.6670 -0.1589
 7060TIP3    H142671   6.574   2.533  12.901  0.9865 -0.7385  0.5427
 7060TIP3    H242672   6.511   2.466  12.780  0.4769  0.3132  0.2226
 7061TIP3   OH242673   6.162   1.262   1.267  0.1640 -0.4271  0.1362
 7061TIP3    H142674   6.086   1.277   1.211  0.8534 -0.3182 -0.7906
 7061TIP3    H242675   6.203   1.182   1.233  0.5126 -0.4423  0.5713
 7062TIP3   OH242676   4.600   3.957   3.960 -0.0601  0.1553  0.4068
 7062TIP3    H142677   4.618   3.866   3.938 -2.4168  0.5158 -3.5205
 7062TIP3    H242678   4.670   4.006   3.916  0.1296  0.3688  0.9437
 7063TIP3   OH242679   4.272   6.312  12.450 -0.0046 -0.6395 -0.1432
 7063TIP3    H142680   4.206   6.253  12.486 -0.8667  1.1020  1.1966
 7063TIP3    H242681   4.296   6.369  12.523 -0.3219  1.6770 -1.7975
 7064TIP3   OH242682   4.542   3.679   1.956 -0.4586 -0.0006 -0.1798
 7064TIP3    H142683   4.539   3.684   2.052  0.9530  1.5457 -0.1926
 7064TIP3    H242684   4.513   3.590   1.935  1.5595 -1.1598  1.7978
 7065TIP3   OH242685   3.133   3.746   5.328  0.2671  0.1047  0.0817
 7065TIP3    H142686   3.184   3.716   5.403 -0.7976 -1.6814  0.1298
 7065TIP3    H242687   3.194   3.745   5.255  0.5854 -0.9470  0.3543
 7066TIP3   OH242688   4.288   6.256   3.814  0.1756  0.7191 -0.2909
 7066TIP3    H142689   4.371   6.291   3.782  0.0693  0.4594 -0.8419
 7066TIP3    H242690   4.240   6.333   3.844  0.9133  0.8011  0.7266
 7067TIP3   OH242691   5.275   0.602  15.380 -0.3392  0.3745 -0.1014
 7067TIP3    H142692   5.320   0.679  15.415  0.0244  0.4356 -0.6851
 7067TIP3    H242693   5.345   0.548  15.345 -0.7701  0.8868 -1.8354
 7068TIP3   OH242694   3.232   1.244  14.382 -0.3534 -0.4174  0.3182
 7068TIP3    H142695   3.137   1.237  14.380 -0.4081  0.2295  0.5787
 7068TIP3    H242696   3.253   1.267  14.473 -0.0826  1.2302 -0.1496
 7069TIP3   OH242697   5.686   5.053   5.121 -0.2365 -0.0155 -0.2478
 7069TIP3    H142698   5.624   5.041   5.193  0.3403  3.1251  0.8326
 7069TIP3    H242699   5.772   5.034   5.158 -0.2826 -2.1588 -1.1600
 7070TIP3   OH242700   0.228   1.497  16.777  0.1100 -0.1137 -0.0670
 7070TIP3    H142701   0.154   1.454  16.734  0.4018  1.3811 -2.1302
 7070TIP3    H242702   0.190   1.540  16.854 -0.7061 -1.3808  0.2575
 7071TIP3   OH242703   4.752   2.801  13.892  0.2383  0.1638 -0.2551
 7071TIP3    H142704   4.706   2.769  13.970  0.1048 -0.5061 -0.6090
 7071TIP3    H242705   4.704   2.880  13.867 -0.7555 -0.5622 -0.6572
 7072TIP3   OH242706   0.035   6.077  16.367 -0.1385 -0.0525  0.0799
 7072TIP3    H142707   0.099   6.141  16.399  1.2438 -0.5911 -1.5170
 7072TIP3    H242708   0.020   6.018  16.441 -1.8404  2.3700  1.7744
 7073TIP3   OH242709   1.653   1.949  12.555  0.5986 -0.1823  0.0231
 7073TIP3    H142710   1.660   2.017  12.488 -1.2447 -1.1796 -1.2318
 7073TIP3    H242711   1.705   1.982  12.628 -0.7034  2.8319 -0.3222
 7074TIP3   OH242712   6.545   0.851   4.217  0.5292  0.2616 -0.1447
 7074TIP3    H142713   6.530   0.764   4.254 -2.3707  0.3890 -0.8787
 7074TIP3    H242714   6.503   0.911   4.280 -1.4727  0.7360 -1.8605
 7075TIP3   OH242715   5.690   4.650  11.764 -0.5597 -0.1475  0.5607
 7075TIP3    H142716   5.738   4.733  11.756 -1.8207  0.6159  0.8831
 7075TIP3    H242717   5.683   4.618  11.674 -0.9730  0.6071  0.3231
 7076TIP3   OH242718   4.367   4.849  12.760 -0.5959  0.7437 -0.4334
 7076TIP3    H142719   4.302   4.911  12.727 -1.2457 -0.6129 -1.7910
 7076TIP3    H242720   4.316   4.783  12.806 -0.2788 -0.8163 -2.2854
 7077TIP3   OH242721   5.820   3.784   4.073  0.0237 -0.1773 -0.1415
 7077TIP3    H142722   5.776   3.789   3.988  0.8522  0.1022 -0.5579
 7077TIP3    H242723   5.885   3.854   4.071 -0.0363 -0.0879  0.7777
 7078TIP3   OH242724   6.088   1.786   3.121 -0.0106  0.5574 -0.1729
 7078TIP3    H142725   6.040   1.729   3.181 -0.6658  0.2483 -0.9886
 7078TIP3    H242726   6.022   1.845   3.085  0.6190  1.6650  0.4683
 7079TIP3   OH242727   4.071   0.309  16.867  0.5044  0.7318  0.4686
 7079TIP3    H142728   4.061   0.214  16.879  2.9155  0.3625 -0.2858
 7079TIP3    H242729   3.988   0.336  16.827 -1.3346 -0.5685  3.1974
 7080TIP3   OH242730   6.722   3.146  11.496 -1.2962  0.5131  0.2955
 7080TIP3    H142731   6.733   3.155  11.402 -2.7151 -2.2292 -0.1993
 7080TIP3    H242732   6.687   3.058  11.508 -1.9199  1.0919  3.3261
 7081TIP3   OH242733   0.437   3.810  13.490 -0.4230 -0.3190 -0.1844
 7081TIP3    H142734   0.451   3.761  13.571 -1.2058 -1.1669 -0.5652
 7081TIP3    H242735   0.501   3.882  13.495 -0.5763 -0.2620  1.2588
 7082TIP3   OH242736   1.395   3.106  12.325  0.2171  0.5855 -0.3866
 7082TIP3    H142737   1.423   3.066  12.408 -1.8646  3.0620  1.5642
 7082TIP3    H242738   1.448   3.186  12.318 -0.1181  0.7470 -1.1271
 7083TIP3   OH242739   5.962   6.463   4.521 -0.1603  0.4771  0.1952
 7083TIP3    H142740   5.897   6.487   4.455 -0.5723  0.1703  0.4823
 7083TIP3    H242741   6.040   6.511   4.497 -0.7069  1.4088  0.2576
 7084TIP3   OH242742   4.503   5.046   0.046 -0.1461  0.1017  0.2435
 7084TIP3    H142743   4.562   5.035  -0.029  0.6247  0.0123  0.8561
 7084TIP3    H242744   4.491   5.141   0.053 -1.8119  0.0143 -1.2120
 7085TIP3   OH242745   1.860   1.531  16.288 -0.0325  0.0709 -0.0738
 7085TIP3    H142746   1.804   1.488  16.353  0.2969 -0.6495 -0.2585
 7085TIP3    H242747   1.903   1.601  16.336  0.3843 -0.6016  0.5515
 7086TIP3   OH242748   2.323   5.607  15.237 -0.2505 -0.5392 -0.1993
 7086TIP3    H142749   2.380   5.566  15.302 -0.0319 -1.3059 -0.8586
 7086TIP3    H242750   2.383   5.641  15.170 -0.3170  2.4763  1.2132
 7087TIP3   OH242751   2.008   0.719   6.732  0.0307 -0.3523 -0.2677
 7087TIP3    H142752   2.047   0.721   6.819 -0.5735 -0.7368  0.0114
 7087TIP3    H242753   2.031   0.804   6.693 -2.0075  0.9348  1.2574
 7088TIP3   OH242754   6.566   6.771   4.710 -0.5390 -0.4024 -0.1462
 7088TIP3    H142755   6.541   6.819   4.789  1.8165  0.6303  0.0280
 7088TIP3    H242756   6.572   6.838   4.642 -1.6242 -1.1467 -0.9919
 7089TIP3   OH242757   5.896   5.782  11.349  0.3882 -0.3302 -0.2483
 7089TIP3    H142758   5.837   5.709  11.364  0.8797 -0.8462 -0.7643
 7089TIP3    H242759   5.979   5.741  11.324  0.5151  0.4045 -1.0850
 7090TIP3   OH242760   0.622   2.554  14.051  0.0580  0.4418 -0.4837
 7090TIP3    H142761   0.644   2.647  14.062 -2.3888  0.8531  1.3406
 7090TIP3    H242762   0.535   2.555  14.011  0.4948 -1.1005 -1.4965
 7091TIP3   OH242763   3.855   5.245  15.667  0.3577 -0.3139 -0.0651
 7091TIP3    H142764   3.950   5.236  15.668  0.1949 -2.2399  0.4760
 7091TIP3    H242765   3.825   5.192  15.740 -1.1368  0.4579 -0.0885
 7092TIP3   OH242766   2.862   3.930  15.140  1.0741  0.1171 -0.5475
 7092TIP3    H142767   2.938   3.873  15.139  0.9337 -0.0627 -1.3906
 7092TIP3    H242768   2.800   3.888  15.200  0.1735 -1.6703 -2.6968
 7093TIP3   OH242769   0.231   5.836   3.863 -0.2660  0.5376 -0.2588
 7093TIP3    H142770   0.250   5.766   3.925 -0.0182  1.1079  0.3086
 7093TIP3    H242771   0.221   5.791   3.779 -2.8313 -0.5185  0.5536
 7094TIP3   OH242772   1.755   1.059   3.017  0.1455  0.1034 -0.3753
 7094TIP3    H142773   1.699   0.982   3.010 -1.4446  1.1994  0.0191
 7094TIP3    H242774   1.696   1.129   3.045  1.7126  1.2942  0.0073
 7095TIP3   OH242775   4.996   2.015  16.408 -0.1130  0.0376 -0.4741
 7095TIP3    H142776   5.075   2.069  16.403 -0.0193  0.1099  1.2786
 7095TIP3    H242777   4.963   2.011  16.319 -1.7819  5.4712 -0.2566
 7096TIP3   OH242778   2.438   4.592   0.273 -0.0809  0.0590 -0.2408
 7096TIP3    H142779   2.363   4.550   0.315 -0.9231  1.2692 -0.5338
 7096TIP3    H242780   2.403   4.630   0.193  0.9739  0.0970 -0.6906
 7097TIP3   OH242781   0.271   0.814  11.478  0.4738  0.1840 -0.1349
 7097TIP3    H142782   0.327   0.890  11.496 -0.6085  0.8280  0.5370
 7097TIP3    H242783   0.279   0.801  11.383 -0.0262  1.6774 -0.3981
 7098TIP3   OH242784   0.907   4.027   1.238 -0.2896 -0.1669  0.2912
 7098TIP3    H142785   0.877   4.045   1.149  2.5933 -0.0515 -0.7316
 7098TIP3    H242786   0.870   4.097   1.291 -0.2535  1.0189 -1.2228
 7099TIP3   OH242787   4.816   0.218   2.198 -0.0705  0.0400 -0.0076
 7099TIP3    H142788   4.799   0.124   2.204 -1.5009  0.2882 -0.0459
 7099TIP3    H242789   4.908   0.227   2.223 -0.4475 -1.1619  1.9595
 7100TIP3   OH242790   2.546   6.444  12.110  0.0358 -0.4607  0.3812
 7100TIP3    H142791   2.505   6.525  12.080  0.6039 -1.3493 -2.9769
 7100TIP3    H242792   2.479   6.401  12.164 -1.6397  0.4543 -0.9219
 7101TIP3   OH242793   3.853   6.398  12.558  0.3455 -0.1135 -0.2172
 7101TIP3    H142794   3.913   6.442  12.498  0.1479 -1.5170 -1.5055
 7101TIP3    H242795   3.780   6.458  12.569  1.1698  0.8586 -0.0514
 7102TIP3   OH242796   4.342   3.411  10.814 -0.6822  0.0701 -0.0174
 7102TIP3    H142797   4.261   3.449  10.846  0.2750  0.9196  1.4041
 7102TIP3    H242798   4.373   3.355  10.885  1.2364  1.6423  0.4032
 7103TIP3   OH242799   0.969   1.553   4.714  0.1250  0.4747  0.6576
 7103TIP3    H142800   0.967   1.619   4.645  0.7460  0.8174  0.9645
 7103TIP3    H242801   0.974   1.469   4.668  1.4170  0.7398  0.2964
 7104TIP3   OH242802   3.136   1.259  14.863  0.2899  0.5207  0.0825
 7104TIP3    H142803   3.163   1.331  14.805  1.7840  0.6903  0.9497
 7104TIP3    H242804   3.094   1.303  14.937  0.6643  0.4741  0.3253
 7105TIP3   OH242805   1.602   0.724  13.203  0.0749  0.6520  0.4943
 7105TIP3    H142806   1.535   0.691  13.142  2.0453 -1.4420 -0.5925
 7105TIP3    H242807   1.600   0.819  13.192 -1.3168  0.4618 -1.0027
 7106TIP3   OH242808   6.043   4.202  17.001  0.8511  0.1221 -0.6101
 7106TIP3    H142809   6.138   4.199  16.984  1.1211 -2.9410  1.0661
 7106TIP3    H242810   6.011   4.117  16.971 -0.4095 -1.0944  3.8365
 7107TIP3   OH242811   1.654   3.682   0.335 -0.5142  0.2292 -0.4384
 7107TIP3    H142812   1.714   3.757   0.335 -0.1860 -0.0138 -2.0029
 7107TIP3    H242813   1.573   3.717   0.370  0.1338  0.9054  0.4142
 7108TIP3   OH242814   6.362   3.111  13.562  0.2540 -0.1217  0.1536
 7108TIP3    H142815   6.358   3.072  13.649  0.3058 -0.4688 -0.0026
 7108TIP3    H242816   6.455   3.120  13.543  0.2429  0.1102  0.2031
 7109TIP3   OH242817   1.005   0.384   0.447 -0.3032 -0.3515 -0.4132
 7109TIP3    H142818   0.991   0.398   0.353 -1.3770 -0.2332 -0.2474
 7109TIP3    H242819   0.921   0.349   0.478  0.5120 -1.7803  0.2367
 7110TIP3   OH242820   0.515   5.651   1.527  0.3179  0.3749  1.0329
 7110TIP3    H142821   0.461   5.630   1.451  0.3098  0.8773  0.8926
 7110TIP3    H242822   0.590   5.592   1.521  1.2647  1.6915 -0.4123
 7111TIP3   OH242823   3.434   1.177   5.845  0.6184  0.1250 -0.0497
 7111TIP3    H142824   3.381   1.232   5.787 -2.8786 -1.4378  1.5254
 7111TIP3    H242825   3.417   1.212   5.932  2.4080 -0.2642  0.4698
 7112TIP3   OH242826   0.703   3.307   2.009  0.5526 -0.0739 -0.5587
 7112TIP3    H142827   0.748   3.376   2.059  0.9862 -1.1342  0.5541
 7112TIP3    H242828   0.665   3.352   1.934  2.0024  1.1380 -0.5782
 7113TIP3   OH242829   3.560   5.731   3.609 -0.5368 -0.2589 -0.0779
 7113TIP3    H142830   3.519   5.649   3.639 -0.0840 -0.3429  0.3097
 7113TIP3    H242831   3.649   5.727   3.643 -1.5599  2.0806  3.0781
 7114TIP3   OH242832   1.666   0.360  12.855  0.1294  0.0289 -0.1644
 7114TIP3    H142833   1.581   0.334  12.890  1.6276 -0.8052  3.0660
 7114TIP3    H242834   1.718   0.280  12.858  1.6479  1.0025 -0.1881
 7115TIP3   OH242835   3.930   3.876   3.811  0.6691 -0.3109  0.5162
 7115TIP3    H142836   3.889   3.962   3.801  1.4965 -0.2382 -2.9823
 7115TIP3    H242837   4.024   3.895   3.819  0.7218 -0.8216  1.1330
 7116TIP3   OH242838   2.332   4.366   1.972 -0.0578  0.0684 -0.2079
 7116TIP3    H142839   2.380   4.426   2.029 -1.0524  1.9967 -1.3776
 7116TIP3    H242840   2.363   4.279   1.998  0.3597  0.9722  2.4791
 7117TIP3   OH242841   3.599   2.846  16.921  0.0161  0.2258 -0.0579
 7117TIP3    H142842   3.675   2.792  16.941 -0.9293 -0.7317  0.9987
 7117TIP3    H242843   3.559   2.864  17.007 -1.0032  0.6335 -0.6109
 7118TIP3   OH242844   4.759   1.822   0.022  0.5333  0.2811 -0.5596
 7118TIP3    H142845   4.779   1.762   0.095 -1.2202 -1.5018 -1.5077
 7118TIP3    H242846   4.709   1.892   0.062 -2.7848 -2.0556 -0.4135
 7119TIP3   OH242847   2.759   6.807  15.513 -0.4506  0.1516 -0.6103
 7119TIP3    H142848   2.686   6.752  15.540 -0.2054 -1.0403 -2.2920
 7119TIP3    H242849   2.837   6.762  15.544 -0.3947  1.2812  0.9377
 7120TIP3   OH242850   2.871   2.681   1.125 -0.8387  0.3753  0.0669
 7120TIP3    H142851   2.942   2.710   1.067  3.0131  0.0298  4.3364
 7120TIP3    H242852   2.879   2.585   1.125 -0.9205  0.3639  0.9630
 7121TIP3   OH242853   5.726   2.771   5.839  0.8552 -0.1099  0.3399
 7121TIP3    H142854   5.668   2.846   5.850  1.4109  0.3799 -0.0655
 7121TIP3    H242855   5.695   2.728   5.759  0.5460 -0.3182  0.5654
 7122TIP3   OH242856   1.065   5.416   4.827  0.0383 -0.8893  0.2882
 7122TIP3    H142857   1.143   5.396   4.775 -0.2330 -0.0934 -0.4494
 7122TIP3    H242858   1.054   5.511   4.817 -2.6181 -1.3910 -1.8946
 7123TIP3   OH242859   6.021   4.107   2.841 -0.2368  0.0035 -0.3625
 7123TIP3    H142860   6.073   4.138   2.915 -0.8737  2.8390 -1.0394
 7123TIP3    H242861   6.084   4.061   2.784  0.0301 -3.3518  2.4464
 7124TIP3   OH242862   1.639   5.425   3.724 -0.6473  0.1092  0.4397
 7124TIP3    H142863   1.569   5.400   3.664  0.8680 -1.4991 -0.7015
 7124TIP3    H242864   1.675   5.505   3.685  0.2808 -0.8846 -0.7796
 7125TIP3   OH242865   3.221   0.578   4.955  0.2304  0.6363 -0.3139
 7125TIP3    H142866   3.243   0.650   5.014 -1.3671  1.4310 -0.6676
 7125TIP3    H242867   3.141   0.606   4.912  0.2535 -0.8408 -1.3502
 7126TIP3   OH242868   0.019   6.179  12.294  0.9700  0.0585  0.3346
 7126TIP3    H142869  -0.070   6.198  12.322  1.2705  2.1037 -0.0162
 7126TIP3    H242870   0.045   6.255  12.242  1.4803 -2.3315 -3.0397
 7127TIP3   OH242871   3.356   4.134   2.476 -0.6037 -0.6870 -0.3847
 7127TIP3    H142872   3.304   4.195   2.528  0.5407 -0.5134  0.5904
 7127TIP3    H242873   3.324   4.145   2.387 -0.2657  1.5176 -0.2656
 7128TIP3   OH242874   1.132   1.052   5.609 -0.0478 -0.1591  0.6972
 7128TIP3    H142875   1.043   1.085   5.598 -0.0405 -0.8285 -1.6761
 7128TIP3    H242876   1.122   0.957   5.608  0.9440 -0.2623 -2.1019
 7129TIP3   OH242877   3.644   0.684  17.289  0.2432  0.0208 -0.6635
 7129TIP3    H142878   3.678   0.668  17.201  0.5197  0.9714 -0.7331
 7129TIP3    H242879   3.580   0.754  17.277 -2.7141 -2.5783 -0.7334
 7130TIP3   OH242880   3.335   6.802   3.763  0.6837  0.1517 -0.5847
 7130TIP3    H142881   3.392   6.879   3.765  1.5802 -0.5076 -0.7171
 7130TIP3    H242882   3.391   6.729   3.786  0.1617 -0.6713 -1.8434
 7131TIP3   OH242883   4.974   6.367   3.746 -0.3487  0.2280 -0.4551
 7131TIP3    H142884   5.030   6.342   3.673 -2.1481 -2.3533 -1.0479
 7131TIP3    H242885   5.030   6.358   3.823  0.2441 -1.8174 -1.0809
 7132TIP3   OH242886   2.607   1.819   1.573 -0.0128  0.4903 -0.1874
 7132TIP3    H142887   2.608   1.795   1.666  0.2738 -1.3591 -0.6529
 7132TIP3    H242888   2.517   1.803   1.545 -0.6539  3.0706  0.2498
 7133TIP3   OH242889   3.159   2.046  17.226  0.0511 -0.4833  0.2126
 7133TIP3    H142890   3.120   2.051  17.313  0.2757  0.2382  0.2761
 7133TIP3    H242891   3.093   2.003  17.172 -1.2509  1.6039  0.0790
 7134TIP3   OH242892   1.750   0.085   6.308 -0.2597  0.2515  0.3737
 7134TIP3    H142893   1.703   0.165   6.283  0.8527  0.1449 -2.2466
 7134TIP3    H242894   1.691   0.014   6.285  1.1343  0.1121 -3.0395
 7135TIP3   OH242895   6.411   3.727  12.650  0.0952  0.5130 -0.4878
 7135TIP3    H142896   6.368   3.792  12.706  1.2626  1.0679 -0.2026
 7135TIP3    H242897   6.372   3.644  12.675 -2.4587  1.2609 -1.8552
 7136TIP3   OH242898   1.051   6.053  14.693  0.0002 -0.4154 -1.0636
 7136TIP3    H142899   1.091   6.072  14.608 -0.5569  1.6628 -0.8924
 7136TIP3    H242900   1.120   6.011  14.743  1.5201  1.7554 -1.2829
 7137TIP3   OH242901   2.730   3.128  16.436 -0.0781 -0.2577 -0.4973
 7137TIP3    H142902   2.731   3.202  16.497  2.3950  2.0566 -3.2003
 7137TIP3    H242903   2.647   3.085  16.452 -0.8049  2.0503  2.4009
 7138TIP3   OH242904   1.880   1.941  14.175 -0.3813  0.2223  0.1408
 7138TIP3    H142905   1.882   2.031  14.208  1.2278  0.0044  0.6653
 7138TIP3    H242906   1.915   1.889  14.247  0.2965 -0.6222 -0.7896
 7139TIP3   OH242907   4.594   0.526  14.780 -0.2154 -0.2145 -0.7163
 7139TIP3    H142908   4.611   0.481  14.698 -0.8450 -1.1127 -0.3556
 7139TIP3    H242909   4.527   0.473  14.824 -0.0140  0.3491  0.2925
 7140TIP3   OH242910   0.483   3.109  10.944  0.5878 -0.0710  0.2972
 7140TIP3    H142911   0.465   3.182  10.885 -0.0466 -0.3836  0.0965
 7140TIP3    H242912   0.571   3.080  10.921  0.1290 -0.5590 -0.8896
 7141TIP3   OH242913   2.370   3.255  16.984 -0.5410 -0.2469 -0.0178
 7141TIP3    H142914   2.410   3.304  16.912 -0.3315 -1.4873 -0.7607
 7141TIP3    H242915   2.443   3.233  17.041 -0.9952  2.6862  1.8000
 7142TIP3   OH242916   2.503   1.430  14.897 -0.6376 -0.5985  0.2431
 7142TIP3    H142917   2.426   1.454  14.846  0.9566  2.2732 -0.8938
 7142TIP3    H242918   2.553   1.511  14.906  2.7119 -2.5491  0.2003
 7143TIP3   OH242919   2.363   1.005  14.824 -0.0454 -0.1038  0.0196
 7143TIP3    H142920   2.435   1.044  14.874  0.0395 -1.0935  0.6734
 7143TIP3    H242921   2.284   1.024  14.876 -0.4095  1.8526 -1.1892
 7144TIP3   OH242922   1.328   4.864  16.198  0.1510  0.5464  0.4564
 7144TIP3    H142923   1.277   4.928  16.148 -0.2410  0.9332  1.3471
 7144TIP3    H242924   1.263   4.816  16.249  0.3715 -0.9906 -0.6508
 7145TIP3   OH242925   3.928   1.297   3.512 -0.3616  0.2469  0.1933
 7145TIP3    H142926   3.991   1.225   3.514  0.1781  0.7204  0.3180
 7145TIP3    H242927   3.952   1.352   3.587 -2.7043 -1.0678  1.9891
 7146TIP3   OH242928   2.935   6.657  16.326 -0.0592  1.6776  0.1194
 7146TIP3    H142929   2.919   6.601  16.403  1.8164  1.0592  0.0857
 7146TIP3    H242930   2.959   6.742  16.363  2.4302  0.9479  0.2981
 7147TIP3   OH242931   5.644   0.288  17.211  0.3594 -0.3444  0.2813
 7147TIP3    H142932   5.733   0.280  17.247  0.6976  1.4596 -0.1044
 7147TIP3    H242933   5.587   0.264  17.284  1.1103  0.8407  1.2875
 7148TIP3   OH242934   4.792   4.397  15.725  0.3423  0.8091  0.2729
 7148TIP3    H142935   4.755   4.388  15.637 -0.5362  1.2905  0.5954
 7148TIP3    H242936   4.731   4.453  15.772  1.1936  1.1588  0.9795
 7149TIP3   OH242937   0.221   6.396  16.732  0.6882  0.4831 -0.8574
 7149TIP3    H142938   0.236   6.488  16.753  0.4000  0.1294  0.9791
 7149TIP3    H242939   0.138   6.396  16.685 -0.6867  0.9282  1.4578
 7150TIP3   OH242940   2.120   3.376  12.963  0.5453 -0.0757  0.5191
 7150TIP3    H142941   2.111   3.348  13.054 -0.8778 -1.2093  0.0496
 7150TIP3    H242942   2.061   3.319  12.914 -0.4307  1.9940 -0.8125
 7151TIP3   OH242943   5.594   4.352  11.723  0.1293  0.5568 -0.6736
 7151TIP3    H142944   5.689   4.355  11.706  0.0611  0.2101 -1.1428
 7151TIP3    H242945   5.574   4.437  11.760  0.5115  0.8876 -1.2099
 7152TIP3   OH242946   5.423   1.013  14.605  0.1245  0.6414  0.2432
 7152TIP3    H142947   5.421   1.063  14.523 -0.0379  0.5597  0.1982
 7152TIP3    H242948   5.497   1.050  14.653  0.1795  0.7351  0.0896
 7153TIP3   OH242949   6.647   3.147  13.618  0.7648 -0.0907  0.0191
 7153TIP3    H142950   6.689   3.075  13.571  0.0614 -0.5481  0.0814
 7153TIP3    H242951   6.700   3.224  13.596  2.5421 -0.8930  1.2910
 7154TIP3   OH242952   5.435   2.508   4.920  0.5676 -0.0327 -0.1206
 7154TIP3    H142953   5.457   2.592   4.959  2.4280 -0.1507 -0.8546
 7154TIP3    H242954   5.351   2.523   4.877 -0.3707  0.7255  1.8951
 7155TIP3   OH242955   3.014   3.283   3.474 -0.3777 -0.3919  0.5024
 7155TIP3    H142956   3.088   3.235   3.512  0.7848 -0.4481 -1.7184
 7155TIP3    H242957   3.050   3.369   3.453  0.2136 -1.5835 -3.9891
 7156TIP3   OH242958   3.549   6.472   2.183  0.1580  0.5258  0.5683
 7156TIP3    H142959   3.491   6.457   2.258 -0.0509 -0.1349  0.2745
 7156TIP3    H242960   3.547   6.567   2.171 -2.0909  0.4040 -0.3817
 7157TIP3   OH242961   6.705   2.274   4.921 -0.9433  0.2130  0.4885
 7157TIP3    H142962   6.704   2.359   4.966 -0.9959  0.0710  0.7555
 7157TIP3    H242963   6.632   2.226   4.958  1.2347 -1.3050  2.9399
 7158TIP3   OH242964   2.923   2.248  16.150 -0.2350  0.1579  0.3540
 7158TIP3    H142965   2.956   2.187  16.217  1.5689  1.9051  1.0900
 7158TIP3    H242966   2.901   2.192  16.076  1.2941 -1.4190  1.0450
 7159TIP3   OH242967   3.672   1.113  15.164 -0.0383  0.0222 -0.1588
 7159TIP3    H142968   3.756   1.118  15.209 -1.1194  0.4915  1.8290
 7159TIP3    H242969   3.680   1.175  15.091  0.7990  1.2039  0.9175
 7160TIP3   OH242970   3.327   2.986  11.723  0.1249 -0.2933 -0.2120
 7160TIP3    H142971   3.354   2.949  11.639  0.4417  0.5434 -0.4771
 7160TIP3    H242972   3.404   2.976  11.780  0.6620  1.1625 -0.6701
 7161TIP3   OH242973   5.855   2.686   3.184  0.1770  0.4184  0.6878
 7161TIP3    H142974   5.817   2.739   3.254  1.1516  1.6578  0.2892
 7161TIP3    H242975   5.947   2.711   3.182  0.5055 -0.8255  0.0645
 7162TIP3   OH242976   4.749   1.747  14.068  0.4435  0.6025  0.2817
 7162TIP3    H142977   4.843   1.760  14.058  0.7597  0.1374  2.4027
 7162TIP3    H242978   4.727   1.681  14.003  1.7811  0.0021  0.4225
 7163TIP3   OH242979   2.561   0.577  12.802 -0.3075  0.0065 -0.2941
 7163TIP3    H142980   2.471   0.581  12.771 -0.1368  3.4416 -0.5402
 7163TIP3    H242981   2.554   0.584  12.897 -0.3029 -0.0531 -0.2884
 7164TIP3   OH242982   3.713   2.646   5.204  0.4276 -0.0596  0.0924
 7164TIP3    H142983   3.777   2.577   5.192 -0.3984 -0.4440 -2.2398
 7164TIP3    H242984   3.655   2.640   5.128 -0.5034  2.2840  0.5561
 7165TIP3   OH242985   5.604   5.314   1.112  0.7943  0.5265 -0.4627
 7165TIP3    H142986   5.671   5.245   1.115 -2.0834 -2.4225 -0.9973
 7165TIP3    H242987   5.588   5.327   1.019  0.8144  1.4108 -0.3414
 7166TIP3   OH242988   0.696   6.449  10.906  0.7631 -0.0070 -0.1402
 7166TIP3    H142989   0.648   6.526  10.877  0.5317 -0.1998 -0.2646
 7166TIP3    H242990   0.633   6.377  10.900  0.4751  0.0771  1.5722
 7167TIP3   OH242991   5.449   6.076   2.274 -0.2515 -0.2301  0.1758
 7167TIP3    H142992   5.365   6.041   2.245  1.3398 -3.0235 -1.2398
 7167TIP3    H242993   5.492   6.002   2.318  2.0189  0.7612 -0.3154
 7168TIP3   OH242994   5.770   6.197  16.067 -0.1464 -0.1043  0.1360
 7168TIP3    H142995   5.731   6.125  16.117 -1.9036 -1.0640 -2.5243
 7168TIP3    H242996   5.697   6.257  16.051  0.7767  1.0558  0.2057
 7169TIP3   OH242997   3.265   2.934   3.707 -0.0732 -0.2383 -0.4094
 7169TIP3    H142998   3.267   2.857   3.651  1.3117  1.9990 -3.6028
 7169TIP3    H242999   3.358   2.955   3.723 -0.4336 -0.2966  2.0267
 7170TIP3   OH243000   1.958   3.421   1.848  0.3443  0.1729 -0.3468
 7170TIP3    H143001   2.045   3.439   1.810 -0.2176  0.6691 -1.4457
 7170TIP3    H243002   1.952   3.482   1.922 -0.0514  1.9517 -1.7968
 7171TIP3   OH243003   1.695   5.365   2.909  0.4118  0.0090  0.4046
 7171TIP3    H143004   1.615   5.324   2.876  0.4855  1.7857 -2.0513
 7171TIP3    H243005   1.750   5.291   2.937 -0.9918 -1.3574 -0.3951
 7172TIP3   OH243006   1.075   0.845  16.080  0.0054  0.7691 -0.5968
 7172TIP3    H143007   1.081   0.808  16.168  1.7614 -0.2651 -1.1181
 7172TIP3    H243008   0.982   0.842  16.058 -0.2370 -0.5747  0.5373
 7173TIP3   OH243009   2.179   5.483  11.915  0.1529 -0.1998  0.3805
 7173TIP3    H143010   2.258   5.509  11.868 -0.6185 -1.6638 -1.7694
 7173TIP3    H243011   2.189   5.523  12.002  2.5784  0.7914 -0.3130
 7174TIP3   OH243012   1.718   2.873   5.675 -0.7222 -0.5206 -0.1247
 7174TIP3    H143013   1.717   2.925   5.755 -0.4975 -1.7253  0.6733
 7174TIP3    H243014   1.643   2.904   5.625 -1.2542 -0.2241  0.8534
 7175TIP3   OH243015   5.882   5.930  14.312  0.2073  0.2978  0.1362
 7175TIP3    H143016   5.841   6.016  14.314  0.6632  0.5749 -1.7045
 7175TIP3    H243017   5.974   5.947  14.329 -0.2765 -0.2689  3.7143
 7176TIP3   OH243018   2.676   3.355  11.559  0.7644 -0.2975  0.3669
 7176TIP3    H143019   2.590   3.312  11.554  0.7767 -0.4598  1.3818
 7176TIP3    H243020   2.661   3.431  11.616  0.7384  1.0692 -1.4166
 7177TIP3   OH243021   1.019   4.435  14.641 -0.4374 -0.3075 -0.4980
 7177TIP3    H143022   1.113   4.431  14.653 -0.5382  0.8727  0.6410
 7177TIP3    H243023   1.003   4.517  14.594 -1.0914  0.5797  1.2427
 7178TIP3   OH243024   2.072   0.774  16.970 -0.4610 -0.1413  0.1549
 7178TIP3    H143025   1.978   0.760  16.986 -0.3245 -2.0665 -0.6174
 7178TIP3    H243026   2.075   0.835  16.896 -1.0755  2.7491  2.4149
 7179TIP3   OH243027   0.247   4.476   1.657  0.5351 -0.5716  0.0583
 7179TIP3    H143028   0.157   4.453   1.679  1.1283 -0.4446  2.7355
 7179TIP3    H243029   0.244   4.494   1.563 -2.5914  1.2204  0.4171
 7180TIP3   OH243030   0.510   6.255  16.256  0.5250 -0.6058 -0.0197
 7180TIP3    H143031   0.436   6.305  16.292  1.5763 -0.4330  1.9426
 7180TIP3    H243032   0.576   6.321  16.237  0.0862 -0.7294 -2.0627
 7181TIP3   OH243033   5.231   2.092   0.710 -0.0167  0.1534 -0.3750
 7181TIP3    H143034   5.192   2.134   0.786  1.3204  0.1718  0.3093
 7181TIP3    H243035   5.312   2.140   0.694 -0.1131 -0.0686 -1.6012
 7182TIP3   OH243036   0.542   3.067  16.997  0.0102 -0.0594 -1.0117
 7182TIP3    H143037   0.462   3.017  17.014  0.0216  0.2443 -0.0249
 7182TIP3    H243038   0.515   3.158  17.007  0.1440  0.1209 -2.1602
 7183TIP3   OH243039   1.393   0.538  14.920  0.1030 -0.0627 -0.6033
 7183TIP3    H143040   1.410   0.574  15.007  0.0338 -0.4643 -0.4230
 7183TIP3    H243041   1.479   0.522  14.883  0.1683 -2.9583  0.6637
 7184TIP3   OH243042   3.160   5.734   4.143  0.0706  0.2375  0.5895
 7184TIP3    H143043   3.073   5.767   4.118  0.1761 -0.8219 -1.3236
 7184TIP3    H243044   3.208   5.731   4.060  1.1483 -1.4600  1.2478
 7185TIP3   OH243045   4.004   3.593  17.145 -0.0572  0.1197  0.0079
 7185TIP3    H143046   3.944   3.520  17.132 -1.7903  1.6612 -0.9119
 7185TIP3    H243047   3.967   3.641  17.220  1.9643 -0.7973  1.6473
 7186TIP3   OH243048   0.346   5.814  12.453 -0.2029 -0.2877 -0.6012
 7186TIP3    H143049   0.323   5.881  12.389 -0.4067 -1.4387 -1.7449
 7186TIP3    H243050   0.440   5.826  12.468 -0.5717  1.3707  0.5239
 7187TIP3   OH243051   3.999   2.212  16.944  0.1406  0.2116  0.0918
 7187TIP3    H143052   4.010   2.222  16.849  0.9082  0.2255  0.1806
 7187TIP3    H243053   4.077   2.163  16.972 -0.6708 -0.8367  0.5408
 7188TIP3   OH243054   0.543   5.389  16.517  0.4262 -0.1317 -0.3993
 7188TIP3    H143055   0.560   5.480  16.495 -0.4115 -0.1319 -1.1163
 7188TIP3    H243056   0.479   5.360  16.451 -0.1042 -0.9291  0.4488
 7189TIP3   OH243057   3.473   2.229   3.993  0.2144  0.1193 -0.3624
 7189TIP3    H143058   3.530   2.293   4.036 -1.2345  1.1720  0.0324
 7189TIP3    H243059   3.453   2.268   3.908 -0.8126  0.3003 -0.0503
 7190TIP3   OH243060   4.797   2.106   3.761  0.0301  0.4363  0.3604
 7190TIP3    H143061   4.811   2.058   3.842  2.2894  1.8818  0.8863
 7190TIP3    H243062   4.743   2.181   3.787  0.3792  0.6593  0.4448
 7191TIP3   OH243063   3.970   2.949  11.096 -0.2458 -0.0446 -0.1258
 7191TIP3    H143064   3.992   2.889  11.025  0.9734 -0.6776  0.7607
 7191TIP3    H243065   4.019   3.029  11.076  0.2674 -0.2978  0.0960
 7192TIP3   OH243066   0.879   0.513  12.035  0.1116  0.3574 -0.2857
 7192TIP3    H143067   0.934   0.450  11.989  0.1368  0.1457  0.0318
 7192TIP3    H243068   0.921   0.598  12.019 -0.3292  0.3880 -1.3148
 7193TIP3   OH243069   2.962   5.794  12.554  0.0351 -0.0700 -0.1035
 7193TIP3    H143070   3.041   5.767  12.600  1.0376  2.0325 -0.5343
 7193TIP3    H243071   2.958   5.889  12.567 -2.0025 -0.0390 -0.7360
 7194TIP3   OH243072   5.644   6.455  16.631 -0.0961  0.2805 -0.0709
 7194TIP3    H143073   5.732   6.486  16.611  0.0980  0.2330  0.6854
 7194TIP3    H243074   5.595   6.468  16.550  0.8364 -0.5495 -0.7784
 7195TIP3   OH243075   5.481   5.807  16.675 -0.2438  0.6944 -0.2485
 7195TIP3    H143076   5.412   5.750  16.708 -0.1856  1.4200  1.1223
 7195TIP3    H243077   5.508   5.766  16.592 -2.3164  0.4280 -0.8124
 7196TIP3   OH243078   1.192   5.773  15.781 -0.9773 -0.5070  0.0881
 7196TIP3    H143079   1.220   5.726  15.860 -2.0495 -1.9256 -0.3399
 7196TIP3    H243080   1.271   5.779  15.727 -0.3377  0.0967  1.0859
 7197TIP3   OH243081   4.599   5.968  12.336  0.5603 -0.2555 -0.0509
 7197TIP3    H143082   4.694   5.968  12.345  0.4868 -0.1672  0.8460
 7197TIP3    H243083   4.578   5.877  12.316  0.7604 -0.5004  0.7943
 7198TIP3   OH243084   6.651   3.683  14.299 -0.3009  0.0565 -0.2682
 7198TIP3    H143085   6.558   3.701  14.285 -0.8031 -2.2369 -0.0761
 7198TIP3    H243086   6.690   3.690  14.212 -1.0066 -0.8424 -0.6711
 7199TIP3   OH243087   2.625   6.356   5.648  0.0626 -0.2923  0.0889
 7199TIP3    H143088   2.718   6.357   5.623  0.4461  1.1204  1.4668
 7199TIP3    H243089   2.614   6.274   5.697 -0.0070 -1.6388 -2.1100
 7200TIP3   OH243090   5.485   0.532  16.993 -0.2418 -0.4093 -1.0140
 7200TIP3    H143091   5.536   0.580  16.928 -0.0315 -1.3956 -1.5918
 7200TIP3    H243092   5.510   0.441  16.980 -1.8779 -0.8680 -1.0565
 7201TIP3   OH243093   6.787   4.427  10.424 -0.2801 -0.1467 -0.0056
 7201TIP3    H143094   6.870   4.472  10.440 -0.1769 -0.3262 -0.0378
 7201TIP3    H243095   6.793   4.397  10.334  0.1760 -1.3410  0.4156
 7202TIP3   OH243096   2.027   2.091  12.721  0.0437  0.4619  0.6107
 7202TIP3    H143097   2.007   2.000  12.697  0.4448  0.3339  0.7518
 7202TIP3    H243098   1.950   2.121  12.768  0.4120 -0.2061  1.6511
 7203TIP3   OH243099   1.979   0.615  11.873  0.1600  0.0927  0.4904
 7203TIP3    H143100   1.987   0.709  11.854 -0.5046  0.2525  0.9790
 7203TIP3    H243101   1.920   0.611  11.949  1.7888 -0.6026  1.7574
 7204TIP3   OH243102   2.062   0.180  12.294  0.2256 -0.0270 -0.1158
 7204TIP3    H143103   1.986   0.123  12.302  1.0382 -0.7640  3.2999
 7204TIP3    H243104   2.070   0.222  12.380  5.2492 -2.0650  0.5932
 7205TIP3   OH243105   3.775   5.077   2.121  0.1086 -0.3010  0.6396
 7205TIP3    H143106   3.835   5.151   2.112 -0.7031  0.3034  0.1503
 7205TIP3    H243107   3.757   5.071   2.215 -1.2983  1.3095  0.4925
 7206TIP3   OH243108   4.628   6.440   6.446  0.1072  0.1921  0.3268
 7206TIP3    H143109   4.664   6.359   6.411  1.4081 -0.6025  3.3628
 7206TIP3    H243110   4.697   6.475   6.501 -1.4769  1.9410  1.2599
 7207TIP3   OH243111   6.727   2.235   3.387 -0.0780  0.0256 -0.2310
 7207TIP3    H143112   6.822   2.247   3.390 -0.2818  1.5267  0.9353
 7207TIP3    H243113   6.692   2.324   3.385 -1.4499 -0.5296 -1.7921
 7208TIP3   OH243114   2.872   2.015   5.881  0.5679  0.4539 -0.5910
 7208TIP3    H143115   2.868   2.081   5.951  1.2837  0.1935 -0.3054
 7208TIP3    H243116   2.897   1.935   5.926  0.3157  0.1240 -1.0430
 7209TIP3   OH243117   1.656   5.133   2.527 -0.5225 -0.2060  0.4698
 7209TIP3    H143118   1.624   5.183   2.452 -0.0176 -1.7121 -0.7744
 7209TIP3    H243119   1.577   5.099   2.569 -0.8602  1.4426  1.2145
 7210TIP3   OH243120   5.740   0.292  14.427  0.2119 -0.2013 -0.1384
 7210TIP3    H143121   5.662   0.319  14.475 -0.4210 -2.0061 -0.1196
 7210TIP3    H243122   5.792   0.244  14.491  0.6234 -0.3342 -0.5686
 7211TIP3   OH243123   0.956   3.503  13.613 -0.0799 -0.2725 -0.3771
 7211TIP3    H143124   1.015   3.516  13.539 -0.7749  0.8728 -0.7341
 7211TIP3    H243125   0.922   3.414  13.601  1.3505 -0.8386 -0.3189
 7212TIP3   OH243126   5.202   2.526  14.633 -0.1024  0.2520 -0.1034
 7212TIP3    H143127   5.282   2.557  14.676 -1.0478 -0.9083  2.6088
 7212TIP3    H243128   5.228   2.444  14.591  0.7256  1.1587 -1.3913
 7213TIP3   OH243129   2.429   2.976   6.726 -0.5979 -0.1820  0.7613
 7213TIP3    H143130   2.353   3.021   6.763 -0.8079 -0.5404  0.7627
 7213TIP3    H243131   2.404   2.884   6.722 -1.3300  0.0914 -2.0788
 7214TIP3   OH243132   4.998   1.245   5.346 -0.1083  0.3434 -0.2230
 7214TIP3    H143133   4.959   1.325   5.382 -0.9416 -0.2954  0.3006
 7214TIP3    H243134   4.986   1.253   5.252 -2.2284 -0.2090 -0.0249
 7215TIP3   OH243135   6.340   6.747  12.852 -0.4191  0.1226  0.3054
 7215TIP3    H143136   6.387   6.813  12.801 -1.4271 -1.2060 -2.4277
 7215TIP3    H243137   6.402   6.674  12.858 -0.9966 -0.4476 -0.6522
 7216TIP3   OH243138   1.090   4.810   2.021 -0.4493 -0.2989 -0.7354
 7216TIP3    H143139   1.074   4.725   1.980  0.2563 -1.3481  1.1047
 7216TIP3    H243140   1.124   4.789   2.107 -2.7518  1.8501  0.7646
 7217TIP3   OH243141   6.360   4.729  16.927  0.1019  0.5085  0.0941
 7217TIP3    H143142   6.270   4.762  16.926  0.0941  0.5021 -1.8631
 7217TIP3    H243143   6.414   4.806  16.909  0.4644  0.4618  0.9960
 7218TIP3   OH243144   6.423   5.529   6.347 -0.0301 -0.1166  0.0690
 7218TIP3    H143145   6.381   5.614   6.340 -0.8883 -0.6664 -1.8871
 7218TIP3    H243146   6.369   5.471   6.293  2.8878 -0.9851 -2.0504
 7219TIP3   OH243147   3.300   0.360   3.852 -0.4409 -0.2423  0.0405
 7219TIP3    H143148   3.314   0.443   3.807 -0.0997  0.6651  1.7519
 7219TIP3    H243149   3.381   0.311   3.838  0.1886  0.5700  0.7667
 7220TIP3   OH243150   2.933   4.881   0.870 -0.3430 -0.8507  0.0135
 7220TIP3    H143151   2.927   4.786   0.880 -0.6123 -0.7887  0.4768
 7220TIP3    H243152   2.844   4.913   0.885 -0.0530 -0.4361  0.9439
 7221TIP3   OH243153   1.122   2.468  11.883  0.2514 -0.7526  0.4767
 7221TIP3    H143154   1.046   2.410  11.888  1.2362 -1.9708  1.9486
 7221TIP3    H243155   1.160   2.451  11.798 -1.3662  0.2073 -0.4733
 7222TIP3   OH243156   1.169   1.136   0.924  0.0361 -0.0191  0.0652
 7222TIP3    H143157   1.181   1.156   1.017 -0.0870  0.5147 -0.0296
 7222TIP3    H243158   1.198   1.045   0.915  1.3331  0.3521  0.3738
 7223TIP3   OH243159   2.356   6.491   1.705 -0.4436 -0.2845  0.0496
 7223TIP3    H143160   2.437   6.531   1.674 -0.3582 -0.3478  0.1898
 7223TIP3    H243161   2.365   6.398   1.684 -1.0999 -0.0701 -1.2506
 7224TIP3   OH243162   1.604   3.424   2.058  0.2933  0.0160  0.4471
 7224TIP3    H143163   1.526   3.369   2.059  1.9493 -2.3974  2.0508
 7224TIP3    H243164   1.646   3.405   1.974  0.6261 -0.8780  0.8057
 7225TIP3   OH243165   1.098   1.331  14.808 -0.1585 -0.5866  0.2038
 7225TIP3    H143166   1.169   1.395  14.821 -0.8984  0.0778  0.9574
 7225TIP3    H243167   1.143   1.246  14.807  0.4710 -0.3114  2.3756
 7226TIP3   OH243168   0.055   6.590  10.285 -0.4344  0.0853 -0.9799
 7226TIP3    H143169   0.140   6.551  10.264  0.7386  2.2087 -0.3414
 7226TIP3    H243170   0.076   6.658  10.349 -2.9520 -1.0400  1.0851
 7227TIP3   OH243171   2.624   6.444  10.804 -0.1739  0.0150  0.7540
 7227TIP3    H143172   2.683   6.401  10.866 -0.0183 -0.0783  0.5413
 7227TIP3    H243173   2.550   6.383  10.797  0.7524 -0.9605 -0.7315
 7228TIP3   OH243174   3.552   6.229   3.151 -0.9445 -0.5072 -0.6815
 7228TIP3    H143175   3.489   6.237   3.222 -1.4126 -0.2429 -1.1231
 7228TIP3    H243176   3.631   6.194   3.193 -1.4169 -0.9484 -0.1478
 7229TIP3   OH243177   3.868   1.534  13.676  0.1294 -0.4908 -0.1084
 7229TIP3    H143178   3.815   1.502  13.750 -1.9589  2.1309 -0.4120
 7229TIP3    H243179   3.817   1.513  13.599  0.4821  0.2953 -0.5581
 7230TIP3   OH243180   0.558   3.372   1.791  0.3400 -0.1869  0.5064
 7230TIP3    H143181   0.495   3.414   1.734  1.3117  0.8163  0.1642
 7230TIP3    H243182   0.577   3.288   1.749  0.3473  0.1468 -0.1501
 7231TIP3   OH243183   6.608   0.156  16.823 -0.1595  0.1730  0.1123
 7231TIP3    H143184   6.619   0.160  16.918 -1.0963  1.1728  0.1932
 7231TIP3    H243185   6.654   0.233  16.790 -1.2068  0.7266 -0.0946
 7232TIP3   OH243186   3.303   6.487   6.337  0.3177  0.0184 -0.0716
 7232TIP3    H143187   3.216   6.512   6.307 -0.5914 -1.3476  1.3259
 7232TIP3    H243188   3.323   6.549   6.407  1.1726  1.3493 -1.4819
 7233TIP3   OH243189   1.295   4.794  14.125  0.4549 -0.1107  0.4071
 7233TIP3    H143190   1.205   4.815  14.104  0.2969 -0.4188  0.7604
 7233TIP3    H243191   1.320   4.727  14.060  0.9886  1.2162 -0.7735
 7234TIP3   OH243192   2.835   5.295   1.566  0.1397 -0.2867 -0.3983
 7234TIP3    H143193   2.830   5.314   1.473  1.6398  0.3730 -0.3601
 7234TIP3    H243194   2.878   5.210   1.572  0.1235 -0.2893 -0.3075
 7235TIP3   OH243195   4.916   6.401  16.224 -0.2094  0.3794  0.3176
 7235TIP3    H143196   4.883   6.447  16.147 -2.3225 -1.0717  0.3281
 7235TIP3    H243197   4.926   6.470  16.290  0.6502  1.4693 -0.9227
 7236TIP3   OH243198   0.723   3.060  10.842 -0.4682 -0.2629  0.7329
 7236TIP3    H143199   0.788   3.128  10.864  1.2968 -1.3171 -1.0423
 7236TIP3    H243200   0.720   3.059  10.746 -0.4705 -2.6590  0.7151
 7237TIP3   OH243201   3.906   1.007   1.859 -0.3553 -0.0966  0.4766
 7237TIP3    H143202   3.921   0.916   1.885  0.1884  0.4034  1.9859
 7237TIP3    H243203   3.990   1.050   1.873 -1.0991  1.0420  1.5619
 7238TIP3   OH243204   2.053   4.424  11.823  0.2681 -0.7480 -0.5144
 7238TIP3    H143205   2.116   4.420  11.895  1.1120  0.0872 -1.2132
 7238TIP3    H243206   2.078   4.354  11.764  0.3402 -0.6149 -0.6389
 7239TIP3   OH243207   4.237   6.526   3.564 -0.0866 -0.0301  0.2910
 7239TIP3    H143208   4.200   6.605   3.524  0.7457  0.3761  0.3138
 7239TIP3    H243209   4.224   6.458   3.498  1.2453  0.6329 -0.6616
 7240TIP3   OH243210   5.019   3.345   2.938 -0.0404  0.2375  0.2128
 7240TIP3    H143211   4.937   3.361   2.984  0.4725  1.5162  0.7215
 7240TIP3    H243212   5.010   3.390   2.854 -0.4677 -0.9718 -0.3908
 7241TIP3   OH243213   6.031   6.506   5.749  0.4211 -0.6950  0.0692
 7241TIP3    H143214   6.014   6.436   5.812  1.0235 -1.2997 -0.4373
 7241TIP3    H243215   6.115   6.542   5.776  1.5437 -2.1009 -1.3987
 7242TIP3   OH243216   3.970   5.734  14.556 -0.4937  0.3217 -0.1097
 7242TIP3    H143217   3.885   5.726  14.512 -0.9335 -2.3938  1.1224
 7242TIP3    H243218   4.029   5.679  14.505  0.1292  0.8509  0.0244
 7243TIP3   OH243219   1.170   2.959  16.187 -0.0724 -0.2368  0.4475
 7243TIP3    H143220   1.095   2.996  16.234 -1.5888 -0.2228 -1.8855
 7243TIP3    H243221   1.246   3.002  16.227 -1.4635  1.6219  1.2077
 7244TIP3   OH243222   1.522   6.549  16.349  0.5880  0.2614  0.3312
 7244TIP3    H143223   1.577   6.498  16.290  0.1651 -0.0030  0.1673
 7244TIP3    H243224   1.575   6.627  16.369  1.0069  0.0284  0.1459
 7245TIP3   OH243225   2.149   4.331   3.033  0.2037  0.4456  0.0023
 7245TIP3    H143226   2.056   4.338   3.055  0.6372  1.7218  1.5807
 7245TIP3    H243227   2.169   4.412   2.985  0.7179  0.6773  0.5902
 7246TIP3   OH243228   2.356   1.693   4.646 -0.0467 -0.2660  0.4140
 7246TIP3    H143229   2.308   1.725   4.570  1.0769  0.3330 -0.0578
 7246TIP3    H243230   2.318   1.608   4.665 -1.8498  0.5667  0.5574
 7247TIP3   OH243231   4.133   2.264   1.185  0.2944  0.0081 -0.0605
 7247TIP3    H143232   4.182   2.263   1.103 -2.1454 -0.5354 -1.5673
 7247TIP3    H243233   4.114   2.172   1.202 -0.8141  0.2645  0.1007
 7248TIP3   OH243234   5.010   1.561   3.180 -0.6484  0.2808 -0.1537
 7248TIP3    H143235   4.917   1.539   3.174 -0.7405  0.3886  0.8328
 7248TIP3    H243236   5.024   1.581   3.273  0.8038 -1.8129  0.1211
 7249TIP3   OH243237   6.796   1.591   4.635 -0.2282  0.1731 -0.1892
 7249TIP3    H143238   6.770   1.538   4.710  1.2742 -0.4670 -0.1008
 7249TIP3    H243239   6.793   1.681   4.667 -0.5471 -0.0293  0.3487
 7250TIP3   OH243240   0.784   4.711   5.169  0.3470 -0.3422  0.1781
 7250TIP3    H143241   0.691   4.688   5.173  0.1622 -0.0564 -1.6010
 7250TIP3    H243242   0.795   4.778   5.236 -0.6869 -0.5396  0.5574
 7251TIP3   OH243243   3.706   4.739   4.524 -0.3078  0.1619  0.1347
 7251TIP3    H143244   3.771   4.781   4.580  1.3423 -0.1032 -1.5316
 7251TIP3    H243245   3.627   4.735   4.577  1.0023  0.6099  2.1472
 7252TIP3   OH243246   3.101   3.040   4.632  0.4929  0.0082  0.0214
 7252TIP3    H143247   3.024   3.083   4.593 -0.9760 -1.2204  1.5189
 7252TIP3    H243248   3.098   2.950   4.599 -1.2530 -1.3016  3.5402
 7253TIP3   OH243249   5.501   3.623   3.507 -0.0568 -0.1054  0.3396
 7253TIP3    H143250   5.472   3.590   3.422  0.8157  2.8949 -1.1955
 7253TIP3    H243251   5.550   3.551   3.546 -0.5611 -1.5470 -1.6689
 7254TIP3   OH243252   6.820   4.244   4.464 -0.3049  0.5580  0.2636
 7254TIP3    H143253   6.739   4.258   4.414 -0.5449  1.2016  0.8162
 7254TIP3    H243254   6.791   4.213   4.549  0.0715  0.0668  0.2158
 7255TIP3   OH243255   2.156   4.090   2.414  0.7288 -0.6446  0.1115
 7255TIP3    H143256   2.144   4.185   2.409  1.2161 -0.5817  0.1478
 7255TIP3    H243257   2.240   4.074   2.370  0.6548 -1.0553  0.1189
 7256TIP3   OH243258   6.453   2.456  16.178  0.2267 -0.0564 -0.6823
 7256TIP3    H143259   6.392   2.473  16.106 -1.2708  0.9464  0.7733
 7256TIP3    H243260   6.523   2.404  16.139 -1.3418 -0.8516 -2.5088
 7257TIP3   OH243261   1.848   1.444   2.233 -0.4122  0.2864 -0.2937
 7257TIP3    H143262   1.907   1.467   2.161 -0.5392 -3.2656 -1.6181
 7257TIP3    H243263   1.768   1.494   2.215  0.7302  2.0212 -0.7149
 7258TIP3   OH243264   0.484   3.519   0.474 -0.3873 -0.2326  0.0023
 7258TIP3    H143265   0.556   3.457   0.484 -0.2641 -0.4202 -1.8458
 7258TIP3    H243266   0.421   3.495   0.542  1.1175 -0.2961  1.3979
 7259TIP3   OH243267   0.068   5.446   3.921  0.5203 -0.1304 -0.4786
 7259TIP3    H143268   0.077   5.383   3.849  1.1975  2.0014 -2.3027
 7259TIP3    H243269   0.143   5.504   3.913  0.4195  0.3687  1.7641
 7260TIP3   OH243270   4.628   1.731   0.483 -0.7817  0.5992 -0.3236
 7260TIP3    H143271   4.559   1.664   0.486 -0.7549  0.6493  3.9010
 7260TIP3    H243272   4.582   1.813   0.472 -1.1712  0.3901 -0.2579
 7261TIP3   OH243273   3.782   0.675  17.036 -0.1312 -0.1249 -0.8565
 7261TIP3    H143274   3.804   0.769  17.042 -0.8529  0.0950 -1.6357
 7261TIP3    H243275   3.824   0.646  16.955  2.4076 -1.1337  0.7425
 7262TIP3   OH243276   2.757   2.718   4.468 -0.3145 -0.1417 -0.3711
 7262TIP3    H143277   2.849   2.694   4.474 -0.4303 -0.6334 -0.5159
 7262TIP3    H243278   2.721   2.696   4.554 -0.1781  0.5737 -0.1279
 7263TIP3   OH243279   2.185   5.540  15.700  0.0540 -0.1895  0.2855
 7263TIP3    H143280   2.188   5.537  15.796 -1.3903 -0.3866  0.3338
 7263TIP3    H243281   2.092   5.550  15.679 -0.0170 -3.1690 -1.1523
 7264TIP3   OH243282   5.534   1.561   2.207 -0.2896 -0.1962  0.0451
 7264TIP3    H143283   5.560   1.541   2.117 -0.8601  0.8318 -0.3533
 7264TIP3    H243284   5.608   1.610   2.243  0.7619 -2.2504  0.7638
 7265TIP3   OH243285   5.579   3.324   3.494 -0.4189  0.3093 -0.4341
 7265TIP3    H143286   5.633   3.290   3.566 -1.5847  2.7268  1.6744
 7265TIP3    H243287   5.503   3.266   3.493 -0.1890 -0.0094 -0.0060
 7266TIP3   OH243288   5.390   1.421   5.828  0.1142  0.2279  0.4741
 7266TIP3    H143289   5.425   1.336   5.854  2.7384  0.1144 -2.9781
 7266TIP3    H243290   5.410   1.479   5.902  0.6964 -1.5775  1.7678
 7267TIP3   OH243291   4.700   4.718  13.953 -0.4864 -0.1903 -0.0862
 7267TIP3    H143292   4.757   4.728  13.877 -0.1366 -1.9161 -0.0640
 7267TIP3    H243293   4.756   4.679  14.020 -1.1395  0.0882  0.6236
 7268TIP3   OH243294   4.437   0.075   4.470 -0.3289 -0.1061  0.0373
 7268TIP3    H143295   4.382   0.151   4.453  0.8551  0.5608 -0.8703
 7268TIP3    H243296   4.393   0.030   4.542 -2.1233  0.3348 -0.7369
 7269TIP3   OH243297   6.462   3.860   2.624 -0.2665 -0.2939  0.1339
 7269TIP3    H143298   6.384   3.804   2.625  0.3963 -1.2502 -0.6666
 7269TIP3    H243299   6.498   3.850   2.536  0.2349  0.8899  0.1931
 7270TIP3   OH243300   6.763   4.120   2.312 -0.7045 -0.1151  0.1216
 7270TIP3    H143301   6.815   4.040   2.313  0.0328  0.3624  0.7279
 7270TIP3    H243302   6.810   4.179   2.371 -0.1309  1.4705 -1.8941
 7271TIP3   OH243303   1.169   1.612   5.924  0.0251 -0.0083 -0.0425
 7271TIP3    H143304   1.206   1.645   6.005  0.1808 -1.7756  0.6274
 7271TIP3    H243305   1.194   1.676   5.857 -1.1884  2.1331  1.4990
 7272TIP3   OH243306   2.890   3.067  12.132  0.5809  0.3346 -0.6050
 7272TIP3    H143307   2.978   3.042  12.160  0.9433  1.7745 -0.3983
 7272TIP3    H243308   2.836   3.056  12.210  1.0213  1.5866 -0.1210
 7273TIP3   OH243309   0.016   2.402   3.866 -0.2104  0.0410 -0.4715
 7273TIP3    H143310  -0.044   2.476   3.863  0.3081  0.4319 -1.2774
 7273TIP3    H243311  -0.019   2.346   3.935 -2.1366 -0.2924 -1.6832
 7274TIP3   OH243312   0.795   5.643  12.476  0.0278  0.1832  0.1874
 7274TIP3    H143313   0.763   5.710  12.536 -0.0448  0.2847  0.0356
 7274TIP3    H243314   0.741   5.653  12.398  0.9322  0.8557 -0.3617
 7275TIP3   OH243315   1.314   0.843  11.368  0.5132  0.0199  0.2414
 7275TIP3    H143316   1.355   0.886  11.443  0.8861  0.0115  0.0446
 7275TIP3    H243317   1.387   0.803  11.321 -0.0341 -2.7027  1.6131
 7276TIP3   OH243318   5.857   3.064  16.797  0.0833 -0.0252 -0.1750
 7276TIP3    H143319   5.947   3.047  16.769 -0.0142 -1.0076  0.0954
 7276TIP3    H243320   5.821   2.978  16.815 -1.0612  0.3349 -0.7254
 7277TIP3   OH243321   3.063   2.101   4.892 -0.1007  0.0762  0.5630
 7277TIP3    H143322   3.087   2.154   4.816 -0.2744  1.2152  1.2840
 7277TIP3    H243323   3.055   2.164   4.963  0.1817 -0.9967  1.5588
 7278TIP3   OH243324   2.337   2.055  14.207  0.2207  0.2156 -0.2434
 7278TIP3    H143325   2.405   2.009  14.257 -1.6207 -1.9894  0.2832
 7278TIP3    H243326   2.298   1.987  14.152 -1.3989  1.5293 -0.7294
 7279TIP3   OH243327   0.494   3.479  13.506 -0.0067 -0.0100  0.5797
 7279TIP3    H143328   0.517   3.567  13.534  1.3085 -0.1937  0.1063
 7279TIP3    H243329   0.450   3.440  13.582  1.3355  0.3232  1.5393
 7280TIP3   OH243330   6.365   6.196  17.260  0.2627 -0.4611  0.0531
 7280TIP3    H143331   6.362   6.252  17.338  2.1006  0.8853 -0.8368
 7280TIP3    H243332   6.279   6.208  17.219 -0.3648 -0.4458  1.3337
 7281TIP3   OH243333   5.438   6.625   3.395  0.4206  0.0249 -0.2227
 7281TIP3    H143334   5.480   6.539   3.399 -0.4848 -0.3603  1.4589
 7281TIP3    H243335   5.506   6.686   3.424  0.3804 -0.4068  0.8357
 7282TIP3   OH243336   2.153   3.179   4.359 -0.3031 -0.2662  0.2627
 7282TIP3    H143337   2.233   3.140   4.323 -0.0363 -1.9576  2.6003
 7282TIP3    H243338   2.086   3.161   4.293  1.2154  1.2535 -1.7831
 7283TIP3   OH243339   2.886   6.135  14.490  0.4529 -0.1410 -0.0075
 7283TIP3    H143340   2.947   6.208  14.478  1.5860 -1.3993 -2.0573
 7283TIP3    H243341   2.810   6.175  14.533  1.9727  1.7916  0.9588
 7284TIP3   OH243342   3.980   3.852   4.842  1.2748  0.0530  0.2492
 7284TIP3    H143343   3.948   3.768   4.873  1.0399  0.1303  0.2185
 7284TIP3    H243344   3.931   3.917   4.893  0.7117  0.1860 -0.4451
 7285TIP3   OH243345   3.495   0.231  13.574  0.5919  0.1534 -0.2126
 7285TIP3    H143346   3.488   0.151  13.523 -0.5695  1.2437 -1.8071
 7285TIP3    H243347   3.550   0.207  13.649 -0.7975 -2.4555  0.0379
 7286TIP3   OH243348   4.192   2.917  11.649  0.0311 -0.3151  0.2131
 7286TIP3    H143349   4.157   2.852  11.588 -2.1694  0.8587  0.1800
 7286TIP3    H243350   4.187   3.000  11.602 -0.1277  0.3539  1.3759
 7287TIP3   OH243351   3.404   5.720   3.379 -0.1257  0.3172 -0.0588
 7287TIP3    H143352   3.479   5.743   3.324  0.2126  1.7173  0.9470
 7287TIP3    H243353   3.439   5.722   3.468 -0.9144 -0.8772  0.2869
 7288TIP3   OH243354   5.796   4.395   2.698 -0.6565  0.4352  0.7038
 7288TIP3    H143355   5.823   4.315   2.744 -0.5672  0.2455  0.3255
 7288TIP3    H243356   5.844   4.392   2.615 -0.9136  0.7138  0.5452
 7289TIP3   OH243357   3.285   4.641  15.938 -0.2570  0.0624  0.2850
 7289TIP3    H143358   3.279   4.545  15.942 -0.2756  0.0736  0.5236
 7289TIP3    H243359   3.331   4.665  16.018  2.8171 -0.0252 -1.3549
 7290TIP3   OH243360   1.482   5.591  12.224  0.2055 -0.6051 -0.2634
 7290TIP3    H143361   1.494   5.497  12.241  0.3616 -0.3561  1.1224
 7290TIP3    H243362   1.500   5.632  12.309  0.6372  0.7201 -0.9907
 7291TIP3   OH243363   2.184   5.166  10.714 -0.0499 -0.0581 -0.2148
 7291TIP3    H143364   2.160   5.117  10.793 -3.4348 -0.8468 -1.5977
 7291TIP3    H243365   2.209   5.098  10.651  3.3283  0.6115  0.3256
 7292TIP3   OH243366   3.518   6.134   0.394 -0.3102  0.4004 -0.1394
 7292TIP3    H143367   3.571   6.063   0.430 -0.9395  0.7742  1.6050
 7292TIP3    H243368   3.543   6.211   0.445 -2.5321  0.5733  0.7573
 7293TIP3   OH243369   2.377   2.882   1.073 -0.5882 -0.1801  1.0696
 7293TIP3    H143370   2.430   2.803   1.073  0.5489  0.5700 -0.4681
 7293TIP3    H243371   2.300   2.860   1.021 -0.1810 -0.2134  0.4831
 7294TIP3   OH243372   0.134   1.758   3.431 -0.0908  0.1663  0.3876
 7294TIP3    H143373   0.132   1.804   3.514  1.8899 -2.1927  1.8176
 7294TIP3    H243374   0.128   1.665   3.455 -0.2352 -0.5181 -2.1499
 7295TIP3   OH243375   6.118   5.145  10.680  0.0000 -0.1184 -0.1032
 7295TIP3    H143376   6.193   5.156  10.622 -0.9333  1.0195 -1.1133
 7295TIP3    H243377   6.117   5.225  10.733  0.4678 -0.8680  1.0794
 7296TIP3   OH243378   5.018   1.630  15.860 -0.2463  0.8802 -0.1850
 7296TIP3    H143379   4.929   1.602  15.841  0.3701 -2.0881  1.0400
 7296TIP3    H243380   5.015   1.659  15.951 -0.1989  1.9865 -0.5213
 7297TIP3   OH243381   3.585   2.261  17.006 -0.7857 -0.2070 -0.1695
 7297TIP3    H143382   3.548   2.199  17.068 -1.9565  0.0233 -0.6197
 7297TIP3    H243383   3.605   2.209  16.928 -3.6667  0.2825 -1.3098
 7298TIP3   OH243384   2.029   2.040  11.089  0.3629  0.1856 -0.0544
 7298TIP3    H143385   2.097   2.107  11.095  1.4477 -0.8291 -0.7476
 7298TIP3    H243386   2.038   1.988  11.168 -1.5935  1.8386  1.3282
 7299TIP3   OH243387   0.259   0.559   0.249  0.5143 -0.4852  0.2779
 7299TIP3    H143388   0.245   0.607   0.168  1.2506 -1.0618 -0.1879
 7299TIP3    H243389   0.269   0.468   0.222  0.0713 -0.7752  1.0763
 7300TIP3   OH243390   4.659   6.011   3.900 -0.2531 -0.8358  0.1782
 7300TIP3    H143391   4.580   6.035   3.949  0.3156 -0.8070  1.0804
 7300TIP3    H243392   4.661   6.073   3.827 -0.0209  0.4110  1.2291
 7301TIP3   OH243393   6.213   0.627   2.477 -0.2351 -0.2232 -0.4854
 7301TIP3    H143394   6.286   0.568   2.458 -1.4347 -2.0764  0.4443
 7301TIP3    H243395   6.152   0.613   2.405  0.1993  1.1349 -1.1308
 7302TIP3   OH243396   4.245   2.964   0.239 -0.5402  0.0416  0.6373
 7302TIP3    H143397   4.255   3.043   0.185  1.9175 -1.2819 -0.9751
 7302TIP3    H243398   4.181   2.911   0.192  2.5109 -1.6681 -1.8602
 7303TIP3   OH243399   3.176   0.701   3.306  0.1727  0.3079  0.3586
 7303TIP3    H143400   3.258   0.679   3.261  0.4225  0.7964  0.5738
 7303TIP3    H243401   3.177   0.647   3.385 -0.8111 -1.4128 -0.7822
 7304TIP3   OH243402   3.077   0.182  12.810  0.2746  0.4876  0.1165
 7304TIP3    H143403   3.029   0.111  12.767  0.1822  0.0585  0.9268
 7304TIP3    H243404   3.167   0.169  12.782  0.4567 -0.6418  1.1575
 7305TIP3   OH243405   2.125   6.759  16.103  0.0066  0.2152  0.1922
 7305TIP3    H143406   2.157   6.762  16.013 -0.8926  1.0551 -0.1117
 7305TIP3    H243407   2.030   6.748  16.094  0.0623 -1.0455  1.0569
 7306TIP3   OH243408   0.741   0.123  10.659 -0.5570  0.2928 -0.0987
 7306TIP3    H143409   0.752   0.030  10.637 -0.2348  0.9530 -2.9437
 7306TIP3    H243410   0.829   0.152  10.684 -0.7431 -0.2587  1.2234
 7307TIP3   OH243411   6.441   1.647   5.319 -0.6837 -0.1997 -0.0583
 7307TIP3    H143412   6.519   1.593   5.336 -1.3455 -0.9202  0.7421
 7307TIP3    H243413   6.389   1.640   5.399 -1.4486  0.4909 -0.4891
 7308TIP3   OH243414   2.621   2.881  12.162  0.6367 -0.6528  0.4669
 7308TIP3    H143415   2.573   2.959  12.133 -0.6332 -0.3468  3.1789
 7308TIP3    H243416   2.690   2.916  12.220  2.4372 -1.2973 -1.2448
 7309TIP3   OH243417   3.342   4.590  15.526 -0.0068  0.1977 -0.3519
 7309TIP3    H143418   3.349   4.664  15.585  1.4898  0.3716 -0.7162
 7309TIP3    H243419   3.329   4.629  15.439 -1.0726 -0.0241 -0.2984
 7310TIP3   OH243420   0.549   3.623   4.261 -0.6688 -0.1049  0.2965
 7310TIP3    H143421   0.627   3.572   4.281  1.1203  1.9571 -1.1855
 7310TIP3    H243422   0.558   3.702   4.314 -1.9462 -0.0395  0.4206
 7311TIP3   OH243423   3.278   2.362  13.530  0.4076 -0.2743 -0.3608
 7311TIP3    H143424   3.248   2.340  13.618 -1.0444 -1.5842 -1.1485
 7311TIP3    H243425   3.225   2.307  13.473  0.6503  1.2705 -2.1086
 7312TIP3   OH243426   5.092   0.891  15.273 -0.3349  0.7103  0.2098
 7312TIP3    H143427   5.111   0.857  15.185 -1.2681 -1.3849  0.7857
 7312TIP3    H243428   5.161   0.853  15.328  0.6124  2.5209  0.2880
 7313TIP3   OH243429   0.311   3.619  16.663 -0.0730  0.1486 -0.3020
 7313TIP3    H143430   0.283   3.653  16.578  0.7331  0.9124 -0.2665
 7313TIP3    H243431   0.305   3.695  16.722  2.3600  0.4178 -0.3659
 7314TIP3   OH243432   5.346   1.071  12.018  0.0310  0.5725  0.2016
 7314TIP3    H143433   5.416   1.013  12.048 -0.4090  0.5696  1.2587
 7314TIP3    H243434   5.267   1.035  12.060 -0.2022  2.1163  1.1241
 7315TIP3   OH243435   4.181   4.108   3.738  0.0987 -0.4739 -0.0410
 7315TIP3    H143436   4.148   4.176   3.797  0.1929  0.5772 -1.1806
 7315TIP3    H243437   4.206   4.036   3.796 -1.3371 -0.0946  1.0734
 7316TIP3   OH243438   5.683   6.048   5.789  0.0903  0.1433  0.0015
 7316TIP3    H143439   5.756   5.986   5.783 -0.0056  0.0585 -0.2762
 7316TIP3    H243440   5.675   6.065   5.883  1.1264  0.9386 -0.0456
 7317TIP3   OH243441   3.861   6.198   5.259  0.0995 -0.5153  0.3280
 7317TIP3    H143442   3.809   6.132   5.212 -0.0752 -0.8795  1.0268
 7317TIP3    H243443   3.901   6.149   5.331  1.1084 -0.1562  0.0199
 7318TIP3   OH243444   4.237   1.763  11.595  0.4714  0.4392 -0.2844
 7318TIP3    H143445   4.203   1.775  11.684 -0.4473 -1.0812 -0.4176
 7318TIP3    H243446   4.196   1.834  11.545 -0.6699  0.0436  0.0653
 7319TIP3   OH243447   0.745   4.645  13.445  0.0010  0.4166 -0.7472
 7319TIP3    H143448   0.778   4.637  13.355  1.9755  0.4382 -0.0458
 7319TIP3    H243449   0.771   4.733  13.472  0.0715  0.1398  0.1043
 7320TIP3   OH243450   1.627   1.368  11.375 -0.3367 -0.2595  0.6686
 7320TIP3    H143451   1.685   1.295  11.397 -0.8312 -0.3948  1.5129
 7320TIP3    H243452   1.678   1.420  11.313  0.6618 -0.4187  1.3436
 7321TIP3   OH243453   5.290   6.322  14.784 -0.6978  0.4339  0.3442
 7321TIP3    H143454   5.292   6.337  14.878 -1.0441  2.0064  0.1072
 7321TIP3    H243455   5.353   6.384  14.748  1.4287 -1.9848 -0.2437
 7322TIP3   OH243456   4.067   4.224  11.887  0.3094  0.2106  0.0783
 7322TIP3    H143457   4.091   4.306  11.930  0.0977 -0.0527  0.7082
 7322TIP3    H243458   3.998   4.249  11.826 -0.1916  0.4093  0.7119
 7323TIP3   OH243459   0.060   4.752   1.682  0.1003 -0.5031  0.2776
 7323TIP3    H143460   0.143   4.713   1.709  0.6834 -0.5545 -1.5697
 7323TIP3    H243461   0.080   4.845   1.669 -0.8544  0.1119  2.8127
 7324TIP3   OH243462   1.712   5.895   4.414 -0.0130 -0.4305 -0.6088
 7324TIP3    H143463   1.686   5.981   4.449  0.7749 -1.4116  2.5745
 7324TIP3    H243464   1.754   5.915   4.331  0.9301  2.3723  0.4875
 7325TIP3   OH243465   1.679   5.898  15.873  0.2913  0.0902 -0.1844
 7325TIP3    H143466   1.733   5.960  15.921  0.2334 -0.3498  0.4467
 7325TIP3    H243467   1.673   5.935  15.785  0.7564  0.6703  0.0271
 7326TIP3   OH243468   3.140   2.346   0.313  0.3325  0.3047  0.0541
 7326TIP3    H143469   3.066   2.385   0.359  0.0219  1.1897 -1.1394
 7326TIP3    H243470   3.217   2.376   0.360  0.0637  1.9497 -0.5142
 7327TIP3   OH243471   2.141   4.772   0.892 -0.4324 -0.1971 -0.2052
 7327TIP3    H143472   2.128   4.818   0.810 -0.9348  0.8942  0.4777
 7327TIP3    H243473   2.178   4.838   0.951  0.3670 -1.0855  0.3172
 7328TIP3   OH243474   1.210   3.435  14.370 -0.1654 -0.0410  0.6592
 7328TIP3    H143475   1.123   3.413  14.334 -0.4653 -1.4112  2.1539
 7328TIP3    H243476   1.244   3.352  14.402  1.8291  0.4472 -0.1222
 7329TIP3   OH243477   6.055   2.052   6.054  0.1553  0.4742 -0.1947
 7329TIP3    H143478   6.079   2.121   5.992 -0.1867  2.7191  2.0605
 7329TIP3    H243479   5.959   2.056   6.058  0.2445  1.5723  1.7280
 7330TIP3   OH243480   0.592   2.234   1.351  0.1082 -0.1944 -0.1420
 7330TIP3    H143481   0.539   2.311   1.332  1.2275  0.6638  0.1912
 7330TIP3    H243482   0.547   2.191   1.423  1.4922  2.1867  2.2142
 7331TIP3   OH243483   0.756   4.362  16.977  0.7004 -0.5329 -0.2221
 7331TIP3    H143484   0.662   4.354  16.995  0.6116 -1.6330 -1.0757
 7331TIP3    H243485   0.795   4.386  17.060 -0.3362 -0.1237  0.1585
 7332TIP3   OH243486   2.376   1.596   5.599 -0.1379 -0.2202  0.0741
 7332TIP3    H143487   2.354   1.507   5.627 -1.1742  0.2588  0.8035
 7332TIP3    H243488   2.400   1.587   5.507  0.1185 -1.3103  0.2401
 7333TIP3   OH243489   4.328   5.384  13.284  0.4177 -0.3040  0.3139
 7333TIP3    H143490   4.254   5.342  13.328 -0.3859  1.0805  0.3157
 7333TIP3    H243491   4.362   5.447  13.349  0.5208  0.2759 -0.2996
 7334TIP3   OH243492   6.677   4.399  16.279  0.4805 -0.1646  0.8976
 7334TIP3    H143493   6.636   4.456  16.344 -0.2289 -1.0509  1.2302
 7334TIP3    H243494   6.669   4.311  16.316  1.1958 -0.5327  0.1854
 7335TIP3   OH243495   2.596   0.806  12.381  0.4773 -0.3250  0.0636
 7335TIP3    H143496   2.690   0.810  12.367  0.7296 -2.0111  1.0933
 7335TIP3    H243497   2.559   0.799  12.293  1.3370 -0.1684 -0.3205
 7336TIP3   OH243498   2.137   1.497   4.936 -0.2184 -0.0284  0.1268
 7336TIP3    H143499   2.176   1.562   4.993  1.1229  0.0529 -0.8516
 7336TIP3    H243500   2.045   1.522   4.930  0.1704  1.4522  0.1898
 7337TIP3   OH243501   1.079   0.712   5.865 -0.7509 -0.2898  0.2680
 7337TIP3    H143502   0.997   0.677   5.830 -1.3457  1.2630  0.0716
 7337TIP3    H243503   1.125   0.746   5.788  0.2810 -1.5404  0.3198
 7338TIP3   OH243504   0.048   5.467  17.272  0.6150 -0.5908  0.8719
 7338TIP3    H143505  -0.042   5.497  17.288  0.3750 -0.1050 -1.2144
 7338TIP3    H243506   0.084   5.453  17.359 -1.3316 -0.3254  1.7583
 7339TIP3   OH243507   2.959   2.709  16.782 -0.1455 -0.4728  0.4646
 7339TIP3    H143508   2.988   2.688  16.871 -2.0947  1.0028  1.5008
 7339TIP3    H243509   2.941   2.803  16.784 -3.8710 -1.0682 -0.3441
 7340TIP3   OH243510   1.573   4.565  13.324  0.2260 -0.3108  0.4202
 7340TIP3    H143511   1.599   4.478  13.354  0.8933  0.1386  1.1686
 7340TIP3    H243512   1.567   4.617  13.404 -0.2745  0.3003 -0.0151
 7341TIP3   OH243513   4.235   1.599  16.959  0.2483 -0.6198  0.3213
 7341TIP3    H143514   4.300   1.667  16.940  0.1770  0.2365  2.9025
 7341TIP3    H243515   4.256   1.529  16.898  2.5701  0.2981 -0.0141
 7342TIP3   OH243516   5.040   6.799  16.148 -0.0116 -0.4220  0.0857
 7342TIP3    H143517   4.954   6.838  16.165  0.2884  0.3670 -0.1692
 7342TIP3    H243518   5.027   6.745  16.070  0.5686  2.6952 -2.2821
 7343TIP3   OH243519   5.984   5.461  15.635  0.1858  0.6729  0.3663
 7343TIP3    H143520   6.072   5.429  15.654 -0.4713 -0.5451  1.4716
 7343TIP3    H243521   5.963   5.519  15.708 -0.1768  0.4572  0.4342
 7344TIP3   OH243522   4.393   3.649   3.877 -0.4130  0.2703 -0.4570
 7344TIP3    H143523   4.323   3.587   3.858 -1.8779  1.8750 -0.3963
 7344TIP3    H243524   4.379   3.674   3.969  0.4493  0.3419 -0.3402
 7345TIP3   OH243525   1.116   5.687   5.584 -0.0113 -0.4735 -0.1601
 7345TIP3    H143526   1.104   5.727   5.671  1.0450  0.1584 -0.3093
 7345TIP3    H243527   1.105   5.593   5.600 -1.1929 -0.2490  0.4186
 7346TIP3   OH243528   6.773   6.199  11.148  0.0381 -0.0411 -0.8192
 7346TIP3    H143529   6.784   6.167  11.059 -0.1270  0.4070 -1.0015
 7346TIP3    H243530   6.857   6.179  11.191 -0.1827 -1.0154 -0.8311
 7347TIP3   OH243531   1.103   4.564   0.791  0.3870  0.5178  0.0505
 7347TIP3    H143532   1.092   4.614   0.872  2.1845 -0.6767  1.0828
 7347TIP3    H243533   1.197   4.560   0.778  0.1863 -0.7628 -1.1604
 7348TIP3   OH243534   1.635   3.413  12.454  0.4187 -0.6635  0.5122
 7348TIP3    H143535   1.610   3.379  12.367  1.1427  0.8480 -0.2959
 7348TIP3    H243536   1.704   3.354  12.484 -0.5869 -1.8427  0.5498
 7349TIP3   OH243537   5.212   5.357  15.704 -0.0059  0.4234 -0.1294
 7349TIP3    H143538   5.206   5.443  15.662  0.3584  1.4995  1.9377
 7349TIP3    H243539   5.274   5.309  15.650 -0.5082  1.3075 -1.5417
 7350TIP3   OH243540   1.649   3.678   4.640  0.0034  0.3175 -0.1851
 7350TIP3    H143541   1.731   3.632   4.619 -0.6467 -0.8996 -0.0917
 7350TIP3    H243542   1.582   3.629   4.594 -0.2997  3.4398 -3.3189
 7351TIP3   OH243543   0.631   0.205   2.249  0.2028 -0.3161  0.3089
 7351TIP3    H143544   0.661   0.239   2.333  0.5028 -0.3990  0.2344
 7351TIP3    H243545   0.710   0.198   2.196  0.2718 -1.9935  0.6143
 7352TIP3   OH243546   0.352   3.443   4.707  0.2584 -0.1502  0.3749
 7352TIP3    H143547   0.294   3.367   4.716  2.0804 -1.5098  1.1189
 7352TIP3    H243548   0.350   3.464   4.613 -3.0399  1.1835  0.6981
 7353TIP3   OH243549   6.380   1.697  13.703 -0.5368 -0.2110 -0.0920
 7353TIP3    H143550   6.387   1.792  13.710  0.1477 -0.1407 -1.5780
 7353TIP3    H243551   6.454   1.663  13.753 -0.3889  0.0548 -0.1328
 7354TIP3   OH243552   0.399   6.556  15.290 -0.0023  0.0567  0.0418
 7354TIP3    H143553   0.445   6.554  15.205  1.7295  0.8488  0.9315
 7354TIP3    H243554   0.405   6.467  15.323 -1.0417 -0.3540 -0.8408
 7355TIP3   OH243555   2.801   5.922   5.232  0.7450 -0.1893  0.8694
 7355TIP3    H143556   2.710   5.891   5.232  1.4508 -2.4499 -0.7718
 7355TIP3    H243557   2.800   6.001   5.178 -0.2509 -0.2776  0.7592
 7356TIP3   OH243558   2.231   0.904  11.660 -0.6311  0.3917 -0.2678
 7356TIP3    H143559   2.199   0.990  11.630  1.1450  0.8765 -0.7901
 7356TIP3    H243560   2.151   0.857  11.683 -1.6896  1.9197 -0.6787
 7357TIP3   OH243561   0.153   3.635   2.613 -0.0395 -0.0223 -0.0611
 7357TIP3    H143562   0.130   3.558   2.561  0.9469 -0.4790  0.1598
 7357TIP3    H243563   0.087   3.638   2.683  1.0384 -1.7906  1.0613
 7358TIP3   OH243564   4.343   1.781   6.532  0.1338  0.0436 -0.3463
 7358TIP3    H143565   4.250   1.783   6.555  0.7485  3.0415  2.2684
 7358TIP3    H243566   4.376   1.701   6.573 -1.0358 -0.4504 -0.3357
 7359TIP3   OH243567   6.241   2.280  15.446 -0.1130 -0.1310 -0.7922
 7359TIP3    H143568   6.182   2.287  15.371  0.0796  1.1099 -0.8447
 7359TIP3    H243569   6.316   2.232  15.414 -1.6062 -2.7986 -0.4074
 7360TIP3   OH243570   3.480   0.079  13.985  0.4221  0.5412  0.3066
 7360TIP3    H143571   3.549   0.042  14.039 -0.8180  1.0555  2.3191
 7360TIP3    H243572   3.495   0.173  13.988  0.5097  0.5545 -0.4834
 7361TIP3   OH243573   6.408   3.146  16.958 -0.1658  0.2909  0.0056
 7361TIP3    H143574   6.392   3.055  16.983 -3.8454  0.2333 -2.2518
 7361TIP3    H243575   6.484   3.141  16.899  0.0057 -1.2308  0.3317
 7362TIP3   OH243576   6.127   5.673  17.274  0.2834  0.8545  0.0277
 7362TIP3    H143577   6.060   5.651  17.208 -1.8816 -1.1494  2.7701
 7362TIP3    H243578   6.210   5.653  17.231 -1.0597 -0.0201 -2.2644
 7363TIP3   OH243579   1.377   1.219  16.635 -0.2008 -0.0156 -0.4842
 7363TIP3    H143580   1.433   1.270  16.693 -0.6316  0.0459 -0.1232
 7363TIP3    H243581   1.299   1.200  16.686 -0.4076 -0.3146 -0.9012
 7364TIP3   OH243582   2.838   3.033  15.302 -0.6872  0.1948  0.4171
 7364TIP3    H143583   2.889   3.038  15.221 -0.4134 -1.5544  0.4526
 7364TIP3    H243584   2.892   3.078  15.367  0.9043 -1.6800  0.4592
 7365TIP3   OH243585   6.785   4.673  13.698 -0.2153 -0.1573 -0.0427
 7365TIP3    H143586   6.765   4.758  13.737  1.0717  0.4089 -0.5655
 7365TIP3    H243587   6.731   4.669  13.619 -3.2008 -1.5154  1.9959
 7366TIP3   OH243588   6.731   4.052  14.232  0.6089  0.2130 -0.1053
 7366TIP3    H143589   6.804   4.112  14.248  1.0246 -0.1456 -0.6179
 7366TIP3    H243590   6.655   4.108  14.218  1.0107  0.6202 -0.6647
 7367TIP3   OH243591   2.804   4.560  15.103  0.6161  0.6278  0.1284
 7367TIP3    H143592   2.865   4.619  15.058  2.1179 -0.2401  0.9814
 7367TIP3    H243593   2.835   4.472  15.082  0.0766  0.1799  1.1451
 7368TIP3   OH243594   1.649   1.784  14.202 -0.0531 -0.0575  0.3332
 7368TIP3    H143595   1.714   1.848  14.175 -1.2230  1.2508  0.5576
 7368TIP3    H243596   1.565   1.822  14.175 -0.5153 -3.4703 -3.4671
 7369TIP3   OH243597   6.576   5.821  16.871 -0.1263 -0.2410  0.6521
 7369TIP3    H143598   6.663   5.799  16.905 -0.7091 -1.8403  1.1590
 7369TIP3    H243599   6.527   5.848  16.949  0.1059  1.3108  0.2709
 7370TIP3   OH243600   0.721   1.982   1.457 -0.3837 -0.6864  0.0522
 7370TIP3    H143601   0.725   1.904   1.402 -1.5861  0.6277 -1.9462
 7370TIP3    H243602   0.803   2.028   1.440 -0.4491 -0.6301 -0.1101
 7371TIP3   OH243603   3.251   3.971   6.908 -0.0290  0.1813  0.3192
 7371TIP3    H143604   3.346   3.969   6.897 -0.0192  0.6323  0.3334
 7371TIP3    H243605   3.234   4.048   6.963 -0.3679 -0.1277  0.6526
 7372TIP3   OH243606   4.009   3.554   3.958  0.4560  0.4884 -0.2516
 7372TIP3    H143607   3.977   3.465   3.972  1.1079  0.5045  1.4509
 7372TIP3    H243608   4.084   3.543   3.900  2.0114 -0.3355  1.8770
 7373TIP3   OH243609   2.017   3.726   0.940  0.3508 -0.0810  0.0223
 7373TIP3    H143610   1.975   3.652   0.896  1.1966 -0.5079 -0.0982
 7373TIP3    H243611   2.028   3.697   1.031 -2.7406  1.3767  0.9071
 7374TIP3   OH243612   0.003   4.969   4.649 -0.4410 -0.2761  0.0512
 7374TIP3    H143613  -0.046   4.906   4.597 -1.1387 -0.6830  1.1834
 7374TIP3    H243614   0.074   4.918   4.688 -0.1141 -0.0416 -0.2355
 7375TIP3   OH243615   3.349   6.239  14.225  0.1663  0.0237 -0.1971
 7375TIP3    H143616   3.318   6.291  14.152 -2.0382  1.1714  1.4951
 7375TIP3    H243617   3.305   6.154  14.215 -0.9476  0.5246  0.3325
 7376TIP3   OH243618   2.161   1.564   0.265  0.3928  0.2967 -0.4181
 7376TIP3    H143619   2.216   1.535   0.338  0.7651 -0.1508 -0.8723
 7376TIP3    H243620   2.158   1.660   0.274  0.4523  0.2438  0.1682
 7377TIP3   OH243621   5.028   0.045   2.817 -0.3491 -0.0598 -0.2159
 7377TIP3    H143622   5.067  -0.042   2.827 -0.0160 -0.3212 -3.2210
 7377TIP3    H243623   4.934   0.030   2.830 -0.2549 -0.8080 -0.3348
 7378TIP3   OH243624   6.167   2.438  14.055 -0.3404 -0.3072  0.1723
 7378TIP3    H143625   6.179   2.484  14.139 -0.0212  0.5737 -0.3473
 7378TIP3    H243626   6.239   2.374  14.054 -0.6239 -0.6433  0.7788
 7379TIP3   OH243627   0.420   0.059   6.187  0.2528  0.7470  0.1221
 7379TIP3    H143628   0.407   0.029   6.097 -0.2220  0.4365  0.2906
 7379TIP3    H243629   0.472   0.139   6.178  1.1028  0.1469 -0.3566
 7380TIP3   OH243630   0.844   6.431   3.170  0.4839 -0.3066 -0.1898
 7380TIP3    H143631   0.901   6.466   3.239 -1.7243 -0.8254  2.0044
 7380TIP3    H243632   0.864   6.338   3.167  1.0595 -0.1659 -0.7298
 7381TIP3   OH243633   1.957   0.885   3.624  0.3750  0.0639  0.2720
 7381TIP3    H143634   1.899   0.863   3.552  0.1425  0.9272  0.1920
 7381TIP3    H243635   2.000   0.966   3.597 -0.2380  0.7786  1.4088
 7382TIP3   OH243636   1.913   0.471  11.497  0.4608  0.1896  0.3983
 7382TIP3    H143637   1.990   0.507  11.453  0.7532  0.4231  1.1000
 7382TIP3    H243638   1.944   0.449  11.585 -0.1145 -0.3064  0.4754
 7383TIP3   OH243639   5.985   3.540   3.157  0.0610 -0.8866  0.0004
 7383TIP3    H143640   5.942   3.623   3.174  0.7873 -0.6191  0.5402
 7383TIP3    H243641   6.028   3.552   3.072 -0.3285 -0.9138 -0.2012
 7384TIP3   OH243642   0.394   5.451   0.168 -0.2767  0.4166 -0.2258
 7384TIP3    H143643   0.339   5.501   0.227 -0.6519 -0.6091  0.3107
 7384TIP3    H243644   0.369   5.481   0.080 -1.0423  0.6101  0.0532
 7385TIP3   OH243645   3.789   0.051  13.158  0.1094 -0.2359  0.4893
 7385TIP3    H143646   3.725   0.101  13.107  0.6259 -0.7167 -0.6490
 7385TIP3    H243647   3.746  -0.033  13.175 -1.5185  1.1948  4.0293
 7386TIP3   OH243648   0.283   3.759   0.786 -0.8151  0.0955  0.1100
 7386TIP3    H143649   0.228   3.784   0.860 -2.3407 -3.1203  0.1329
 7386TIP3    H243650   0.324   3.677   0.814  1.9494  1.0658 -0.9555
 7387TIP3   OH243651   3.986   4.690  15.054 -0.1296  0.4507 -0.2901
 7387TIP3    H143652   3.898   4.721  15.076  0.0373  1.5162 -1.0582
 7387TIP3    H243653   3.984   4.676  14.960  0.2461 -0.4394 -0.1674
 7388TIP3   OH243654   4.859   0.044  14.126  0.2015 -0.1452  0.2852
 7388TIP3    H143655   4.904   0.118  14.168  0.6563  0.0869 -0.5784
 7388TIP3    H243656   4.817   0.083  14.049  0.7929 -0.8460 -0.4133
 7389TIP3   OH243657   2.720   4.779  13.882  0.0012 -0.0117 -0.4574
 7389TIP3    H143658   2.635   4.743  13.908 -0.7600  2.0741 -0.0290
 7389TIP3    H243659   2.774   4.775  13.961 -0.0759 -0.2064 -0.4142
 7390TIP3   OH243660   4.035   0.494  14.701 -0.2105 -0.7769  0.3692
 7390TIP3    H143661   3.997   0.417  14.656  2.5650 -2.3843  0.6340
 7390TIP3    H243662   4.034   0.471  14.794 -2.1902  0.8343  0.7670
 7391TIP3   OH243663   0.661   6.675  16.241 -0.2355 -0.5185 -0.0636
 7391TIP3    H143664   0.692   6.736  16.173 -0.6980  0.9831  1.0391
 7391TIP3    H243665   0.658   6.590  16.198  0.1838  0.2873 -1.7171
 7392TIP3   OH243666   1.197   1.345   5.287 -0.1848 -0.1148  0.3323
 7392TIP3    H143667   1.243   1.270   5.325  1.0306 -0.0188 -0.9050
 7392TIP3    H243668   1.128   1.306   5.232 -0.9163 -0.2737  1.3418
 7393TIP3   OH243669   2.855   0.167   3.010 -0.6196  0.3738  0.0330
 7393TIP3    H143670   2.786   0.206   3.063  0.1257  0.1623  1.1792
 7393TIP3    H243671   2.911   0.122   3.073  1.4622  1.8804 -0.6760
 7394TIP3   OH243672   0.970   3.120  14.681  0.1549  0.3671  0.0859
 7394TIP3    H143673   0.890   3.080  14.649 -0.7624  1.0613  1.4763
 7394TIP3    H243674   0.952   3.214  14.683  1.8792  0.7885 -2.0170
 7395TIP3   OH243675   5.363   3.387   4.369 -0.1373  0.2922  0.4920
 7395TIP3    H143676   5.437   3.423   4.321  0.5640 -1.5931  0.1228
 7395TIP3    H243677   5.287   3.407   4.315  0.5658 -1.2009 -1.0927
 7396TIP3   OH243678   0.603   4.729  11.675  0.5152 -0.5958  0.4736
 7396TIP3    H143679   0.684   4.686  11.701  1.3786  1.4859  1.2918
 7396TIP3    H243680   0.629   4.818  11.652 -1.4657 -0.0449  0.2815
 7397TIP3   OH243681   0.527   1.029   4.492  0.2559 -0.1959 -0.1256
 7397TIP3    H143682   0.615   1.022   4.455  0.6423  1.4375  0.4135
 7397TIP3    H243683   0.476   0.964   4.445  1.4446 -0.2503 -1.3884
 7398TIP3   OH243684   2.646   4.628  12.474 -0.0585 -0.0487 -0.4189
 7398TIP3    H143685   2.714   4.694  12.460 -1.4427  1.4694  0.0052
 7398TIP3    H243686   2.695   4.549  12.498  1.4735  1.5639  1.9848
 7399TIP3   OH243687   0.327   5.002  16.131 -0.0230  0.7970  0.0485
 7399TIP3    H143688   0.300   4.910  16.129 -1.1248  1.1247 -0.0122
 7399TIP3    H243689   0.293   5.039  16.049 -1.0882  1.6862  0.8739
 7400TIP3   OH243690   2.605   2.703   6.598 -0.4647 -0.4167 -0.6672
 7400TIP3    H143691   2.674   2.642   6.570  0.4576  0.3652 -0.1206
 7400TIP3    H243692   2.567   2.662   6.676  0.0967 -0.3195 -0.3470
 7401TIP3   OH243693   3.218   3.950   6.628  0.0257 -0.4783 -0.3921
 7401TIP3    H143694   3.152   3.974   6.694 -0.6908 -0.4440 -1.1087
 7401TIP3    H243695   3.291   3.914   6.678 -0.9094 -1.3550  0.3648
 7402TIP3   OH243696   5.419   0.935  13.806  0.0187 -0.3056 -0.0098
 7402TIP3    H143697   5.375   0.882  13.739 -0.7526 -0.6705  0.7743
 7402TIP3    H243698   5.454   0.871  13.868  0.2854  0.0489  0.2047
 7403TIP3   OH243699   6.663   4.194  13.842  0.0377 -0.3912 -0.0497
 7403TIP3    H143700   6.591   4.137  13.869  1.0622 -1.3187  0.7657
 7403TIP3    H243701   6.655   4.271  13.899 -0.5916 -0.2711 -0.2955
 7404TIP3   OH243702   5.968   3.876  10.920 -0.2560  0.4422  0.2318
 7404TIP3    H143703   5.873   3.862  10.928  0.1034 -2.3653  0.0882
 7404TIP3    H243704   6.006   3.803  10.968  1.8593  2.0412  1.0263
 7405TIP3   OH243705   6.401   0.760   4.525  0.0247  0.6680 -0.1532
 7405TIP3    H143706   6.336   0.689   4.530 -0.1188  0.8282  0.2322
 7405TIP3    H243707   6.485   0.715   4.517 -0.1747  0.4626 -1.1033
 7406TIP3   OH243708   3.991   0.834   5.285  0.1280 -0.4406  0.1268
 7406TIP3    H143709   3.926   0.870   5.224 -1.3858 -1.2563  1.2220
 7406TIP3    H243710   3.956   0.855   5.372  1.1442 -1.2428  0.7441
 7407TIP3   OH243711   0.676   5.850   3.011  0.2501 -0.3910  0.1101
 7407TIP3    H143712   0.770   5.855   3.030  0.3894  0.0502 -0.6801
 7407TIP3    H243713   0.656   5.756   3.014  0.8482 -0.5371 -0.3107
 7408TIP3   OH243714   2.087   3.104  11.709 -0.3452 -0.1987 -0.2449
 7408TIP3    H143715   2.110   3.090  11.801  0.3381  0.2249 -0.3497
 7408TIP3    H243716   2.043   3.189  11.708  0.8309  0.4094 -0.5067
 7409TIP3   OH243717   4.974   5.511   4.927 -0.2695  0.2593  0.0426
 7409TIP3    H143718   4.899   5.452   4.929  0.1851 -0.2797  2.0925
 7409TIP3    H243719   4.938   5.593   4.893 -1.0308 -0.9656 -2.2243
 7410TIP3   OH243720   5.045   6.554  12.256 -0.6704  0.0507  0.1109
 7410TIP3    H143721   4.968   6.596  12.217 -0.0210  0.4040 -0.8173
 7410TIP3    H243722   5.102   6.627  12.280 -0.0991 -0.2506 -0.3187
 7411TIP3   OH243723   1.905   3.505  14.872  0.1620 -0.2706  0.3360
 7411TIP3    H143724   1.912   3.540  14.783  4.1966 -2.2409 -0.2563
 7411TIP3    H243725   1.930   3.578  14.929  1.0341  0.0008 -0.3882
 7412TIP3   OH243726   3.691   0.104  16.068 -0.0394  0.0146 -0.2383
 7412TIP3    H143727   3.769   0.156  16.049 -2.3684  2.7570 -2.6152
 7412TIP3    H243728   3.706   0.021  16.022  1.6068  0.4022 -0.4216
 7413TIP3   OH243729   2.278   4.989   0.211 -0.5832  0.3101 -0.4625
 7413TIP3    H143730   2.288   4.915   0.151 -3.2675 -0.4987  0.0344
 7413TIP3    H243731   2.368   5.016   0.231  0.3928 -0.9524 -2.9112
 7414TIP3   OH243732   3.327   1.261   2.893 -0.0539  0.0337 -0.3386
 7414TIP3    H143733   3.370   1.268   2.979  1.2800 -0.4878 -0.9499
 7414TIP3    H243734   3.378   1.318   2.836 -1.7278  1.3970 -0.5076
 7415TIP3   OH243735   2.524   0.103   5.672  0.2748  0.0857 -0.0729
 7415TIP3    H143736   2.534   0.048   5.750 -0.1852  1.1914  0.7664
 7415TIP3    H243737   2.463   0.055   5.617 -0.1352 -0.2462  0.6626
 7416TIP3   OH243738   2.911   5.294  14.883  0.3535 -0.4076 -0.0693
 7416TIP3    H143739   2.849   5.246  14.937 -2.2695  1.0291 -1.7100
 7416TIP3    H243740   2.899   5.386  14.907 -1.1174  0.3050 -3.2171
 7417TIP3   OH243741   5.220   2.064   4.505  0.3801  0.4141  0.3627
 7417TIP3    H143742   5.136   2.085   4.547 -0.4111  0.9103 -1.4114
 7417TIP3    H243743   5.272   2.144   4.516 -1.2421  2.0632 -2.9685
 7418TIP3   OH243744   6.578   0.743   2.569 -0.0874 -0.0114  1.0874
 7418TIP3    H143745   6.488   0.740   2.600 -0.0359 -0.2617  1.2122
 7418TIP3    H243746   6.622   0.672   2.616  0.1453  0.0330  0.9362
 7419TIP3   OH243747   0.946   1.124  15.616 -1.2146  0.5224 -0.4425
 7419TIP3    H143748   0.865   1.090  15.655  0.7155 -2.2918  1.2525
 7419TIP3    H243749   0.960   1.069  15.539 -0.9346  1.0461 -0.7659
 7420TIP3   OH243750   2.341   3.512  11.102 -0.6268 -0.2312 -0.5812
 7420TIP3    H143751   2.429   3.521  11.064 -0.9910 -0.5201 -1.5167
 7420TIP3    H243752   2.354   3.462  11.182  0.0074 -0.6219 -0.9293
 7421TIP3   OH243753   6.764   5.159  11.941  0.6236 -0.2872 -0.6887
 7421TIP3    H143754   6.716   5.112  12.009  0.9314 -1.2602 -1.1388
 7421TIP3    H243755   6.697   5.209  11.895  0.3704  0.1521  0.1402
 7422TIP3   OH243756   6.782   2.443  14.762  0.3497  0.8727 -0.1488
 7422TIP3    H143757   6.726   2.482  14.695  0.7894  1.1327 -0.3719
 7422TIP3    H243758   6.772   2.349  14.751 -1.6782  0.8860  1.1930
 7423TIP3   OH243759   4.517   0.728  12.914  0.2847 -0.3299  0.4628
 7423TIP3    H143760   4.609   0.723  12.938  0.4919  3.5243  0.8206
 7423TIP3    H243761   4.479   0.646  12.944  3.4369 -1.6569  0.9481
 7424TIP3   OH243762   1.137   1.253   2.112  0.3162 -0.2996 -0.0216
 7424TIP3    H143763   1.075   1.310   2.158 -1.2476 -0.9205 -1.3439
 7424TIP3    H243764   1.194   1.219   2.182 -1.1895 -0.1861  1.2898
 7425TIP3   OH243765   6.690   0.452  15.384 -0.3785  0.5461 -0.0841
 7425TIP3    H143766   6.723   0.516  15.447 -1.7037  0.2577  0.9326
 7425TIP3    H243767   6.606   0.488  15.356 -0.3858  0.0344 -0.7264
 7426TIP3   OH243768   1.249   0.782  12.868  0.0792  0.3260 -0.3346
 7426TIP3    H143769   1.243   0.797  12.962 -0.5331  1.1261 -0.4977
 7426TIP3    H243770   1.305   0.853  12.835 -1.6162  1.4383 -0.8934
 7427TIP3   OH243771   4.092   4.344  13.368  0.5111  0.3036  0.5657
 7427TIP3    H143772   4.161   4.409  13.362 -0.0069  0.7888 -0.1220
 7427TIP3    H243773   4.012   4.391  13.345 -0.0244 -0.3040  1.1463
 7428TIP3   OH243774   4.957   0.756  16.435 -0.1066  0.0012 -0.7104
 7428TIP3    H143775   4.902   0.802  16.372 -3.3130 -0.4223  1.6950
 7428TIP3    H243776   4.996   0.684  16.384 -2.2408 -0.0460 -2.3435
 7429TIP3   OH243777   3.562   4.938  14.096 -0.1859  0.5006  0.5813
 7429TIP3    H143778   3.513   4.866  14.058  1.3718  0.3480 -1.1987
 7429TIP3    H243779   3.499   4.984  14.151 -1.8960 -0.6017 -0.4421
 7430TIP3   OH243780   3.377   3.404  13.042 -0.2131 -0.1289  0.1642
 7430TIP3    H143781   3.410   3.319  13.015  1.5582  0.2466  1.0862
 7430TIP3    H243782   3.442   3.467  13.009 -0.4872  0.7078  1.1876
 7431TIP3   OH243783   3.444   5.515  13.032  0.1253  0.1106  0.0261
 7431TIP3    H143784   3.451   5.603  12.994 -0.3324 -0.4858 -1.5080
 7431TIP3    H243785   3.350   5.496  13.030 -0.0508  0.5485  2.6759
 7432TIP3   OH243786   5.023   2.300  13.356  0.1549 -0.2548  0.3118
 7432TIP3    H143787   5.024   2.228  13.294  1.1552  0.2395 -0.2537
 7432TIP3    H243788   4.969   2.367  13.313  2.2370  0.7535 -0.8141
 7433TIP3   OH243789   3.599   3.571  15.705  0.1410  0.0421 -0.0830
 7433TIP3    H143790   3.658   3.634  15.664  1.1359 -0.5081  0.4729
 7433TIP3    H243791   3.582   3.507  15.636  1.2022 -0.4701  0.1089
 7434TIP3   OH243792   0.458   0.130  17.223 -0.2203 -0.0226 -0.0485
 7434TIP3    H143793   0.526   0.082  17.270 -1.5466 -1.6075  0.3004
 7434TIP3    H243794   0.471   0.106  17.131 -2.9051 -3.8030  0.4336
 7435TIP3   OH243795   1.889   4.738   4.031 -0.1297 -0.4696 -0.2400
 7435TIP3    H143796   1.972   4.692   4.042 -0.0882 -0.3192  0.0835
 7435TIP3    H243797   1.847   4.732   4.117 -0.9084 -1.4324 -0.6816
 7436TIP3   OH243798   4.768   6.360   2.667 -0.9398 -0.6433 -0.5655
 7436TIP3    H143799   4.696   6.343   2.607 -1.4589  0.3181 -0.2176
 7436TIP3    H243800   4.845   6.366   2.611 -0.9938 -2.4709 -0.8617
 7437TIP3   OH243801   3.519   5.088  16.530 -0.3880  0.3507 -0.3182
 7437TIP3    H143802   3.531   4.996  16.505  2.5393  0.2324  1.2842
 7437TIP3    H243803   3.438   5.089  16.581 -1.3260 -1.0326 -1.7299
 7438TIP3   OH243804   0.195   1.112   3.347 -0.1432  0.4843  0.2422
 7438TIP3    H143805   0.253   1.162   3.405  0.7700  0.1989 -0.4022
 7438TIP3    H243806   0.141   1.060   3.406 -2.9406  4.1015  1.0814
 7439TIP3   OH243807   6.409   3.954  12.461 -0.9330 -0.2700 -0.0082
 7439TIP3    H143808   6.426   4.038  12.503  0.2756  0.1453 -1.2679
 7439TIP3    H243809   6.426   3.889  12.529 -1.9595  0.5019  0.9986
 7440TIP3   OH243810   6.819   3.309  13.100  0.0440 -0.4636 -0.4154
 7440TIP3    H143811   6.726   3.286  13.096 -0.2090  0.5058 -0.1290
 7440TIP3    H243812   6.820   3.404  13.111  1.0752 -0.4312 -0.7520
 7441TIP3   OH243813   0.596   2.664   5.581  0.2794 -0.2906  0.0444
 7441TIP3    H143814   0.660   2.596   5.602  1.4470  1.3506  2.0191
 7441TIP3    H243815   0.648   2.742   5.565 -1.0803  0.3098 -1.6402
 7442TIP3   OH243816   1.843   5.467  11.118 -0.0719  0.2358  0.0669
 7442TIP3    H143817   1.838   5.515  11.035 -0.9058 -0.7139 -0.4361
 7442TIP3    H243818   1.937   5.460  11.136  0.1529 -0.5080 -1.3479
 7443TIP3   OH243819   3.982   6.223  13.981 -0.0159  0.0974 -0.3019
 7443TIP3    H143820   4.023   6.294  14.030 -1.7433  0.4975  0.6077
 7443TIP3    H243821   4.055   6.170  13.950  1.1806  0.6523  1.4768
 7444TIP3   OH243822   4.142   5.725   5.460 -0.1303 -0.7559 -0.5844
 7444TIP3    H143823   4.126   5.788   5.389  0.1591  0.2377  0.2298
 7444TIP3    H243824   4.233   5.739   5.485  0.2781 -2.2939 -1.1636
 7445TIP3   OH243825   2.689   3.505  12.380  0.6172 -0.8509  0.2881
 7445TIP3    H143826   2.710   3.434  12.319 -0.1349 -0.3246 -0.5934
 7445TIP3    H243827   2.599   3.489  12.406 -0.1826  0.7782 -1.3383
 7446TIP3   OH243828   2.716   6.699   2.948 -0.7533 -0.0418  0.0717
 7446TIP3    H143829   2.724   6.795   2.946  1.8984 -0.1789  2.2040
 7446TIP3    H243830   2.649   6.682   3.014  2.9165  0.2544  4.1041
 7447TIP3   OH243831   5.584   4.942   1.574 -0.0450 -0.3974 -0.0880
 7447TIP3    H143832   5.531   4.938   1.495 -0.3424  0.9841  0.0184
 7447TIP3    H243833   5.655   5.002   1.552 -1.0613  1.3484  1.2054
 7448TIP3   OH243834   3.279   2.023  15.147  0.5258 -0.5901 -0.1620
 7448TIP3    H143835   3.202   2.048  15.096  1.2687  2.3261  0.0457
 7448TIP3    H243836   3.345   1.999  15.082  0.0229 -1.3666 -0.3906
 7449TIP3   OH243837   4.251   0.300   4.487  0.2946 -0.5264 -0.4995
 7449TIP3    H143838   4.219   0.225   4.537  0.2187 -2.1502 -2.8760
 7449TIP3    H243839   4.185   0.368   4.500 -0.7445 -1.6007 -0.0337
 7450TIP3   OH243840   6.175   0.695   3.145  0.1416  0.2598 -0.2256
 7450TIP3    H143841   6.099   0.657   3.189  1.2010  1.6012  2.9225
 7450TIP3    H243842   6.138   0.755   3.081 -1.4945 -0.0071  0.4413
 7451TIP3   OH243843   0.749   5.416  14.602  0.3281  0.1493 -0.0215
 7451TIP3    H143844   0.747   5.511  14.615 -1.6994  0.0033  1.0259
 7451TIP3    H243845   0.841   5.392  14.612  0.9861  2.0984 -1.0839
 7452TIP3   OH243846   0.704   5.714  14.782  0.3059  0.4666 -0.0447
 7452TIP3    H143847   0.659   5.798  14.779 -1.8976 -0.6470  1.1258
 7452TIP3    H243848   0.704   5.689  14.874  1.2371 -0.6774 -0.3384
 7453TIP3   OH243849   4.292   1.944   3.656  0.3005 -0.0426 -0.2036
 7453TIP3    H143850   4.309   1.886   3.730  0.2359  0.1070 -0.0714
 7453TIP3    H243851   4.261   1.886   3.586 -3.8340  0.2786  1.2209
 7454TIP3   OH243852   0.511   4.621   2.757 -0.1286  0.0700  0.3392
 7454TIP3    H143853   0.515   4.620   2.852 -0.5497  0.5867  0.3662
 7454TIP3    H243854   0.537   4.710   2.732  1.8313 -0.6119 -0.1253
 7455TIP3   OH243855   0.034   6.584   6.601 -0.2095  0.0624  0.1419
 7455TIP3    H143856  -0.056   6.554   6.612 -0.8756  1.1433 -2.0056
 7455TIP3    H243857   0.032   6.677   6.623  0.6997 -0.2195  1.4723
 7456TIP3   OH243858   0.358   5.638   0.766  0.6303 -0.3458  0.4105
 7456TIP3    H143859   0.290   5.638   0.832 -0.7378 -0.5316 -0.9790
 7456TIP3    H243860   0.361   5.728   0.734  1.8502 -0.0611  1.2570
 7457TIP3   OH243861   1.682   2.428   4.956 -0.4090  0.4823  0.3619
 7457TIP3    H143862   1.614   2.362   4.942 -0.5408  0.8145 -0.6052
 7457TIP3    H243863   1.703   2.460   4.868 -0.9209  2.2993  0.8950
 7458TIP3   OH243864   0.437   4.327  12.191  0.2208  0.7649  0.2655
 7458TIP3    H143865   0.364   4.345  12.133 -1.0844 -0.6710  1.3976
 7458TIP3    H243866   0.419   4.239  12.224  2.7688  0.1561  0.1159
 7459TIP3   OH243867   2.145   2.491  14.505 -0.2648  0.1266 -0.3363
 7459TIP3    H143868   2.192   2.573  14.518 -0.5695  0.5802 -2.0293
 7459TIP3    H243869   2.210   2.433  14.465 -0.4049 -0.0632 -0.2883
 7460TIP3   OH243870   5.738   0.282  14.003 -0.3922 -0.0752  0.1119
 7460TIP3    H143871   5.697   0.358  13.962  1.0147 -0.2918 -1.7514
 7460TIP3    H243872   5.772   0.315  14.086  0.3919  1.3996 -0.7753
 7461TIP3   OH243873   6.522   3.336   0.761 -0.4296  0.2614 -1.1299
 7461TIP3    H143874   6.582   3.384   0.703 -0.7367  3.1968  0.8756
 7461TIP3    H243875   6.435   3.364   0.732 -0.5849  1.6002  0.5712
 7462TIP3   OH243876   4.163   3.586  11.533 -0.5251  0.5331  0.6823
 7462TIP3    H143877   4.194   3.567  11.444  1.0524 -2.2142  1.7747
 7462TIP3    H243878   4.115   3.669  11.524 -4.4073 -1.9093 -3.6497
 7463TIP3   OH243879   6.099   3.525  13.659 -0.7113 -0.3750 -0.1939
 7463TIP3    H143880   6.056   3.485  13.735 -0.8958 -1.4378 -0.8427
 7463TIP3    H243881   6.184   3.481  13.653 -0.5647 -0.0653 -0.3972
 7464TIP3   OH243882   5.442   0.156   5.270  0.2446  0.3229 -1.1772
 7464TIP3    H143883   5.477   0.084   5.217 -0.2713 -0.5191 -0.3851
 7464TIP3    H243884   5.353   0.128   5.292 -0.0676  1.3488 -1.1309
 7465TIP3   OH243885   6.573   5.693   3.408 -0.0376 -0.2326 -0.1467
 7465TIP3    H143886   6.514   5.622   3.380  1.2467 -1.1138 -0.6264
 7465TIP3    H243887   6.660   5.654   3.407  0.4960  0.8678  1.2457
 7466TIP3   OH243888   2.956   1.168  13.509 -0.4529 -0.1361  0.0460
 7466TIP3    H143889   2.890   1.123  13.456 -2.6636 -0.3945  2.8649
 7466TIP3    H243890   2.906   1.234  13.558  1.8888  1.6992  0.0301
 7467TIP3   OH243891   3.741   3.996   1.079 -0.0481  0.3419 -0.1483
 7467TIP3    H143892   3.811   4.038   1.028  0.0663  0.7530  0.3446
 7467TIP3    H243893   3.786   3.926   1.127  0.2796  1.4230  1.1679
 7468TIP3   OH243894   2.484   3.948   2.467  0.4412 -0.4732 -0.1903
 7468TIP3    H143895   2.514   4.038   2.482  1.7711 -0.9831  0.1978
 7468TIP3    H243896   2.502   3.932   2.374  2.3710 -1.1383  0.2776
 7469TIP3   OH243897   5.093   0.822   3.573 -0.0245  0.4969 -0.1175
 7469TIP3    H143898   5.062   0.868   3.495 -2.4271 -1.1678 -0.1934
 7469TIP3    H243899   5.097   0.730   3.547  1.4389  0.2065  1.0408
 7470TIP3   OH243900   3.391   0.487  11.047 -0.2751 -0.6362 -0.3035
 7470TIP3    H143901   3.372   0.560  10.989  0.3487 -1.1149 -1.1178
 7470TIP3    H243902   3.350   0.511  11.130  0.0404  0.6867 -0.5280
 7471TIP3   OH243903   5.811   6.233   5.612  1.0340  0.4484 -0.6933
 7471TIP3    H143904   5.756   6.178   5.669  1.5980  0.4691 -0.1178
 7471TIP3    H243905   5.789   6.323   5.636  2.5262  0.4588  0.7476
 7472TIP3   OH243906   1.867   2.212  11.948  0.8223  0.4427 -0.3643
 7472TIP3    H143907   1.895   2.148  11.882 -0.7973  0.0350 -0.6845
 7472TIP3    H243908   1.827   2.159  12.017  0.7328  1.0148  0.0213
 7473TIP3   OH243909   2.573   3.217  15.959  0.5851  0.4102 -0.2546
 7473TIP3    H143910   2.597   3.157  15.889  2.8011  0.7510  0.1556
 7473TIP3    H243911   2.526   3.289  15.916 -1.8738 -1.4576 -0.7720
 7474TIP3   OH243912   5.035   4.489   5.648 -0.1316 -0.3097 -0.5648
 7474TIP3    H143913   5.047   4.580   5.677 -0.0904 -0.6482  0.4982
 7474TIP3    H243914   5.121   4.465   5.613  0.1386 -0.2542  0.0502
 7475TIP3   OH243915   2.040   2.765  11.307  0.0365 -0.1736 -0.7238
 7475TIP3    H143916   2.055   2.755  11.401 -2.4333  0.0577 -0.2738
 7475TIP3    H243917   1.948   2.743  11.295  0.2267  0.1775 -3.0453
 7476TIP3   OH243918   6.300   1.926   1.193 -0.1553 -0.2207 -0.0987
 7476TIP3    H143919   6.338   1.859   1.135 -1.1724 -0.2293 -0.7633
 7476TIP3    H243920   6.211   1.895   1.210 -0.0721  0.0985  0.9886
 7477TIP3   OH243921   6.108   2.770  16.766  0.3775  0.1267 -0.7838
 7477TIP3    H143922   6.050   2.796  16.694 -1.3643  0.2239  0.6308
 7477TIP3    H243923   6.105   2.675  16.766 -0.6745  0.1622  0.0119
 7478TIP3   OH243924   5.694   1.925  14.960 -0.7020 -0.1109 -0.0714
 7478TIP3    H143925   5.679   1.962  14.873  1.2818  1.1300  0.0844
 7478TIP3    H243926   5.668   1.833  14.952  1.4105 -0.5483 -2.5586
 7479TIP3   OH243927   0.727   4.726   0.741  0.1413 -0.1696  0.0203
 7479TIP3    H143928   0.744   4.750   0.832 -0.1808  0.5565 -0.1024
 7479TIP3    H243929   0.751   4.805   0.691  1.4977 -0.9739 -0.6423
 7480TIP3   OH243930   3.967   5.582  16.109 -0.3788 -0.1903 -0.2650
 7480TIP3    H143931   4.049   5.580  16.060 -0.6016 -1.4798 -0.6176
 7480TIP3    H243932   3.903   5.541  16.050 -0.3806 -2.9306  1.5392
 7481TIP3   OH243933   6.660   0.677   4.517 -0.0335  0.0521  0.0126
 7481TIP3    H143934   6.731   0.680   4.581 -1.0381 -0.0539  1.1377
 7481TIP3    H243935   6.694   0.621   4.447  0.2834 -1.5454  1.4064
 7482TIP3   OH243936   1.810   5.119  12.582  0.3682 -0.3584  0.1380
 7482TIP3    H143937   1.778   5.207  12.566  0.7723 -0.1504  0.4619
 7482TIP3    H243938   1.764   5.064  12.519  2.3952  0.5380 -2.1778
 7483TIP3   OH243939   0.211   0.104   5.325 -0.4736 -0.1543  0.3334
 7483TIP3    H143940   0.196   0.114   5.419 -0.5430 -2.2951  0.5713
 7483TIP3    H243941   0.130   0.135   5.285 -0.6852  0.1854  1.0140
 7484TIP3   OH243942   3.138   1.542  10.964 -0.1880 -0.1798 -0.2796
 7484TIP3    H143943   3.124   1.487  11.041  0.0265 -0.8195 -0.6943
 7484TIP3    H243944   3.071   1.514  10.902  0.3741 -0.4640 -0.7562
 7485TIP3   OH243945   6.719   1.301  16.407  0.0147  0.1583  0.1128
 7485TIP3    H143946   6.660   1.373  16.429  0.5802  0.7276 -0.2057
 7485TIP3    H243947   6.759   1.328  16.325  1.3280  0.1596  0.7432
 7486TIP3   OH243948   0.949   6.115   6.305 -0.1089  0.4898  0.1320
 7486TIP3    H143949   0.942   6.208   6.283  0.6721  0.6843  0.6945
 7486TIP3    H243950   0.858   6.085   6.309 -0.3278  0.9453 -1.2228
 7487TIP3   OH243951   6.137   1.270   2.766  0.8108  0.2637  0.1399
 7487TIP3    H143952   6.167   1.234   2.682  0.2538  0.5912 -0.1953
 7487TIP3    H243953   6.152   1.364   2.759 -1.3632  0.5775 -0.4717
 7488TIP3   OH243954   2.868   1.727  10.727 -0.3881 -0.0474 -0.0719
 7488TIP3    H143955   2.939   1.666  10.709  1.6628  1.6249  1.9749
 7488TIP3    H243956   2.827   1.693  10.807 -0.8113 -0.0565 -0.2898
 7489TIP3   OH243957   0.220   4.137   4.285  0.2869 -0.3534  0.5480
 7489TIP3    H143958   0.278   4.195   4.334 -0.6479  1.5979 -0.5814
 7489TIP3    H243959   0.136   4.142   4.330  0.6521 -2.2122  1.4616
 7490TIP3   OH243960   2.277   5.089  15.307  0.0290  0.7211  0.4488
 7490TIP3    H143961   2.229   5.164  15.343  0.0768  0.9538  0.0260
 7490TIP3    H243962   2.300   5.116  15.218 -0.9043 -0.2218 -0.0918
 7491TIP3   OH243963   5.885   3.279  13.314  0.3853 -0.4223 -0.0289
 7491TIP3    H143964   5.876   3.258  13.407 -1.0106 -0.3083 -0.1341
 7491TIP3    H243965   5.965   3.331  13.309  1.5824 -2.1334  0.8179
 7492TIP3   OH243966   4.784   5.056  10.783  0.7259 -0.0721 -0.6100
 7492TIP3    H143967   4.833   5.105  10.717 -0.6703  0.7769 -1.0361
 7492TIP3    H243968   4.693   5.063  10.755  0.2401 -0.6667  0.7888
 7493TIP3   OH243969   5.175   2.912   3.920  0.0495  0.4770 -0.4724
 7493TIP3    H143970   5.117   2.973   3.966 -1.5130 -2.1051  1.0642
 7493TIP3    H243971   5.183   2.837   3.979  0.3820 -1.6699 -3.1503
 7494TIP3   OH243972   3.319   5.621   6.442  0.0470 -0.0929  0.0715
 7494TIP3    H143973   3.230   5.599   6.418 -0.0037 -0.2357  0.3875
 7494TIP3    H243974   3.329   5.588   6.532  1.9975 -4.6319 -1.6824
 7495TIP3   OH243975   0.992   1.163   3.012 -0.5167 -0.1763  0.5375
 7495TIP3    H143976   0.946   1.240   3.046 -2.7563 -1.4674  0.5230
 7495TIP3    H243977   0.931   1.124   2.950  0.1669 -2.5218  1.2893
 7496TIP3   OH243978   5.193   0.831  12.012  0.8222 -0.2088  0.5004
 7496TIP3    H143979   5.157   0.770  11.948  0.9534 -1.0156  1.1803
 7496TIP3    H243980   5.288   0.823  12.001  0.8550  2.7978 -2.1205
 7497TIP3   OH243981   3.127   6.159   4.485  0.2903 -0.2490 -0.5431
 7497TIP3    H143982   3.138   6.117   4.400  1.3357 -0.8313 -0.1243
 7497TIP3    H243983   3.198   6.223   4.490 -0.0437  0.1054 -0.3020
 7498TIP3   OH243984   4.317   0.012   3.330  0.0931 -0.0188  0.6057
 7498TIP3    H143985   4.320  -0.004   3.425  2.3022 -0.6730  0.4497
 7498TIP3    H243986   4.290  -0.072   3.293  2.0552 -0.5936  0.4636
 7499TIP3   OH243987   0.360   5.778   3.351 -0.5257 -0.2287  0.1070
 7499TIP3    H143988   0.412   5.787   3.271 -0.2859 -0.9784  0.1727
 7499TIP3    H243989   0.417   5.813   3.420 -1.0754  1.2262 -0.1722
 7500TIP3   OH243990   1.335   6.486   0.125  0.5943  0.4393 -0.2103
 7500TIP3    H143991   1.243   6.499   0.102  0.1711 -0.6845  0.7779
 7500TIP3    H243992   1.340   6.395   0.156  1.8544  0.7641  0.5999
 7501TIP3   OH243993   3.921   0.572   1.707 -0.0401  0.2837  0.1983
 7501TIP3    H143994   3.964   0.487   1.713 -0.2534  0.3077  2.3293
 7501TIP3    H243995   3.831   0.556   1.732 -0.6510  0.7414 -1.6263
 7502TIP3   OH243996   4.526   4.249  13.957  0.0076 -0.0127  0.1237
 7502TIP3    H143997   4.533   4.158  13.983  0.4756 -0.5869 -1.9505
 7502TIP3    H243998   4.447   4.253  13.904 -0.0845  0.8106  0.3163
 7503TIP3   OH243999   6.641   0.092  14.134  0.4613 -0.4380  0.1728
 7503TIP3    H144000   6.660   0.041  14.212 -0.2292 -1.3212 -0.2269
 7503TIP3    H244001   6.554   0.062  14.106 -0.3858  1.6628  0.5001
 7504TIP3   OH244002   4.715   4.769   0.960  0.8023  0.2025  0.5644
 7504TIP3    H144003   4.672   4.774   1.046 -0.6581  0.7891 -0.1895
 7504TIP3    H244004   4.763   4.687   0.963 -0.1076 -0.3145  1.5629
 7505TIP3   OH244005   1.003   2.183   0.436  0.1812 -0.9379 -0.0566
 7505TIP3    H144006   1.032   2.252   0.496  0.5461 -0.3131 -0.9494
 7505TIP3    H244007   0.909   2.175   0.452 -0.6331  2.4308 -2.6212
 7506TIP3   OH244008   5.308   2.159  11.932 -0.2496 -0.0171  0.1519
 7506TIP3    H144009   5.341   2.173  12.021 -0.9570 -4.3371  1.2026
 7506TIP3    H244010   5.213   2.168  11.940 -0.3270 -0.5724 -0.1481
 7507TIP3   OH244011   4.007   6.820   4.968  0.2246 -0.2301  0.0256
 7507TIP3    H144012   4.100   6.821   4.945  0.5732  0.3006  1.4006
 7507TIP3    H244013   3.969   6.892   4.918  0.6364 -0.1508 -0.1767
 7508TIP3   OH244014   3.408   3.506   5.793  0.3431  0.1264  0.1371
 7508TIP3    H144015   3.482   3.559   5.765  0.5102  0.1923  0.7054
 7508TIP3    H244016   3.417   3.424   5.744  0.4871  0.3418 -0.1982
 7509TIP3   OH244017   4.272   3.446  13.745  0.1811 -0.0088 -0.1531
 7509TIP3    H144018   4.237   3.535  13.742 -2.0808 -0.8691 -0.3249
 7509TIP3    H244019   4.366   3.457  13.754 -0.1054  2.4007  0.0809
 7510TIP3   OH244020   3.343   1.313   1.100 -0.0340  0.5198  0.1286
 7510TIP3    H144021   3.409   1.380   1.080 -0.0387  0.0840 -1.4239
 7510TIP3    H244022   3.394   1.239   1.133  0.1211  0.7268  0.3499
 7511TIP3   OH244023   0.644   1.299  16.080  0.3169  0.2515 -0.1520
 7511TIP3    H144024   0.634   1.388  16.046 -0.1175 -0.6657 -2.4676
 7511TIP3    H244025   0.737   1.278  16.065  0.7663  0.7972  1.6799
 7512TIP3   OH244026   4.087   1.179  16.974 -0.2898 -0.1636 -0.0500
 7512TIP3    H144027   4.110   1.112  16.910 -0.6381 -0.1527 -0.1841
 7512TIP3    H244028   4.155   1.172  17.041 -2.2445 -3.0286  1.7460
 7513TIP3   OH244029   4.383   3.781  17.266 -0.1782 -0.1133 -0.1498
 7513TIP3    H144030   4.298   3.817  17.240  0.0402  1.6154  1.3725
 7513TIP3    H244031   4.363   3.724  17.340 -0.0366  0.3294  0.2377
 7514TIP3   OH244032   0.465   3.908  14.760 -0.0675 -0.1251 -0.5318
 7514TIP3    H144033   0.388   3.966  14.759 -0.7551 -1.0300 -0.2282
 7514TIP3    H244034   0.442   3.837  14.820  1.3231  0.0071  0.1801
 7515TIP3   OH244035   1.675   6.551   3.113 -0.1117  0.0215 -0.0968
 7515TIP3    H144036   1.697   6.545   3.206  1.1290  3.6811 -0.0562
 7515TIP3    H244037   1.618   6.628   3.108 -2.9799 -2.1215 -1.9549
 7516TIP3   OH244038   2.754   6.737   1.004 -0.8683  0.5712 -0.1913
 7516TIP3    H144039   2.714   6.650   1.013 -1.6977  0.9092 -0.5628
 7516TIP3    H244040   2.775   6.744   0.911 -1.5258  1.0811 -0.3007
 7517TIP3   OH244041   3.389   6.082  13.924 -0.4146  0.3890 -0.0378
 7517TIP3    H144042   3.314   6.137  13.949 -0.7301  0.1195 -0.3997
 7517TIP3    H244043   3.357   5.992  13.930 -0.6052  0.3189 -1.7302
 7518TIP3   OH244044   4.710   0.249   0.753  0.0172 -0.6300  0.4499
 7518TIP3    H144045   4.797   0.217   0.776  0.5770  0.9539  0.6106
 7518TIP3    H244046   4.683   0.302   0.828  0.1181  1.1793 -0.7389
 7519TIP3   OH244047   0.950   5.634  15.687  0.0057 -0.8631 -0.0691
 7519TIP3    H144048   1.019   5.700  15.686 -1.0652  0.2830 -0.5685
 7519TIP3    H244049   0.975   5.573  15.617  0.5594 -0.5108 -0.1884
 7520TIP3   OH244050   3.487   3.130  15.035  0.2928  0.2888  0.1289
 7520TIP3    H144051   3.531   3.117  14.951  0.0804 -0.5245  0.1401
 7520TIP3    H244052   3.516   3.056  15.089 -1.5385 -0.5631 -0.0474
 7521TIP3   OH244053   3.118   2.277  12.417  0.2850 -0.0649  0.6610
 7521TIP3    H144054   3.172   2.205  12.385 -1.2184 -1.0210  0.2262
 7521TIP3    H244055   3.058   2.235  12.480 -1.4605  0.5543 -0.5506
 7522TIP3   OH244056   3.936   1.716   6.825 -0.2010 -0.4543 -0.2725
 7522TIP3    H144057   3.880   1.761   6.889 -1.7306 -1.0743 -1.1412
 7522TIP3    H244058   3.874   1.672   6.766  1.1130  0.8763 -2.7539
 7523TIP3   OH244059   4.756   1.421   0.959  0.0951 -0.5661 -0.7822
 7523TIP3    H144060   4.801   1.494   0.916 -0.0484 -0.2399 -0.3742
 7523TIP3    H244061   4.735   1.453   1.046 -0.5674 -0.8599 -0.8283
 7524TIP3   OH244062   6.390   3.348  14.382  0.2946  0.4686  0.3955
 7524TIP3    H144063   6.394   3.370  14.475  1.9184  1.3299  0.1356
 7524TIP3    H244064   6.481   3.342  14.355 -0.1658 -0.4770 -0.9944
 7525TIP3   OH244065   6.038   5.017  16.104 -0.2915 -0.3323  0.0866
 7525TIP3    H144066   6.126   5.007  16.141  0.4629  1.6569 -1.0817
 7525TIP3    H244067   5.985   4.952  16.149  1.5028 -0.6706  1.7468
 7526TIP3   OH244068   4.497   5.836  12.073  0.2811  0.8572  0.1854
 7526TIP3    H144069   4.587   5.805  12.064 -0.1897 -0.2862 -0.7717
 7526TIP3    H244070   4.501   5.929  12.053  1.1632  0.6983 -0.4070
 7527TIP3   OH244071   0.094   4.665   5.388  0.2519 -0.1604 -0.1049
 7527TIP3    H144072   0.183   4.670   5.425  0.0070  0.7242  0.3842
 7527TIP3    H244073   0.063   4.755   5.389 -1.5189 -0.7437  1.8515
 7528TIP3   OH244074   0.401   2.273  12.695  0.1567  0.4555  0.4283
 7528TIP3    H144075   0.417   2.282  12.789  1.9381  0.9804  0.0867
 7528TIP3    H244076   0.415   2.181  12.676 -2.1988 -0.0495  1.0259
 7529TIP3   OH244077   0.053   4.742  13.367 -0.0126  0.1066  0.2457
 7529TIP3    H144078   0.038   4.717  13.276 -0.3320 -0.6756  0.5136
 7529TIP3    H244079   0.099   4.826  13.361  2.1890 -1.1305 -0.6693
 7530TIP3   OH244080   2.851   3.683   0.968 -0.5499 -0.0895  0.2988
 7530TIP3    H144081   2.854   3.758   1.028  1.2300  0.5387 -0.5508
 7530TIP3    H244082   2.780   3.629   1.002 -0.6475  1.0669  2.0199
 7531TIP3   OH244083   1.780   4.721   2.161 -0.2340  0.0548 -0.3022
 7531TIP3    H144084   1.827   4.650   2.205 -0.3019  0.7559  0.9215
 7531TIP3    H244085   1.745   4.681   2.081  2.7928 -0.3678 -1.4730
 7532TIP3   OH244086   0.385   4.100  10.179 -0.0116  0.7729  0.1993
 7532TIP3    H144087   0.372   4.195  10.185  0.8627  0.8639  0.7281
 7532TIP3    H244088   0.337   4.065  10.255 -2.6860  0.5374 -1.5301
 7533TIP3   OH244089   4.813   4.392   5.267  0.0403 -0.5437  0.3059
 7533TIP3    H144090   4.734   4.342   5.242 -0.2321 -0.0657  0.2041
 7533TIP3    H244091   4.868   4.328   5.313 -0.5460 -0.7997  0.6588
 7534TIP3   OH244092   3.876   3.986   2.850 -0.0634 -0.2080 -0.2214
 7534TIP3    H144093   3.819   3.944   2.787 -0.8578 -0.9274  0.9653
 7534TIP3    H244094   3.965   3.971   2.817 -0.4561 -0.8366 -0.9840
 7535TIP3   OH244095   0.010   5.146  14.294 -0.0049 -0.1290 -0.2436
 7535TIP3    H144096   0.056   5.215  14.343 -0.5406 -0.3463  0.5880
 7535TIP3    H244097   0.070   5.122  14.224  1.4066 -0.8339  1.1740
 7536TIP3   OH244098   3.628   1.839   0.407  0.0040  0.4098 -0.5563
 7536TIP3    H144099   3.642   1.776   0.478  1.6768  0.4802 -0.8058
 7536TIP3    H244100   3.644   1.925   0.448 -0.3727  0.5484 -0.6949
 7537TIP3   OH244101   2.181   4.469   6.039 -0.1729  0.4628  0.1912
 7537TIP3    H144102   2.272   4.483   6.065 -0.1645  1.3189 -0.2792
 7537TIP3    H244103   2.177   4.503   5.949 -1.6104  2.9109  1.1475
 7538TIP3   OH244104   0.103   6.690   1.732 -0.1844  0.9838 -0.0609
 7538TIP3    H144105   0.152   6.611   1.709 -0.5900  0.8373 -0.4223
 7538TIP3    H244106   0.134   6.756   1.671  1.9679  1.7757  1.8272
 7539TIP3   OH244107   5.241   1.805  13.051  0.5192 -0.5667 -0.1194
 7539TIP3    H144108   5.327   1.835  13.080 -0.1034  1.7771 -0.6198
 7539TIP3    H244109   5.189   1.797  13.131 -0.2453  2.8297 -0.1942
 7540TIP3   OH244110   2.454   2.620  13.742 -0.0853  0.1140  0.1991
 7540TIP3    H144111   2.484   2.549  13.799 -0.7316 -1.6547 -1.6157
 7540TIP3    H244112   2.505   2.609  13.662 -2.4126 -0.2425 -1.2715
 7541TIP3   OH244113   5.050   4.860  14.112  0.1902  0.5787  0.1062
 7541TIP3    H144114   5.070   4.952  14.131 -1.6874  1.0144  0.1111
 7541TIP3    H244115   4.954   4.856  14.112  0.2443 -1.2239 -0.6975
 7542TIP3   OH244116   1.778   3.134  16.891  0.3708 -0.4495  0.0419
 7542TIP3    H144117   1.807   3.215  16.849 -0.7860  1.3927  2.6381
 7542TIP3    H244118   1.692   3.116  16.852 -0.9210  1.5217  1.8449
 7543TIP3   OH244119   5.353   2.619  16.796 -0.1385 -0.9398  0.2163
 7543TIP3    H144120   5.278   2.611  16.855 -0.3545  0.3514  0.1239
 7543TIP3    H244121   5.388   2.707  16.812  1.3524 -1.5243  0.2526
 7544TIP3   OH244122   6.268   4.302  11.829  0.2048  1.0457  0.2642
 7544TIP3    H144123   6.180   4.334  11.809  0.5399  1.3349 -0.7770
 7544TIP3    H244124   6.255   4.238  11.899 -0.8441  1.0077  0.0458
 7545TIP3   OH244125   5.231   1.499   2.091  0.0704  0.1375  0.5873
 7545TIP3    H144126   5.145   1.473   2.058  0.2469  0.4411 -0.1270
 7545TIP3    H244127   5.272   1.416   2.118  0.3514 -0.2629 -1.0053
 7546TIP3   OH244128   4.975   2.471   4.163 -0.2525 -0.2826 -0.3513
 7546TIP3    H144129   5.049   2.457   4.105 -1.1698 -2.4484 -1.0329
 7546TIP3    H244130   4.913   2.523   4.110 -0.0259 -0.1024 -0.4396
 7547TIP3   OH244131   5.187   2.673  13.579  0.0147 -0.2649  0.1445
 7547TIP3    H144132   5.173   2.757  13.623  0.1404 -0.8890  1.3881
 7547TIP3    H244133   5.253   2.628  13.632  0.0313 -1.1027 -0.5750
 7548TIP3   OH244134   1.107   1.355  13.522 -0.1753  0.1479 -0.0753
 7548TIP3    H144135   1.123   1.285  13.585  0.4687 -0.0290 -0.4234
 7548TIP3    H244136   1.025   1.395  13.550 -0.2939 -0.4294  0.4165
 7549TIP3   OH244137   0.039   5.118  10.646  0.2674  0.8443  0.1434
 7549TIP3    H144138  -0.047   5.138  10.681  1.1350  1.9863  1.6996
 7549TIP3    H244139   0.034   5.026  10.620 -1.4365  0.9313  0.1440
 7550TIP3   OH244140   2.808   0.989   2.389  0.0158  0.5538  0.0783
 7550TIP3    H144141   2.812   1.010   2.482  0.0294  0.0617  0.1909
 7550TIP3    H244142   2.738   0.924   2.382  1.2755 -0.8098  0.0070
 7551TIP3   OH244143   6.656   4.798   1.116  0.3320 -0.0473  0.5912
 7551TIP3    H144144   6.716   4.726   1.095 -0.7487 -1.0442  0.8157
 7551TIP3    H244145   6.657   4.854   1.038 -0.7504 -1.6827 -0.6409
 7552TIP3   OH244146   4.339   0.133  11.548 -0.3202  0.5326 -0.7071
 7552TIP3    H144147   4.410   0.077  11.579 -0.6293  0.0038 -0.9533
 7552TIP3    H244148   4.261   0.103  11.596 -0.8288 -0.3862 -2.0782
 7553TIP3   OH244149   4.575   6.338  12.078 -0.7079 -0.1825 -0.3202
 7553TIP3    H144150   4.627   6.362  12.155 -0.4372 -2.7051  0.3246
 7553TIP3    H244151   4.639   6.318  12.011 -0.9176  0.6201 -0.7589
 7554TIP3   OH244152   0.317   6.315   3.774  0.1495 -0.3255 -0.0893
 7554TIP3    H144153   0.324   6.306   3.869  0.4977  0.1400 -0.0710
 7554TIP3    H244154   0.365   6.395   3.754 -2.5048  1.2817 -0.3038
 7555TIP3   OH244155   4.287   2.728   5.909 -0.2610  0.1716 -0.3818
 7555TIP3    H144156   4.355   2.689   5.963 -1.6158 -0.6198  0.7704
 7555TIP3    H244157   4.239   2.786   5.968 -2.7476 -1.8980 -0.2794
 7556TIP3   OH244158   1.002   2.980  15.248  0.2511 -1.1972 -0.1545
 7556TIP3    H144159   0.936   2.960  15.181 -1.5914 -2.0133  1.8565
 7556TIP3    H244160   1.012   2.899  15.297  1.4530 -0.5469  0.6879
 7557TIP3   OH244161   5.028   4.179   0.923 -0.0381 -0.1095 -0.3909
 7557TIP3    H144162   5.010   4.270   0.947  0.2588  0.1467 -1.1442
 7557TIP3    H244163   5.088   4.184   0.849 -1.0568 -0.9043 -1.2824
 7558TIP3   OH244164   1.406   0.844  11.685 -0.2651 -0.1659  0.3704
 7558TIP3    H144165   1.430   0.898  11.610 -0.5946 -0.3502  0.1319
 7558TIP3    H244166   1.481   0.786  11.698 -1.1981 -1.8352 -1.3626
 7559TIP3   OH244167   4.369   5.319   4.824  0.4332 -0.7916 -0.1542
 7559TIP3    H144168   4.449   5.270   4.842 -0.6384 -2.0365  1.3707
 7559TIP3    H244169   4.326   5.327   4.909  0.3897  2.5283 -0.4196
 7560TIP3   OH244170   2.578   2.403  11.157 -0.6663  0.2321  0.4195
 7560TIP3    H144171   2.543   2.440  11.238 -0.9146 -0.1011  0.4607
 7560TIP3    H244172   2.502   2.389  11.101 -0.8713 -2.6713  1.3812
 7561TIP3   OH244173   5.267   6.116  11.425  0.7393 -0.0247  0.6549
 7561TIP3    H144174   5.201   6.047  11.432 -1.3298  1.6913 -0.8370
 7561TIP3    H244175   5.343   6.083  11.473 -1.5163 -1.7013  3.2051
 7562TIP3   OH244176   0.406   3.646   4.957 -0.8906 -0.1958 -0.1450
 7562TIP3    H144177   0.396   3.574   4.895 -0.8064 -0.1963 -0.1577
 7562TIP3    H244178   0.500   3.660   4.963 -0.8390 -0.8853  0.7757
 7563TIP3   OH244179   6.119   0.698  13.575  0.0385 -0.4324  0.0883
 7563TIP3    H144180   6.074   0.722  13.494  0.0539  0.1523  0.2487
 7563TIP3    H244181   6.136   0.782  13.618 -0.7322 -0.7911  1.1102
 7564TIP3   OH244182   6.280   1.074   1.080  0.7251 -0.4040  0.6723
 7564TIP3    H144183   6.222   1.006   1.114 -1.4109  1.2574  0.4930
 7564TIP3    H244184   6.363   1.030   1.065 -0.1642 -2.6058  2.0049
 7565TIP3   OH244185   1.255   4.496  14.827  0.2016 -0.1527 -0.5791
 7565TIP3    H144186   1.279   4.485  14.735  1.0860 -1.7784 -0.1707
 7565TIP3    H244187   1.337   4.488  14.875 -0.3852 -0.2775  0.4270
 7566TIP3   OH244188   6.336   0.092  16.828 -0.0239 -0.1265 -0.0246
 7566TIP3    H144189   6.290   0.175  16.818  0.7013  0.5188  1.8522
 7566TIP3    H244190   6.429   0.116  16.826  0.1988 -0.9958 -0.2851
 7567TIP3   OH244191   0.791   3.048  16.121  0.0551 -0.1600 -0.5073
 7567TIP3    H144192   0.865   3.109  16.123  1.1860 -1.5049 -0.0361
 7567TIP3    H244193   0.819   2.979  16.060  0.5017 -2.2491  1.9736
 7568TIP3   OH244194   1.682   3.297   3.964  0.3092  0.6770 -0.5973
 7568TIP3    H144195   1.689   3.216   4.015 -1.7196  1.0011  0.2585
 7568TIP3    H244196   1.670   3.268   3.874  0.3041  0.0278 -0.3900
 7569TIP3   OH244197   1.011   4.670   0.034 -0.4850 -0.2797 -0.0963
 7569TIP3    H144198   1.040   4.707   0.117 -1.3896  1.9583 -0.7554
 7569TIP3    H244199   1.073   4.705  -0.031  0.8770 -2.8620 -0.2712
 7570TIP3   OH244200   4.821   3.017  11.926  0.3581 -0.0692 -0.3278
 7570TIP3    H144201   4.835   3.097  11.977  1.1886 -1.2024  1.2735
 7570TIP3    H244202   4.815   2.948  11.992 -1.8069 -1.1514 -1.5943
 7571TIP3   OH244203   1.172   2.510   4.840 -0.0869  0.2776 -0.2672
 7571TIP3    H144204   1.255   2.534   4.881  0.4175 -1.3513 -0.3067
 7571TIP3    H244205   1.172   2.414   4.838 -2.3116  0.2362  0.4104
 7572TIP3   OH244206   1.002   0.377   4.083  0.3653 -0.0919 -1.0476
 7572TIP3    H144207   1.060   0.380   4.006  0.6615  1.1684 -0.7740
 7572TIP3    H244208   1.059   0.351   4.155  0.2311 -0.5433 -1.0966
 7573TIP3   OH244209   4.383   0.281   1.661  0.0084  0.3385  0.4467
 7573TIP3    H144210   4.461   0.323   1.697  0.5945 -0.2787 -0.0814
 7573TIP3    H244211   4.317   0.349   1.660  1.4864  1.8298 -2.1883
 7574TIP3   OH244212   4.737   3.474  12.170  0.0924 -0.3666 -0.0964
 7574TIP3    H144213   4.706   3.539  12.234 -0.8066 -0.9206  0.0439
 7574TIP3    H244214   4.708   3.509  12.085  0.2626 -0.2163 -0.0942
 7575TIP3   OH244215   1.259   2.768   9.947 -0.6774  0.6218  0.0951
 7575TIP3    H144216   1.181   2.772   9.891  0.1933 -1.5459 -1.3406
 7575TIP3    H244217   1.279   2.674   9.954  0.7613  1.0387  1.9071
 7576TIP3   OH244218   3.533   0.292  11.192 -0.1145  0.5901  0.5034
 7576TIP3    H144219   3.613   0.326  11.153 -0.6972 -0.6643 -1.8359
 7576TIP3    H244220   3.468   0.361  11.178  0.3025  1.2447  1.6493
 7577TIP3   OH244221   1.202   5.666   0.175  0.5061 -0.0669 -0.6718
 7577TIP3    H144222   1.139   5.670   0.103 -0.7960  0.8628  0.4772
 7577TIP3    H244223   1.203   5.573   0.200 -0.8070 -0.0157 -0.3802
 7578TIP3   OH244224   6.758   6.321   3.947  0.1179  0.7179  0.2309
 7578TIP3    H144225   6.829   6.258   3.958  0.4492  0.7484 -1.5323
 7578TIP3    H244226   6.780   6.392   4.007  1.5887  0.7267 -0.2903
 7579TIP3   OH244227   2.928   2.466  11.832 -0.3003 -0.7005 -0.1328
 7579TIP3    H144228   2.906   2.374  11.845 -0.4909 -0.6164  0.1240
 7579TIP3    H244229   2.919   2.506  11.918  0.5095 -0.5945 -0.0885
 7580TIP3   OH244230   1.331   2.710  11.795 -0.7671  0.1534 -0.3367
 7580TIP3    H144231   1.256   2.669  11.753 -1.5089  1.4061 -0.2519
 7580TIP3    H244232   1.323   2.803  11.772  1.8953  0.0199 -2.1043
 7581TIP3   OH244233   6.139   3.649  10.727  0.6098 -0.0994  0.3573
 7581TIP3    H144234   6.169   3.705  10.799 -0.6500  1.1409 -0.0698
 7581TIP3    H244235   6.132   3.562  10.767  1.5277  0.2484  1.3077
 7582TIP3   OH244236   2.099   2.145  13.033  0.1604  0.6607 -0.1309
 7582TIP3    H144237   2.181   2.115  12.993 -1.9948 -1.2684 -3.2590
 7582TIP3    H244238   2.099   2.240  13.021  2.1829  0.7818  0.5046
 7583TIP3   OH244239   6.280   4.682  17.259  0.5403  0.1657 -0.1381
 7583TIP3    H144240   6.350   4.621  17.238  1.4976  0.9619  0.6341
 7583TIP3    H244241   6.261   4.727  17.177  0.1895 -0.8173 -0.5898
 7584TIP3   OH244242   0.138   4.742   1.365 -0.1585  0.1646  0.3003
 7584TIP3    H144243   0.192   4.819   1.346 -1.2746  0.9202  0.1858
 7584TIP3    H244244   0.055   4.777   1.397 -1.0441 -0.9685 -0.7030
 7585TIP3   OH244245   2.846   2.864   2.538  0.0577 -0.3512 -0.3030
 7585TIP3    H144246   2.867   2.853   2.446 -1.5026  0.8286 -0.8152
 7585TIP3    H244247   2.754   2.838   2.545  0.1098 -0.2428  0.8827
 7586TIP3   OH244248   2.979   3.182  12.509 -0.6975  0.2116  0.0266
 7586TIP3    H144249   3.053   3.144  12.556 -0.2033  0.1096 -0.8357
 7586TIP3    H244250   2.958   3.261  12.559 -3.4247 -2.4705  3.3761
 7587TIP3   OH244251   0.049   5.377  12.445 -0.2535 -0.1991 -0.0374
 7587TIP3    H144252   0.046   5.389  12.540  0.4932 -0.1412 -0.0225
 7587TIP3    H244253   0.098   5.453  12.412  1.4126 -1.3487 -0.2685
 7588TIP3   OH244254   4.660   6.317  16.079  0.4834 -0.1494  0.5333
 7588TIP3    H144255   4.718   6.387  16.047  1.5203 -0.4633  1.6911
 7588TIP3    H244256   4.642   6.264  16.001 -1.3169  2.0895 -0.6301
 7589TIP3   OH244257   2.198   6.625   6.074 -0.5079  0.5872  0.3841
 7589TIP3    H144258   2.263   6.556   6.063 -1.4368 -0.4153  1.0401
 7589TIP3    H244259   2.165   6.612   6.164 -0.2676  2.2514  0.7159
 7590TIP3   OH244260   3.226   0.829   3.579 -0.3676  0.1778  0.1638
 7590TIP3    H144261   3.130   0.837   3.583 -0.2399  1.5396  0.8393
 7590TIP3    H244262   3.247   0.837   3.486 -0.8266  1.1504  0.1308
 7591TIP3   OH244263   3.926   0.578  11.483 -0.4548  0.1458 -0.3933
 7591TIP3    H144264   3.997   0.514  11.494 -0.3095  0.4277  0.3477
 7591TIP3    H244265   3.846   0.525  11.488 -0.3147 -0.1044 -0.7312
 7592TIP3   OH244266   0.706   0.934   0.802 -0.2136  0.2979  0.0216
 7592TIP3    H144267   0.616   0.902   0.808 -0.7352  1.8177  0.2901
 7592TIP3    H244268   0.711   0.977   0.717 -0.0719  1.2027  0.4779
 7593TIP3   OH244269   5.245   5.477   3.153 -0.1135 -0.5905  0.4670
 7593TIP3    H144270   5.218   5.511   3.238  0.2702  0.3742  0.2083
 7593TIP3    H244271   5.185   5.517   3.090  0.6328 -0.0122  0.1115
 7594TIP3   OH244272   3.690   3.232   1.804 -0.2323 -0.1668  0.3223
 7594TIP3    H144273   3.784   3.229   1.788 -0.5022 -0.8203 -1.2919
 7594TIP3    H244274   3.656   3.294   1.739 -0.8123  0.7421  1.4741
 7595TIP3   OH244275   1.440   2.809   4.612  1.2497  0.1199  0.3226
 7595TIP3    H144276   1.402   2.850   4.690 -0.3077  0.3102 -0.5191
 7595TIP3    H244277   1.379   2.830   4.542  1.8147 -1.4270 -0.6456
 7596TIP3   OH244278   0.029   4.750  13.089  0.1026 -0.8588  0.0462
 7596TIP3    H144279  -0.019   4.831  13.069  0.3065 -0.7922 -0.1757
 7596TIP3    H244280   0.114   4.762  13.048  0.5109 -0.7506  0.9232
 7597TIP3   OH244281   1.993   4.620   6.678  0.3495  0.0030  0.1384
 7597TIP3    H144282   1.901   4.636   6.698  0.2750 -0.4950  0.2046
 7597TIP3    H244283   1.993   4.535   6.633  0.8721 -0.4187  0.9274
 7598TIP3   OH244284   4.986   4.820   1.633  0.2296 -0.8166  0.2198
 7598TIP3    H144285   4.919   4.862   1.580  0.0866 -1.2645  0.0466
 7598TIP3    H244286   4.939   4.790   1.712  0.0030 -2.0812 -0.3787
 7599TIP3   OH244287   3.534   0.376   1.998 -0.4408  0.5632  0.5832
 7599TIP3    H144288   3.440   0.369   2.019 -0.3054  2.1093  1.8188
 7599TIP3    H244289   3.561   0.458   2.040  1.8861 -0.7996  1.8252
 7600TIP3   OH244290   4.517   2.139  13.913  0.4693 -0.0196  0.1081
 7600TIP3    H144291   4.469   2.130  13.831  0.8302  0.3169 -0.1387
 7600TIP3    H244292   4.594   2.190  13.891  0.1134  0.8541  0.8359
 7601TIP3   OH244293   0.772   4.129  13.998 -0.2763  1.0020  0.2157
 7601TIP3    H144294   0.730   4.048  13.969  0.5415 -0.1863  2.2693
 7601TIP3    H244295   0.763   4.127  14.093  1.5520  2.3326  0.4276
 7602TIP3   OH244296   1.672   1.464  11.856 -0.2585 -0.6827 -0.2551
 7602TIP3    H144297   1.577   1.472  11.847 -0.2089  1.1486  0.7182
 7602TIP3    H244298   1.694   1.385  11.807 -2.1276 -0.4434 -1.5091
 7603TIP3   OH244299   4.225   3.254  14.698 -0.3513 -0.4493  0.1099
 7603TIP3    H144300   4.222   3.286  14.607  3.2279  3.0664  1.0824
 7603TIP3    H244301   4.156   3.303  14.742 -0.6744 -0.5525 -0.2751
 7604TIP3   OH244302   4.872   4.957   2.312 -0.2671  0.3605  0.3381
 7604TIP3    H144303   4.812   4.975   2.239 -1.5924  0.2042  1.3694
 7604TIP3    H244304   4.841   5.013   2.383  2.6217  2.4991  0.0162
 7605TIP3   OH244305   6.779   3.255  16.966 -0.4240 -0.5078 -0.2062
 7605TIP3    H144306   6.851   3.239  17.027 -0.5666 -1.8986 -0.3931
 7605TIP3    H244307   6.748   3.168  16.942 -1.5414  0.0673 -0.8800
 7606TIP3   OH244308   0.877   5.460  14.296  0.1592 -0.3417  0.3015
 7606TIP3    H144309   0.819   5.427  14.227 -0.6288 -0.3027  0.9469
 7606TIP3    H244310   0.841   5.426  14.377  0.0293  1.1179  0.8739
 7607TIP3   OH244311   1.841   6.626   0.913  0.2620 -0.2632 -0.9766
 7607TIP3    H144312   1.908   6.629   0.845  1.1963  1.2857 -0.0253
 7607TIP3    H244313   1.882   6.580   0.986 -0.1571 -0.4363 -0.8469
 7608TIP3   OH244314   0.238   6.324  13.926  0.0057  0.5388 -0.3320
 7608TIP3    H144315   0.309   6.262  13.907 -1.8022 -1.9267  0.6992
 7608TIP3    H244316   0.205   6.349  13.840 -1.8625 -3.0959 -0.7539
 7609TIP3   OH244317   1.165   2.445  15.949  0.2471 -0.0494  0.0687
 7609TIP3    H144318   1.126   2.520  15.995  0.3959 -0.2210  0.4756
 7609TIP3    H244319   1.241   2.482  15.904  0.0852  0.1256 -0.0613
 7610TIP3   OH244320   5.840   0.375   2.240 -0.2830  0.6070 -0.1911
 7610TIP3    H144321   5.808   0.285   2.247  0.2944  0.4683  0.8995
 7610TIP3    H244322   5.771   0.423   2.195  0.0781 -0.7138 -2.1966
 7611TIP3   OH244323   0.205   4.828  11.974  0.7635 -0.4848  0.6348
 7611TIP3    H144324   0.184   4.783  11.893 -1.6143  0.6172  0.5971
 7611TIP3    H244325   0.255   4.906  11.947 -1.0436  0.5067  0.1028
 7612TIP3   OH244326   4.727   3.375  16.736  0.0420  0.2011 -0.3186
 7612TIP3    H144327   4.745   3.282  16.722  1.1305  0.2055  0.9481
 7612TIP3    H244328   4.759   3.419  16.657  0.5229 -0.3785 -0.4435
 7613TIP3   OH244329   4.927   2.294   1.702  0.5947  0.4795  0.1172
 7613TIP3    H144330   4.860   2.334   1.758  0.0874  0.0434 -0.1744
 7613TIP3    H244331   4.887   2.213   1.672  1.1337  0.3798 -0.3257
 7614TIP3   OH244332   3.710   0.596  14.362 -0.1750  0.0146  0.0978
 7614TIP3    H144333   3.725   0.541  14.285  1.7819 -0.6666  0.9578
 7614TIP3    H244334   3.715   0.686  14.328 -0.4539 -0.2846 -0.7583
 7615TIP3   OH244335   2.163   0.446   3.186  0.0279 -0.4870  0.0195
 7615TIP3    H144336   2.231   0.385   3.155 -0.1947 -0.3119 -0.8190
 7615TIP3    H244337   2.115   0.470   3.107 -0.4278  0.1156  0.4812
 7616TIP3   OH244338   3.074   5.518  12.871 -0.2914  0.0704 -0.5846
 7616TIP3    H144339   3.099   5.479  12.955  1.2072 -1.3607 -1.6828
 7616TIP3    H244340   3.026   5.449  12.826  0.2627  0.3192 -1.5513
 7617TIP3   OH244341   6.373   5.539   3.083 -0.3335  0.1393 -0.3016
 7617TIP3    H144342   6.293   5.529   3.135 -0.6079  0.5946 -0.6364
 7617TIP3    H244343   6.379   5.459   3.032 -2.7470  1.7337 -3.2863
 7618TIP3   OH244344   1.745   2.012   1.174 -0.0859 -0.0201  0.4491
 7618TIP3    H144345   1.787   1.938   1.129 -0.9877 -1.2887  1.6693
 7618TIP3    H244346   1.736   2.078   1.106  2.5160 -0.2881 -0.1994
 7619TIP3   OH244347   4.295   0.344   4.066 -0.2275 -0.0033 -0.2783
 7619TIP3    H144348   4.247   0.271   4.105  0.9799  0.4986  2.2579
 7619TIP3    H244349   4.377   0.305   4.035  0.0525  0.0916  0.3220
 7620TIP3   OH244350   3.460   4.800   0.112  0.5116 -0.0261 -0.1094
 7620TIP3    H144351   3.368   4.824   0.122  0.1201 -1.5073  0.0360
 7620TIP3    H244352   3.507   4.882   0.121 -0.7163  0.5760  1.0776
 7621TIP3   OH244353   0.418   0.073  14.922 -0.5622 -0.3739  0.3933
 7621TIP3    H144354   0.388  -0.016  14.904  0.1137 -0.6362  0.5641
 7621TIP3    H244355   0.357   0.129  14.874  0.5198 -1.0026 -1.7578
 7622TIP3   OH244356   1.692   3.819  14.982 -0.1523 -0.0639 -0.1560
 7622TIP3    H144357   1.637   3.761  15.036  0.1820  0.8117  1.1607
 7622TIP3    H244358   1.660   3.907  15.003  0.0456  0.2904 -1.3467
 7623TIP3   OH244359   3.859   6.191   2.985 -0.2979  0.2331  0.4263
 7623TIP3    H144360   3.907   6.192   2.902  0.8518 -0.3575  1.0645
 7623TIP3    H244361   3.782   6.245   2.969 -0.9188 -1.1680 -1.5123
 7624TIP3   OH244362   0.834   2.275  16.727  0.1532  0.6368  0.9996
 7624TIP3    H144363   0.829   2.295  16.633 -0.5054 -0.6916  0.7401
 7624TIP3    H244364   0.754   2.312  16.764  0.1240  0.6352  0.9384
 7625TIP3   OH244365   0.788   5.442   6.097  0.0542  0.1568  0.1974
 7625TIP3    H144366   0.832   5.360   6.074  0.1955 -0.0488  1.1648
 7625TIP3    H244367   0.839   5.510   6.054 -0.9687 -0.3631 -1.9157
 7626TIP3   OH244368   6.749   2.807  16.673  0.1802  0.2729 -0.3057
 7626TIP3    H144369   6.806   2.838  16.602  3.2328 -2.6470  0.7196
 7626TIP3    H244370   6.664   2.845  16.654  1.1523  0.3967 -4.9885
 7627TIP3   OH244371   3.706   6.132  14.869  0.2055 -0.0515  0.2514
 7627TIP3    H144372   3.617   6.149  14.898  0.4356 -0.5956  1.3073
 7627TIP3    H244373   3.757   6.127  14.950  1.4872  1.8535 -0.3943
 7628TIP3   OH244374   2.603   3.657   4.446 -0.0692  0.2485  0.7304
 7628TIP3    H144375   2.545   3.668   4.520 -1.1562 -1.0021  0.0805
 7628TIP3    H244376   2.672   3.599   4.478 -1.1634 -1.2399  0.4444
 7629TIP3   OH244377   3.689   0.879  16.105 -0.4220 -0.2166 -0.5614
 7629TIP3    H144378   3.628   0.831  16.162 -0.9749  0.1674 -0.8193
 7629TIP3    H244379   3.683   0.834  16.021 -2.3185  1.3752 -1.3232
 7630TIP3   OH244380   2.505   6.617  10.976  0.0700  0.5153 -0.0282
 7630TIP3    H144381   2.569   6.575  10.919 -0.0764 -0.5708  0.5989
 7630TIP3    H244382   2.481   6.550  11.040 -2.7941  0.3942 -1.1430
 7631TIP3   OH244383   3.643   3.190  16.226 -0.5658  0.3364 -0.5125
 7631TIP3    H144384   3.710   3.208  16.292 -0.1456  1.5601 -1.2603
 7631TIP3    H244385   3.576   3.139  16.273 -0.2399  1.1355  0.8350
 7632TIP3   OH244386   2.208   2.598  16.572  0.0045  0.2005 -0.1816
 7632TIP3    H144387   2.228   2.680  16.618 -0.4858  0.6318 -0.7199
 7632TIP3    H244388   2.126   2.617  16.526 -0.7657 -1.0016  0.6883
 7633TIP3   OH244389   2.956   3.015  16.562  0.0468 -0.3678 -0.6990
 7633TIP3    H144390   2.927   2.997  16.651  1.9006 -0.0254 -0.0000
 7633TIP3    H244391   2.875   3.029  16.513 -0.9853 -0.0841  1.0295
 7634TIP3   OH244392   0.086   1.580  12.908  0.2550  0.6944 -0.0089
 7634TIP3    H144393   0.130   1.606  12.827 -2.5592  0.1856 -1.7664
 7634TIP3    H244394   0.047   1.661  12.941  3.8301  1.5292  2.5280
 7635TIP3   OH244395   2.304   0.749   6.330 -0.0113  0.9175 -0.1590
 7635TIP3    H144396   2.283   0.833   6.369  1.4189  0.3986  1.7908
 7635TIP3    H244397   2.340   0.697   6.402  3.2632  0.1348 -2.2755
 7636TIP3   OH244398   6.071   6.766  11.900  0.2697  0.1253 -0.5242
 7636TIP3    H144399   5.998   6.709  11.875  0.1432 -0.7321  1.7038
 7636TIP3    H244400   6.036   6.855  11.894 -0.1756 -0.1338 -1.9566
 7637TIP3   OH244401   3.022   3.702  16.104  0.8644  0.2125 -0.6812
 7637TIP3    H144402   3.078   3.642  16.057  0.6896  0.3282 -1.0370
 7637TIP3    H244403   2.953   3.726  16.042 -2.0647 -3.2468  0.9996
 7638TIP3   OH244404   2.577   1.777  11.832 -0.2586  0.4634 -0.1066
 7638TIP3    H144405   2.492   1.798  11.795  0.1243  1.2792 -0.5321
 7638TIP3    H244406   2.558   1.715  11.903 -1.1462  0.2423 -0.5354
 7639TIP3   OH244407   3.715   3.245   3.756  0.2452 -0.2458  0.3970
 7639TIP3    H144408   3.765   3.287   3.687 -0.1934 -0.5979 -0.1466
 7639TIP3    H244409   3.767   3.256   3.836  0.7062  0.2403  0.0232
 7640TIP3   OH244410   2.578   5.113  12.548  0.1554  0.2644 -0.1850
 7640TIP3    H144411   2.575   5.058  12.627 -1.4208 -0.2260 -0.5665
 7640TIP3    H244412   2.544   5.198  12.577  0.1258  0.2565 -0.1955
 7641TIP3   OH244413   2.035   5.362  13.851 -0.3135 -0.1615 -0.5171
 7641TIP3    H144414   1.982   5.365  13.931  0.2580 -1.2858 -0.0909
 7641TIP3    H244415   1.975   5.329  13.784 -0.6220  0.2136 -0.4332
 7642TIP3   OH244416   0.892   2.744  13.606  0.0478 -0.2903  0.2147
 7642TIP3    H144417   0.901   2.753  13.701  1.8915 -0.3292  0.0618
 7642TIP3    H244418   0.963   2.685  13.581 -0.8802 -0.8646 -1.1003
 7643TIP3   OH244419   3.902   1.358   6.598  0.0408  0.0839 -0.4064
 7643TIP3    H144420   3.945   1.441   6.617 -0.3158 -0.0268  0.9051
 7643TIP3    H244421   3.868   1.328   6.682  1.9649 -2.4295 -0.4810
 7644TIP3   OH244422   2.101   6.576   2.367 -0.2375  0.4496 -0.1775
 7644TIP3    H144423   2.094   6.502   2.427 -1.0785  1.9587  1.6127
 7644TIP3    H244424   2.052   6.547   2.289 -1.9640 -0.2667  1.1359
 7645TIP3   OH244425   1.732   2.690   5.156 -0.0219 -0.9300 -0.0054
 7645TIP3    H144426   1.800   2.647   5.208 -0.1603 -0.9570  0.1550
 7645TIP3    H244427   1.727   2.639   5.075 -3.1123 -3.8260  1.8700
 7646TIP3   OH244428   0.473   1.588   2.060 -0.3712  1.1131 -0.3135
 7646TIP3    H144429   0.506   1.547   2.140 -0.8715 -0.5436 -0.9358
 7646TIP3    H244430   0.415   1.523   2.022 -0.8283  2.2387 -1.5756
 7647TIP3   OH244431   4.671   1.721   0.790  0.0380 -0.2043 -0.6522
 7647TIP3    H144432   4.688   1.716   0.696 -2.0119  0.0478 -1.0516
 7647TIP3    H244433   4.629   1.806   0.803 -0.1974 -0.4712  0.4137
 7648TIP3   OH244434   0.802   0.910  13.175  0.2291 -0.2830  0.1984
 7648TIP3    H144435   0.746   0.979  13.138  0.2103  0.1627  1.0518
 7648TIP3    H244436   0.817   0.850  13.101 -1.3909 -0.4243 -0.0446
 7649TIP3   OH244437   1.717   5.807   2.754  0.1208  0.0182 -0.2311
 7649TIP3    H144438   1.802   5.768   2.732  0.4393  1.1850 -1.1326
 7649TIP3    H244439   1.692   5.854   2.674 -0.2568  1.6410  0.8352
 7650TIP3   OH244440   5.378   2.258  13.942 -0.0227 -0.0129  0.2041
 7650TIP3    H144441   5.437   2.183  13.941 -0.3187 -0.2361 -1.3531
 7650TIP3    H244442   5.291   2.221  13.926 -0.0780  0.7243 -1.3212
 7651TIP3   OH244443   5.270   5.281   0.942  0.0975 -0.8558  0.0116
 7651TIP3    H144444   5.293   5.266   1.033 -2.2811  3.7538  1.5132
 7651TIP3    H244445   5.346   5.325   0.905  0.2722 -0.8842  0.3373
 7652TIP3   OH244446   4.998   1.803  16.090  0.3021 -0.2858 -0.3892
 7652TIP3    H144447   5.059   1.877  16.096 -3.0875  2.7108 -1.2207
 7652TIP3    H244448   4.969   1.789  16.180 -0.0661  0.3008 -0.4139
 7653TIP3   OH244449   5.058   4.690  14.968  0.4772 -0.0609 -0.5125
 7653TIP3    H144450   5.128   4.734  15.016 -0.6571  1.5275 -0.2565
 7653TIP3    H244451   5.028   4.755  14.905  0.1823 -1.2252 -1.6008
 7654TIP3   OH244452   0.438   2.129  17.060  0.0871 -0.0547 -0.1361
 7654TIP3    H144453   0.478   2.042  17.057 -0.9820 -0.6919  2.7054
 7654TIP3    H244454   0.347   2.115  17.033 -0.0526  0.1993  0.2005
 7655TIP3   OH244455   5.169   1.310  13.743 -0.5110 -0.1115  0.6810
 7655TIP3    H144456   5.214   1.287  13.823  0.8094 -1.3198 -0.3883
 7655TIP3    H244457   5.130   1.228  13.713 -0.9348  0.3162  0.0434
 7656TIP3   OH244458   0.294   6.674   5.589 -0.3114  0.2063 -0.3904
 7656TIP3    H144459   0.359   6.744   5.600  0.9999 -0.7110 -2.0234
 7656TIP3    H244460   0.318   6.608   5.654 -0.9245  0.8250  0.4617
 7657TIP3   OH244461   6.717   0.262  14.356 -0.7401 -0.1215  0.1387
 7657TIP3    H144462   6.803   0.244  14.396 -0.9180 -0.3214  0.4312
 7657TIP3    H244463   6.656   0.258  14.429 -0.9377  0.4899  0.0106
 7658TIP3   OH244464   5.370   6.817   2.403 -0.0224  0.1411  0.2801
 7658TIP3    H144465   5.292   6.774   2.367 -1.5067  2.9138  0.0606
 7658TIP3    H244466   5.442   6.760   2.377 -1.7738 -1.4448 -1.2800
 7659TIP3   OH244467   5.667   2.525   3.301 -0.0352 -0.2661  0.0525
 7659TIP3    H144468   5.709   2.598   3.256  0.6453 -1.6446 -1.6289
 7659TIP3    H244469   5.720   2.511   3.379  1.7353 -0.9499 -1.2225
 7660TIP3   OH244470   5.825   1.564  15.409 -0.1369  0.2234  0.3591
 7660TIP3    H144471   5.834   1.559  15.313  0.9833  1.2626  0.3952
 7660TIP3    H244472   5.748   1.619  15.423 -1.1367 -1.0840  0.0553
 7661TIP3   OH244473   6.624   3.287   3.900 -0.3588  0.1324 -0.5260
 7661TIP3    H144474   6.536   3.250   3.911  0.5450 -1.7306  0.6958
 7661TIP3    H244475   6.668   3.268   3.982  1.5682 -0.0264 -1.5753
 7662TIP3   OH244476   1.964   3.938  15.959  0.3987 -0.4173  0.0422
 7662TIP3    H144477   1.917   3.897  16.032 -0.4185  0.7889  0.1955
 7662TIP3    H244478   2.056   3.932  15.983  0.0837  0.7642  1.5967
 7663TIP3   OH244479   4.311   1.905  17.269  0.4087  0.6384  0.0742
 7663TIP3    H144480   4.294   1.868  17.182  0.0009  0.2422  0.3236
 7663TIP3    H244481   4.251   1.979  17.276  1.4040  1.5138 -0.5299
 7664TIP3   OH244482   1.169   4.363   2.542 -0.8644 -0.0344 -0.0011
 7664TIP3    H144483   1.196   4.310   2.617 -1.4941 -1.9087 -1.0419
 7664TIP3    H244484   1.250   4.381   2.495 -1.0591 -3.9552 -2.0516
 7665TIP3   OH244485   6.340   3.007   5.617  0.2004  0.5801 -0.2561
 7665TIP3    H144486   6.380   3.000   5.531  0.4254  1.6979 -0.2578
 7665TIP3    H244487   6.387   3.079   5.659 -1.1651  1.2890  0.0981
 7666TIP3   OH244488   6.616   4.248  17.114  0.0456  0.3598 -0.0298
 7666TIP3    H144489   6.675   4.184  17.075 -1.2596  1.0201 -3.3095
 7666TIP3    H244490   6.662   4.332  17.106  0.1186  0.3827  0.6177
 7667TIP3   OH244491   2.145   0.329   0.678 -0.0399  0.2995  0.3311
 7667TIP3    H144492   2.150   0.387   0.754 -1.9244  1.1339 -0.1689
 7667TIP3    H244493   2.055   0.299   0.676  0.5925 -1.6074 -0.2140
 7668TIP3   OH244494   2.778   4.514  11.408 -0.3856  0.1727  0.3819
 7668TIP3    H144495   2.722   4.585  11.437 -0.4532  0.1015  0.4243
 7668TIP3    H244496   2.859   4.526  11.457 -0.9760 -0.7223  1.6095
 7669TIP3   OH244497   2.552   5.310  11.292 -0.3655  0.3846 -0.0120
 7669TIP3    H144498   2.610   5.374  11.335 -0.7560  0.6720  0.0898
 7669TIP3    H244499   2.610   5.237  11.270 -0.0980  0.3618  0.7340
 7670TIP3   OH244500   0.153   2.095   2.229  0.1883 -0.0298  0.2407
 7670TIP3    H144501   0.208   2.021   2.203  1.2932  0.5454  0.9370
 7670TIP3    H244502   0.120   2.130   2.146  0.1955 -0.8787 -0.1321
 7671TIP3   OH244503   0.320   3.635  10.716  0.2752  0.7417 -0.0221
 7671TIP3    H144504   0.272   3.589  10.647  0.3677  0.4285  0.1186
 7671TIP3    H244505   0.403   3.661  10.675  0.9178 -0.6595  0.3541
 7672TIP3   OH244506   4.676   1.665  14.832 -0.0005 -0.2038  0.6213
 7672TIP3    H144507   4.760   1.691  14.868  0.4018 -1.6333  0.7569
 7672TIP3    H244508   4.688   1.573  14.809 -0.8452  0.1490 -1.3519
 7673TIP3   OH244509   4.099   6.068   4.294 -0.2810  0.0235  0.0712
 7673TIP3    H144510   4.030   6.067   4.361 -1.5768  1.1193 -1.2146
 7673TIP3    H244511   4.060   6.114   4.220  1.3866 -0.5345 -1.1886
 7674TIP3   OH244512   5.267   5.011  15.278 -0.1476  0.0794  0.2257
 7674TIP3    H144513   5.198   4.945  15.274 -0.0312 -0.0887  0.9340
 7674TIP3    H244514   5.252   5.066  15.201  0.4461 -1.4398 -0.9987
 7675TIP3   OH244515   4.626   2.602   3.110 -0.2607  0.1372 -0.6446
 7675TIP3    H144516   4.648   2.552   3.031  2.7469  1.9221 -1.0080
 7675TIP3    H244517   4.606   2.535   3.176  0.9521 -1.4672 -1.8641
 7676TIP3   OH244518   2.779   1.800   0.011 -0.9009 -0.4372  0.1347
 7676TIP3    H144519   2.719   1.784   0.084 -0.8029 -2.0561 -0.1206
 7676TIP3    H244520   2.722   1.830  -0.060 -1.7390 -3.8194 -0.7151
 7677TIP3   OH244521   6.147   0.416  15.893  0.0834  0.4657 -0.1708
 7677TIP3    H144522   6.069   0.407  15.837  0.0680 -0.4765 -0.0019
 7677TIP3    H244523   6.166   0.327  15.922  1.7032  0.5779 -0.8388
 7678TIP3   OH244524   2.033   5.754   0.012  0.1860  0.1938 -0.4201
 7678TIP3    H144525   2.061   5.754   0.104 -0.6242 -3.0041 -0.1170
 7678TIP3    H244526   1.953   5.806   0.011 -0.6052 -0.9495  1.0051
 7679TIP3   OH244527   2.028   5.411  10.743  0.5043  0.4156 -0.3211
 7679TIP3    H144528   2.075   5.329  10.759  0.5562  0.3337 -0.8849
 7679TIP3    H244529   2.041   5.428  10.650 -0.6158  0.3763 -0.4951
 7680TIP3   OH244530   6.605   6.052   2.718 -0.2712  0.3842  0.0900
 7680TIP3    H144531   6.531   5.997   2.741 -0.3139  0.6367  0.5517
 7680TIP3    H244532   6.672   5.991   2.687 -0.4026  0.0962  0.3792
 7681TIP3   OH244533   1.260   3.496   4.412  0.2229  0.2633 -0.1431
 7681TIP3    H144534   1.226   3.443   4.339  0.7525 -0.0788 -0.1491
 7681TIP3    H244535   1.240   3.586   4.388 -1.7252 -0.0070  0.4087
 7682TIP3   OH244536   6.622   3.755   4.073  0.0805  0.3108 -0.0165
 7682TIP3    H144537   6.599   3.721   3.986 -0.0781  0.2769  0.0376
 7682TIP3    H244538   6.699   3.704   4.099 -0.9035 -0.8905  0.5991
 7683TIP3   OH244539   5.545   0.310   5.606  0.4216 -0.6040 -0.0597
 7683TIP3    H144540   5.476   0.365   5.568  1.2631 -0.1495 -0.9627
 7683TIP3    H244541   5.625   0.362   5.598  1.6408 -2.7561 -2.9456
 7684TIP3   OH244542   2.873   5.036  13.361 -0.3845 -0.0708  0.2626
 7684TIP3    H144543   2.801   4.977  13.337 -1.0159  1.5657 -2.1408
 7684TIP3    H244544   2.919   5.051  13.278  0.6975  1.5430  1.1408
 7685TIP3   OH244545   5.496   0.381   2.697  0.4052 -0.0357  0.2215
 7685TIP3    H144546   5.446   0.302   2.716  1.1550  0.2963  4.1825
 7685TIP3    H244547   5.583   0.350   2.674  1.3134 -0.4418  3.8447
 7686TIP3   OH244548   5.136   5.215  17.254  0.0673  0.5331 -0.1774
 7686TIP3    H144549   5.120   5.199  17.347  1.4587 -0.0920 -0.0258
 7686TIP3    H244550   5.215   5.165  17.235  0.9405  2.2641 -1.2129
 7687TIP3   OH244551   5.038   2.117   4.725 -0.2441 -0.2044 -0.2001
 7687TIP3    H144552   4.969   2.181   4.709  0.0827 -0.1917 -1.5805
 7687TIP3    H244553   5.058   2.127   4.818 -1.2798  0.6048 -0.0528
 7688TIP3   OH244554   4.335   3.635  15.502  0.2796 -0.1159 -0.2197
 7688TIP3    H144555   4.317   3.728  15.490  1.7107  0.2850  0.5981
 7688TIP3    H244556   4.427   3.625  15.476  0.0388 -1.3615 -0.6117
 7689TIP3   OH244557   2.900   5.709   2.441  0.2456  0.0999  0.1052
 7689TIP3    H144558   2.945   5.793   2.442  3.6263 -1.6056 -0.0911
 7689TIP3    H244559   2.901   5.679   2.532 -0.5939  0.0688  0.1142
 7690TIP3   OH244560   2.542   1.211   3.204  0.1152 -0.8876  0.4432
 7690TIP3    H144561   2.630   1.181   3.228  1.4239 -0.4781 -3.5235
 7690TIP3    H244562   2.555   1.297   3.165 -1.9622 -1.1452 -0.8836
 7691TIP3   OH244563   1.941   1.429  14.063  0.2663 -0.0566  0.0630
 7691TIP3    H144564   1.847   1.450  14.067  0.1011 -0.6567 -0.5712
 7691TIP3    H244565   1.943   1.333  14.055  0.9999 -0.2723  2.6474
 7692TIP3   OH244566   2.323   1.038   1.861 -0.1883 -0.5844  0.5927
 7692TIP3    H144567   2.284   1.122   1.886 -2.6479 -1.4638 -0.0956
 7692TIP3    H244568   2.281   1.016   1.778  2.1821 -1.3729 -0.4213
 7693TIP3   OH244569   0.283   4.216   4.642 -0.0908  0.1509 -0.6283
 7693TIP3    H144570   0.270   4.266   4.722  1.6020  1.4001 -1.1154
 7693TIP3    H244571   0.350   4.265   4.593 -0.6398 -0.9182 -2.5143
 7694TIP3   OH244572   1.186   3.463  15.838 -0.2531 -0.4572  0.3075
 7694TIP3    H144573   1.163   3.430  15.751  0.8508 -1.8992  0.5300
 7694TIP3    H244574   1.104   3.463  15.887 -0.6323 -0.9668 -0.3204
 7695TIP3   OH244575   2.950   6.722   5.090 -0.2770 -0.5290  0.4320
 7695TIP3    H144576   2.942   6.655   5.158 -2.5867 -1.1898 -0.4427
 7695TIP3    H244577   2.918   6.680   5.011  0.7555  0.7876 -0.7205
 7696TIP3   OH244578   2.402   5.727  10.830  0.3578  0.3003 -0.0246
 7696TIP3    H144579   2.431   5.650  10.879 -0.5975  1.6327  2.7756
 7696TIP3    H244580   2.312   5.743  10.861  0.0907  1.7811 -1.4742
 7697TIP3   OH244581   4.661   0.412  10.937 -0.4810 -0.3472  0.1464
 7697TIP3    H144582   4.745   0.366  10.945 -0.5147 -0.6655 -1.1269
 7697TIP3    H244583   4.683   0.504  10.947  0.1707 -0.3602 -1.0607
 7698TIP3   OH244584   2.008   0.596  16.460 -0.1340 -0.2480 -0.3138
 7698TIP3    H144585   2.006   0.503  16.440  0.2443 -0.6357  1.3738
 7698TIP3    H244586   2.091   0.627  16.424  0.3699 -0.8445  0.3446
 7699TIP3   OH244587   1.882   2.902  16.782 -0.1864  0.6261 -0.1258
 7699TIP3    H144588   1.968   2.913  16.824 -0.9198  0.2454  1.5090
 7699TIP3    H244589   1.873   2.980  16.727 -0.9682  3.3039  3.5774
 7700TIP3   OH244590   2.950   6.819   2.171 -0.3939 -0.4019  0.2333
 7700TIP3    H144591   3.001   6.743   2.199 -1.7678 -0.6156  2.2443
 7700TIP3    H244592   2.985   6.891   2.223  0.2546  0.1923 -0.9887
 7701TIP3   OH244593   6.642   5.552  12.616 -0.0991  0.0478 -0.0026
 7701TIP3    H144594   6.720   5.511  12.654 -1.2378 -2.0126  0.2034
 7701TIP3    H244595   6.570   5.523  12.673 -1.2048  0.7074 -1.0471
 7702TIP3   OH244596   0.284   5.156  12.654 -0.0419  0.3804  0.5415
 7702TIP3    H144597   0.220   5.112  12.599 -0.6257  0.5343  1.0853
 7702TIP3    H244598   0.361   5.099  12.653 -0.5339 -0.2931  0.6628
 7703TIP3   OH244599   5.591   6.136  13.466 -0.2803  0.3347 -0.1374
 7703TIP3    H144600   5.672   6.157  13.514  0.0630  0.0446 -0.5816
 7703TIP3    H244601   5.580   6.211  13.407 -0.5452  0.5525  0.1827
 7704TIP3   OH244602   3.822   1.767   2.227  0.0878  0.1318 -0.0835
 7704TIP3    H144603   3.775   1.707   2.285 -0.1951 -0.4151 -0.8731
 7704TIP3    H244604   3.857   1.834   2.285 -2.7350  1.2700  0.4037
 7705TIP3   OH244605   3.319   4.340  15.958  0.2067 -0.8278 -0.1179
 7705TIP3    H144606   3.375   4.334  16.035  0.7312 -3.0811 -0.6525
 7705TIP3    H244607   3.369   4.298  15.888 -1.1195 -0.6544 -1.1905
 7706TIP3   OH244608   3.681   5.296   2.902 -0.1812  0.0825 -0.6752
 7706TIP3    H144609   3.652   5.319   2.991  0.9879 -0.8166 -0.0587
 7706TIP3    H244610   3.609   5.244   2.867 -2.0217  2.9513 -1.3926
 7707TIP3   OH244611   0.049   1.959   5.623  0.1616 -0.0009  0.0934
 7707TIP3    H144612   0.099   2.022   5.570 -0.9554  1.9062  1.2285
 7707TIP3    H244613   0.105   1.942   5.698 -0.3421  1.2008  0.7641
 7708TIP3   OH244614   1.979   6.151  11.099  0.4178 -0.7986  0.2053
 7708TIP3    H144615   2.058   6.190  11.063  0.1984  0.3451  0.9543
 7708TIP3    H244616   1.928   6.125  11.022  1.2350 -0.9589 -0.2790
 7709TIP3   OH244617   3.222   0.499   3.480  0.7075  0.0053 -1.3051
 7709TIP3    H144618   3.285   0.549   3.530  0.0185  0.3836 -0.8140
 7709TIP3    H244619   3.143   0.498   3.534 -0.5920  1.8515 -3.1041
 7710TIP3   OH244620   1.883   0.180  17.185 -0.0262  0.3762  0.3791
 7710TIP3    H144621   1.905   0.229  17.264 -1.5080  0.3503  0.8215
 7710TIP3    H244622   1.811   0.123  17.211  1.8114 -2.2534 -0.0508
 7711TIP3   OH244623   0.041   4.032  13.920  0.0055  0.0032 -0.3839
 7711TIP3    H144624  -0.019   4.083  13.866 -0.2061  0.3258  0.1560
 7711TIP3    H244625   0.086   4.097  13.975 -1.6137 -0.5336  1.6464
 7712TIP3   OH244626   0.752   4.887  12.239  0.3627  0.0608 -0.2412
 7712TIP3    H144627   0.712   4.925  12.161  1.0223  1.2162 -0.0236
 7712TIP3    H244628   0.842   4.920  12.238  0.8393 -1.1906  0.1571
 7713TIP3   OH244629   4.687   4.116  16.789 -0.0335 -0.3577  0.4032
 7713TIP3    H144630   4.609   4.069  16.817 -0.9407 -0.0897 -1.5597
 7713TIP3    H244631   4.732   4.055  16.731 -1.0624  0.9797 -1.9128
 7714TIP3   OH244632   4.575   3.804  11.286  0.1839  1.1804 -0.1292
 7714TIP3    H144633   4.626   3.876  11.323  2.1257 -0.6364  0.9051
 7714TIP3    H244634   4.603   3.727  11.337 -1.9318 -0.2678 -1.0861
 7715TIP3   OH244635   2.738   3.764  11.815 -0.3290 -0.7210 -0.6200
 7715TIP3    H144636   2.766   3.854  11.833  0.6368 -1.2200  0.4383
 7715TIP3    H244637   2.799   3.733  11.748 -0.1568 -0.8511 -0.4041
 7716TIP3   OH244638   6.145   3.210  12.874 -0.0813  0.0263 -0.0098
 7716TIP3    H144639   6.240   3.223  12.879  0.1612  0.7638 -4.5616
 7716TIP3    H244640   6.121   3.180  12.961  4.3446 -0.3032  1.2359
 7717TIP3   OH244641   4.213   5.395  16.539 -0.4905 -0.2379  0.8274
 7717TIP3    H144642   4.181   5.361  16.622  2.2310 -1.2277  1.5210
 7717TIP3    H244643   4.274   5.465  16.563 -0.3940  0.1120 -0.3625
 7718TIP3   OH244644   3.125   0.639   4.626  0.3600  0.2781 -0.0038
 7718TIP3    H144645   3.032   0.621   4.635 -0.0881  1.6051 -1.7535
 7718TIP3    H244646   3.167   0.553   4.634 -1.0251 -0.3626  0.4659
 7719TIP3   OH244647   4.565   0.279   6.048 -0.7395  0.7686  0.1963
 7719TIP3    H144648   4.632   0.290   6.116  0.3357 -0.2856 -0.6766
 7719TIP3    H244649   4.614   0.267   5.967 -1.9861  0.0009 -0.4645
 7720TIP3   OH244650   5.851   2.084   0.335 -0.2588  0.1437  0.2979
 7720TIP3    H144651   5.868   2.173   0.367 -0.1807 -0.3775  1.7416
 7720TIP3    H244652   5.756   2.075   0.340 -0.0885 -0.6830  2.4605
 7721TIP3   OH244653   1.530   2.214  11.811  0.3230  0.5369  0.0837
 7721TIP3    H144654   1.549   2.304  11.838  0.8523  0.2969  0.5410
 7721TIP3    H244655   1.455   2.188  11.864  1.1081  0.2052  1.0607
 7722TIP3   OH244656   0.647   1.493  15.470  0.4698 -0.0555  0.0521
 7722TIP3    H144657   0.733   1.449  15.474  0.1058 -0.7344  0.6146
 7722TIP3    H244658   0.657   1.559  15.402  1.3176 -0.4129 -0.1818
 7723TIP3   OH244659   5.149   0.107  17.272  0.2535  0.0391  0.1459
 7723TIP3    H144660   5.170   0.032  17.327 -0.2900 -0.8977 -0.8982
 7723TIP3    H244661   5.227   0.122  17.220  0.7186  0.8392  1.0572
 7724TIP3   OH244662   6.311   2.510  15.615  0.5310  0.4272  0.5893
 7724TIP3    H144663   6.230   2.558  15.599  0.6815  0.4351 -0.1757
 7724TIP3    H244664   6.319   2.450  15.541  2.1127  1.6487 -0.2617
 7725TIP3   OH244665   2.845   6.430  14.798 -0.3067  0.3402 -0.5690
 7725TIP3    H144666   2.917   6.427  14.861 -0.2162 -1.8642 -0.7570
 7725TIP3    H244667   2.804   6.515  14.814 -0.8654 -0.5230  3.0986
 7726TIP3   OH244668   1.000   4.252  13.317 -0.4823  0.2953  0.0705
 7726TIP3    H144669   0.937   4.281  13.251 -0.3969 -1.2322 -0.7180
 7726TIP3    H244670   1.045   4.178  13.275  1.6909  1.2386  0.6937
 7727TIP3   OH244671   6.229   3.688  13.982  0.8724  0.1890  0.2560
 7727TIP3    H144672   6.286   3.612  13.966  0.6998 -0.4743  2.7263
 7727TIP3    H244673   6.284   3.763  13.959  1.4274 -0.6063 -1.1071
 7728TIP3   OH244674   6.734   6.211   0.817  0.1379 -0.5357 -0.1947
 7728TIP3    H144675   6.692   6.255   0.891  1.7687  0.1126  0.3561
 7728TIP3    H244676   6.664   6.159   0.777 -2.1808  3.4259 -1.5576
 7729TIP3   OH244677   4.428   5.713  14.985  0.0214 -0.0314  0.3122
 7729TIP3    H144678   4.450   5.671  15.068 -0.8924  1.4960  1.3375
 7729TIP3    H244679   4.391   5.798  15.009 -1.3167 -0.0289 -1.5960
 7730TIP3   OH244680   2.739   5.104  13.760  0.3625  0.0908 -0.1465
 7730TIP3    H144681   2.683   5.096  13.682  0.0168 -0.1373  0.1269
 7730TIP3    H244682   2.808   5.165  13.733  0.1218  0.1824 -0.5656
 7731TIP3   OH244683   2.323   3.734   2.559 -0.2856  0.6257  0.0060
 7731TIP3    H144684   2.367   3.795   2.500  0.9035 -0.6318 -0.4551
 7731TIP3    H244685   2.236   3.770   2.572 -0.2759  1.3501 -1.8668
 7732TIP3   OH244686   6.166   2.270   2.323  0.7093  0.3904  0.0820
 7732TIP3    H144687   6.098   2.313   2.375  1.8437  0.0098  1.9289
 7732TIP3    H244688   6.119   2.206   2.270 -0.7741  2.4782 -1.1999
 7733TIP3   OH244689   3.386   1.099  11.804 -0.2357 -0.6831  0.3743
 7733TIP3    H144690   3.387   1.191  11.777  0.3577 -0.7348  0.2077
 7733TIP3    H244691   3.297   1.069  11.786 -0.8136  0.2285  1.6846
 7734TIP3   OH244692   0.961   1.888  11.581 -0.4820  0.7857 -0.1639
 7734TIP3    H144693   1.026   1.863  11.515  0.2008 -2.6126  1.7199
 7734TIP3    H244694   0.879   1.850  11.550 -0.8782  2.0376 -0.7064
 7735TIP3   OH244695   3.210   1.275  14.080 -0.1683  0.4321 -0.2139
 7735TIP3    H144696   3.281   1.300  14.021 -0.5941  0.1005 -0.8762
 7735TIP3    H244697   3.215   1.338  14.152  1.1550  0.0606  0.0377
 7736TIP3   OH244698   5.767   2.748  15.810  0.2477  0.1028  0.2526
 7736TIP3    H144699   5.800   2.705  15.889  1.5336  1.8536  0.7003
 7736TIP3    H244700   5.748   2.838  15.837 -0.3496  0.4296 -1.1678
 7737TIP3   OH244701   1.576   1.325   3.627  0.8656  0.1954 -0.0414
 7737TIP3    H144702   1.493   1.357   3.592  0.2856 -1.8195 -0.6115
 7737TIP3    H244703   1.601   1.254   3.568  3.2824  1.1301 -0.1847
 7738TIP3   OH244704   0.548   2.253   0.720 -0.4561 -0.3209 -0.3086
 7738TIP3    H144705   0.538   2.285   0.810  1.6474 -0.3057 -0.0559
 7738TIP3    H244706   0.552   2.158   0.728 -0.2930 -0.3212 -0.3773
 7739TIP3   OH244707   4.262   4.544  17.128 -0.2514 -0.1331 -0.3202
 7739TIP3    H144708   4.352   4.536  17.160 -0.3249 -0.0498 -0.0940
 7739TIP3    H244709   4.240   4.636  17.143 -1.0402 -0.5949  1.3779
 7740TIP3   OH244710   2.988   3.805   1.600  0.5873  0.0935  0.2110
 7740TIP3    H144711   2.997   3.796   1.695  0.2575 -0.2239  0.2152
 7740TIP3    H244712   3.078   3.814   1.568  0.7108  0.0407  0.5376
 7741TIP3   OH244713   2.283   5.204  11.298  0.6866 -0.1315  0.3180
 7741TIP3    H144714   2.345   5.275  11.315  0.8831 -0.1950 -0.1381
 7741TIP3    H244715   2.320   5.156  11.224  0.3071 -0.4186  0.3109
 7742TIP3   OH244716   0.873   2.862   6.268  0.4748  0.5886 -0.1922
 7742TIP3    H144717   0.790   2.834   6.229  0.0578  1.3785  0.1155
 7742TIP3    H244718   0.889   2.800   6.339 -0.6304  1.3439  0.7235
 7743TIP3   OH244719   0.598   2.477   3.482 -0.4196 -0.2563  0.2754
 7743TIP3    H144720   0.519   2.530   3.480 -1.5515 -1.9027 -0.0249
 7743TIP3    H244721   0.635   2.483   3.394 -0.8063 -0.3430  0.1081
 7744TIP3   OH244722   1.216   6.741   4.052  0.3192  0.3930 -0.0988
 7744TIP3    H144723   1.142   6.768   4.106 -0.7414 -0.9517 -0.8645
 7744TIP3    H244724   1.271   6.688   4.109  0.3263  0.7734  0.2517
 7745TIP3   OH244725   2.986   5.868  17.070 -0.0597 -0.7149 -0.1568
 7745TIP3    H144726   3.057   5.932  17.066  0.3420 -1.1940 -0.6124
 7745TIP3    H244727   2.916   5.914  17.117  0.2502  0.0433 -0.4250
 7746TIP3   OH244728   6.204   3.219  13.984 -0.2982  0.0201  0.2808
 7746TIP3    H144729   6.191   3.247  14.075 -0.3652  0.0580  0.2602
 7746TIP3    H244730   6.149   3.279  13.933 -1.2875 -0.8185  0.3285
 7747TIP3   OH244731   4.492   2.901  12.375  0.3871  0.1515 -0.5918
 7747TIP3    H144732   4.400   2.925  12.389  1.1471  1.7744  1.9283
 7747TIP3    H244733   4.534   2.981  12.343  0.7308 -0.8868 -2.8265
 7748TIP3   OH244734   1.882   6.059  12.591 -0.5565 -0.1571  0.3210
 7748TIP3    H144735   1.836   6.143  12.595  0.3965  0.3778 -0.0624
 7748TIP3    H244736   1.974   6.082  12.578 -0.2384 -1.2480  0.6072
 7749TIP3   OH244737   3.566   3.890   4.786 -0.3534 -0.4027  0.0482
 7749TIP3    H144738   3.651   3.933   4.781 -1.0909  1.3410  1.7771
 7749TIP3    H244739   3.514   3.930   4.716 -0.3153 -0.1659  0.1568
 7750TIP3   OH244740   5.157   4.795   2.875  0.0132  0.2716  0.6718
 7750TIP3    H144741   5.128   4.854   2.805  0.7884 -0.3084 -0.1525
 7750TIP3    H244742   5.087   4.798   2.940  0.1049  2.2403  0.7238
 7751TIP3   OH244743   1.053   6.484  14.058  0.0068 -0.4051 -0.6566
 7751TIP3    H144744   1.123   6.422  14.079  0.1808 -0.4528 -1.3898
 7751TIP3    H244745   1.094   6.551  14.005 -0.2773  0.1295 -0.2098
 7752TIP3   OH244746   6.593   4.751  14.621 -0.3561 -0.0370 -0.3757
 7752TIP3    H144747   6.676   4.769  14.578 -0.8546  1.6859 -0.6647
 7752TIP3    H244748   6.582   4.823  14.684 -0.8925 -1.0921  0.7495
 7753TIP3   OH244749   2.217   3.746   2.969 -0.0966 -0.4727 -0.2075
 7753TIP3    H144750   2.295   3.801   2.978  0.4673 -1.5660  1.8602
 7753TIP3    H244751   2.246   3.672   2.916  0.1009 -0.5680  0.0335
 7754TIP3   OH244752   4.942   3.702  13.364  0.0072  0.1097 -0.3854
 7754TIP3    H144753   4.984   3.764  13.424  0.1939 -0.5461  0.1570
 7754TIP3    H244754   4.920   3.755  13.287 -0.0115  0.8981  0.1578
 7755TIP3   OH244755   1.410   0.577   0.854 -0.1921 -0.0999  0.5632
 7755TIP3    H144756   1.342   0.518   0.820 -2.0812  1.9995  0.6242
 7755TIP3    H244757   1.363   0.641   0.907  1.9339  0.9391  1.2544
 7756TIP3   OH244758   1.546   3.493   4.465 -0.2504  0.8397 -0.0200
 7756TIP3    H144759   1.466   3.474   4.417 -0.9973  2.6119  0.5109
 7756TIP3    H244760   1.615   3.491   4.399 -0.7714 -0.3224 -0.5402
 7757TIP3   OH244761   4.289   1.790  11.971 -0.1288  0.5220  0.0338
 7757TIP3    H144762   4.279   1.875  12.014  0.9476  1.1440 -0.9172
 7757TIP3    H244763   4.220   1.788  11.905  0.4649  1.0829 -0.6100
 7758TIP3   OH244764   3.591   4.283   4.851 -0.3029 -0.3329  0.8162
 7758TIP3    H144765   3.501   4.304   4.873 -0.0033 -0.0011  1.7430
 7758TIP3    H244766   3.621   4.359   4.800 -0.3503 -0.1527  1.0560
 7759TIP3   OH244767   2.759   0.690   0.512 -0.0320 -0.1492  0.1509
 7759TIP3    H144768   2.710   0.669   0.591  0.8487 -1.3344  0.3925
 7759TIP3    H244769   2.693   0.723   0.451 -0.4978  2.1316  1.8528
 7760TIP3   OH244770   1.778   5.825   4.164  0.0229 -0.2752  0.3167
 7760TIP3    H144771   1.695   5.795   4.128  0.2314  1.2409 -1.4819
 7760TIP3    H244772   1.835   5.837   4.088  1.1899  0.8221  1.3387
 7761TIP3   OH244773   4.245   3.756   3.300 -0.2501 -0.2676  0.4941
 7761TIP3    H144774   4.196   3.766   3.219  2.4152 -0.3534 -1.1697
 7761TIP3    H244775   4.233   3.664   3.324  0.5563 -0.7399 -0.8762
 7762TIP3   OH244776   3.461   4.755  13.382  0.7038  0.1196 -0.0858
 7762TIP3    H144777   3.535   4.815  13.389 -0.4552  1.4903  0.8680
 7762TIP3    H244778   3.487   4.679  13.434  2.2608 -0.2962 -1.4412
 7763TIP3   OH244779   4.340   1.276   1.608  0.1531  0.2541  0.3795
 7763TIP3    H144780   4.395   1.225   1.550 -1.1690  0.3282 -0.9681
 7763TIP3    H244781   4.293   1.337   1.550  0.0105  1.4296  1.6917
 7764TIP3   OH244782   3.686   6.620   4.880 -0.2663 -0.2608  0.0660
 7764TIP3    H144783   3.736   6.621   4.962 -1.2852 -1.6618  0.7271
 7764TIP3    H244784   3.639   6.703   4.880  0.0890 -0.0506  0.6845
 7765TIP3   OH244785   1.709   3.116   4.517 -0.0799  0.2659 -0.0408
 7765TIP3    H144786   1.801   3.115   4.543  0.2365  1.6829 -1.0262
 7765TIP3    H244787   1.679   3.026   4.528  1.8747 -0.5589 -1.3218
 7766TIP3   OH244788   0.049   2.557  16.116 -0.6013  0.1403  0.2683
 7766TIP3    H144789   0.138   2.572  16.085 -1.2320  1.1708 -1.1051
 7766TIP3    H244790   0.038   2.462  16.111  0.8802 -0.1445  1.8337
 7767TIP3   OH244791   0.163   1.184  13.980  0.0008  0.0528 -0.2451
 7767TIP3    H144792   0.119   1.131  13.914 -0.6518  0.2258  0.0412
 7767TIP3    H244793   0.221   1.242  13.931 -0.3561  0.0605 -0.6560
 7768TIP3   OH244794   1.596   6.398  13.099 -0.4435 -0.7237  0.1169
 7768TIP3    H144795   1.554   6.464  13.155  0.3581 -0.2147  0.1286
 7768TIP3    H244796   1.689   6.404  13.122 -0.0480 -0.2526 -1.5410
 7769TIP3   OH244797   2.076   0.346  16.366 -0.3276  0.3077  0.2333
 7769TIP3    H144798   2.065   0.252  16.353 -1.9316  0.9734 -4.0540
 7769TIP3    H244799   2.170   0.357  16.383 -0.1126 -2.0334  0.7134
 7770TIP3   OH244800   5.918   4.047   0.032  0.3812 -0.6049  0.5239
 7770TIP3    H144801   6.004   4.083   0.051 -0.0278  0.4649  0.3890
 7770TIP3    H244802   5.867   4.122  -0.000 -0.1279 -1.5340 -0.9107
 7771TIP3   OH244803   0.746   0.686  10.954 -0.6952 -0.0298 -0.4421
 7771TIP3    H144804   0.696   0.754  10.908  0.8777  0.5111 -1.4135
 7771TIP3    H244805   0.743   0.711  11.046  0.2059  1.6049 -0.8368
 7772TIP3   OH244806   2.273   6.301   5.697  0.3924  0.4861 -0.0481
 7772TIP3    H144807   2.258   6.345   5.613  1.8293 -1.1187 -1.1921
 7772TIP3    H244808   2.347   6.349   5.737 -1.1317  2.0697  0.9363
 7773TIP3   OH244809   1.710   3.682   5.424 -0.3675 -0.4944  0.1394
 7773TIP3    H144810   1.707   3.624   5.348 -1.3611  0.8564 -0.8830
 7773TIP3    H244811   1.779   3.745   5.404  0.2858 -0.9325  0.9679
 7774TIP3   OH244812   0.956   3.645   2.807 -0.5166  0.2770  0.2174
 7774TIP3    H144813   0.949   3.730   2.763 -1.1670 -0.3268 -0.8967
 7774TIP3    H244814   1.035   3.606   2.771 -0.2251  0.4043  0.7198
 7775TIP3   OH244815   6.048   0.134  13.727 -0.1490 -0.3173  0.0117
 7775TIP3    H144816   6.003   0.099  13.650  2.2638 -1.5562 -0.8962
 7775TIP3    H244817   6.107   0.064  13.755  1.7114  1.4712  0.7428
 7776TIP3   OH244818   0.261   1.487   1.274  0.6346 -0.9304 -0.0640
 7776TIP3    H144819   0.267   1.470   1.180 -0.6604  3.2676 -0.9860
 7776TIP3    H244820   0.173   1.521   1.287  1.0885 -0.6621  2.5661
 7777TIP3   OH244821   4.950   6.105   0.953 -0.3972 -0.4248 -0.5287
 7777TIP3    H144822   4.881   6.038   0.946 -0.3663 -0.2903 -2.2337
 7777TIP3    H244823   4.923   6.174   0.893  2.1044 -1.1556 -2.5674
 7778TIP3   OH244824   6.816   3.659   4.565 -0.1793  0.5343 -0.5138
 7778TIP3    H144825   6.775   3.680   4.481  1.0190  1.7532 -0.8233
 7778TIP3    H244826   6.767   3.584   4.598 -1.5413  0.8963 -1.6589
 7779TIP3   OH244827   0.466   2.295   1.018  0.1880 -0.2143  0.4711
 7779TIP3    H144828   0.467   2.364   1.084 -3.0873  0.2526  0.1305
 7779TIP3    H244829   0.386   2.311   0.968  0.2913 -3.2002 -0.7617
 7780TIP3   OH244830   3.538   1.527  13.386  0.3997 -0.6871 -0.2792
 7780TIP3    H144831   3.569   1.595  13.327  2.0405 -1.1866 -0.0328
 7780TIP3    H244832   3.536   1.569  13.472  1.2248 -0.8651 -0.1607
 7781TIP3   OH244833   3.963   1.102  14.732  0.1929  0.2014 -0.4051
 7781TIP3    H144834   3.977   1.028  14.790  1.8404 -0.8656 -2.1263
 7781TIP3    H244835   4.008   1.175  14.775  0.4085 -0.3081  0.2406
 7782TIP3   OH244836   4.030   1.524   5.360 -0.0791 -0.2295 -0.1844
 7782TIP3    H144837   4.016   1.434   5.331 -0.9471 -0.4505  0.8593
 7782TIP3    H244838   4.080   1.515   5.441  2.7047  0.3873 -1.7866
 7783TIP3   OH244839   5.924   1.107   4.554 -0.5159  0.1118 -0.3758
 7783TIP3    H144840   5.877   1.068   4.480 -0.2059  1.3127 -1.2311
 7783TIP3    H244841   5.871   1.183   4.578  0.2179  0.6319 -0.3986
 7784TIP3   OH244842   0.680   0.414   1.257 -0.1070  0.7926 -0.1906
 7784TIP3    H144843   0.678   0.380   1.346  2.4165 -0.0194 -0.4191
 7784TIP3    H244844   0.718   0.502   1.265  1.4181  0.1900 -0.5964
 7785TIP3   OH244845   6.161   4.006  13.386  0.2693  0.0126  0.0691
 7785TIP3    H144846   6.206   4.057  13.454 -0.1594 -1.7730  1.7341
 7785TIP3    H244847   6.068   4.024  13.401  0.1072 -1.3335  0.7571
 7786TIP3   OH244848   3.042   5.817  16.413  0.0776 -0.2722  0.3236
 7786TIP3    H144849   3.099   5.826  16.489 -0.9135 -0.3895  1.0895
 7786TIP3    H244850   2.953   5.816  16.449 -0.4784  1.0201 -0.9222
 7787TIP3   OH244851   0.217   6.338  13.655 -0.4102 -0.1837  0.1851
 7787TIP3    H144852   0.257   6.303  13.575  1.5524  2.4558 -0.0810
 7787TIP3    H244853   0.163   6.411  13.625 -0.8030 -0.0732  1.1389
 7788TIP3   OH244854   2.563   2.330   4.883 -0.4616 -0.6324 -0.0608
 7788TIP3    H144855   2.627   2.281   4.831 -0.3622  2.1366 -2.6624
 7788TIP3    H244856   2.616   2.372   4.951  0.1539 -0.3613 -0.6917
 7789TIP3   OH244857   4.492   4.060  15.375  0.1663  0.7356 -0.4326
 7789TIP3    H144858   4.421   3.996  15.369  1.3349 -0.8866  2.1637
 7789TIP3    H244859   4.464   4.132  15.319 -3.0329 -0.3305 -0.3060
 7790TIP3   OH244860   6.234   2.784  14.769 -0.6630 -0.1489 -0.2628
 7790TIP3    H144861   6.191   2.829  14.842 -0.8723 -1.2197  0.2845
 7790TIP3    H244862   6.173   2.713  14.746  0.6970 -1.5255  0.3447
 7791TIP3   OH244863   5.305   5.381   3.528  0.2929  0.1183  0.5062
 7791TIP3    H144864   5.376   5.385   3.464  0.5586 -1.3304  0.6772
 7791TIP3    H244865   5.239   5.326   3.487  0.5799 -1.0428  1.5570
 7792TIP3   OH244866   1.626   6.690  14.890 -0.0940 -0.4319 -0.2972
 7792TIP3    H144867   1.554   6.627  14.882 -0.3644 -0.1823  0.1115
 7792TIP3    H244868   1.605   6.740  14.969  0.5351 -0.3612 -0.1671
 7793TIP3   OH244869   0.763   5.711  11.848  0.5015  0.2455  0.1037
 7793TIP3    H144870   0.719   5.655  11.912 -0.9511  0.9680 -0.2330
 7793TIP3    H244871   0.700   5.781  11.830  0.7541 -0.1104 -2.3470
 7794TIP3   OH244872   1.530   4.759   5.408 -0.0949 -0.2575  0.0394
 7794TIP3    H144873   1.496   4.675   5.440  0.0658 -0.5914 -0.6574
 7794TIP3    H244874   1.624   4.747   5.404  0.0536  0.4786  1.4165
 7795TIP3   OH244875   2.029   3.495   5.445  0.2993 -0.0490 -0.4413
 7795TIP3    H144876   2.055   3.403   5.436 -0.4823 -0.5607  2.3317
 7795TIP3    H244877   2.088   3.541   5.385  0.7619 -2.3342 -1.8215
 7796TIP3   OH244878   1.281   5.175  12.139 -0.0524 -0.1807 -0.7835
 7796TIP3    H144879   1.350   5.240  12.155 -0.6330  0.4423 -0.8006
 7796TIP3    H244880   1.285   5.116  12.214 -0.3108  0.5747 -0.1743
 7797TIP3   OH244881   2.661   0.833  13.678 -0.3399 -0.2921 -0.0992
 7797TIP3    H144882   2.744   0.816  13.632  0.2701 -0.5982  1.1079
 7797TIP3    H244883   2.642   0.752  13.725 -0.9674  0.0206  0.1970
 7798TIP3   OH244884   5.096   6.320   2.640  0.3616  0.3452  0.1795
 7798TIP3    H144885   5.097   6.280   2.553 -1.8269  0.9982 -0.1668
 7798TIP3    H244886   5.083   6.246   2.699 -0.5461  0.1862 -0.2185
 7799TIP3   OH244887   4.446   0.191   1.113  0.3005 -0.2556  0.5241
 7799TIP3    H144888   4.526   0.204   1.164  1.4801 -1.4714 -0.9549
 7799TIP3    H244889   4.428   0.277   1.074  0.3280  0.2619  1.6272
 7800TIP3   OH244890   0.019   4.490  12.628  0.7327 -0.3880 -0.0347
 7800TIP3    H144891   0.031   4.524  12.717 -0.2538  0.3601 -0.1768
 7800TIP3    H244892   0.098   4.438  12.611 -0.6655 -3.6143  2.6634
 7801TIP3   OH244893   6.393   0.556  15.767 -0.0446  0.4101 -0.1222
 7801TIP3    H144894   6.326   0.527  15.829 -0.8305 -0.3992 -1.3259
 7801TIP3    H244895   6.357   0.637  15.730 -0.5120 -0.1895 -0.9953
 7802TIP3   OH244896   3.135   3.770  14.046  0.0975  0.8897 -0.0467
 7802TIP3    H144897   3.172   3.686  14.075 -0.3915  0.3491 -0.9559
 7802TIP3    H244898   3.122   3.819  14.127  0.1112 -0.0240  0.5265
 7803TIP3   OH244899   5.327   5.370  13.705  0.4492 -0.9775 -0.0537
 7803TIP3    H144900   5.372   5.300  13.657  3.2285  0.3175  0.6066
 7803TIP3    H244901   5.395   5.411  13.758 -1.4978  1.1339  0.8924
 7804TIP3   OH244902   3.236   1.609   2.349 -0.1729  0.5055 -0.8643
 7804TIP3    H144903   3.185   1.563   2.283  0.1701 -0.4008 -0.5001
 7804TIP3    H244904   3.231   1.701   2.323 -3.2066  0.6306  0.0062
 7805TIP3   OH244905   5.923   0.218  10.932 -0.4561  0.1364 -0.0110
 7805TIP3    H144906   6.018   0.207  10.936 -0.3586  0.7099 -0.5622
 7805TIP3    H244907   5.899   0.256  11.017 -0.2930 -0.7177  0.4143
 7806TIP3   OH244908   4.072   3.851  11.515 -0.3994  0.0641  0.1258
 7806TIP3    H144909   4.021   3.839  11.435 -2.6711  0.8180  1.3871
 7806TIP3    H244910   4.067   3.945  11.532  1.3349  0.1276  0.3632
 7807TIP3   OH244911   6.782   0.690   2.248  0.3432  0.4220 -0.1687
 7807TIP3    H144912   6.850   0.744   2.208 -0.4978  0.5892 -1.3705
 7807TIP3    H244913   6.807   0.685   2.340  1.0839  1.8468 -0.2836
 7808TIP3   OH244914   0.821   4.100  14.535 -0.3574 -0.2403 -0.0942
 7808TIP3    H144915   0.822   4.192  14.508 -1.0402 -0.4626 -0.8947
 7808TIP3    H244916   0.840   4.051  14.455  1.4388 -0.7462  0.6210
 7809TIP3   OH244917   0.192   4.197  12.764  0.1682  0.9978 -0.4238
 7809TIP3    H144918   0.210   4.113  12.806 -2.7531  1.7009  2.3956
 7809TIP3    H244919   0.240   4.261  12.816  0.8015  1.3110 -1.3814
 7810TIP3   OH244920   3.238   4.346   2.649 -0.0895  0.8407  0.1721
 7810TIP3    H144921   3.320   4.375   2.689  1.0585 -0.4393 -1.1586
 7810TIP3    H244922   3.220   4.412   2.582  1.4341 -0.3624 -1.4841
 7811TIP3   OH244923   2.731   4.891   1.218 -0.3169  0.1703 -0.4185
 7811TIP3    H144924   2.674   4.819   1.245  1.9471 -1.6091 -0.2478
 7811TIP3    H244925   2.683   4.970   1.242 -2.6158 -1.2814 -0.1337
 7812TIP3   OH244926   4.304   3.395  17.211  0.3779  0.4585  0.4689
 7812TIP3    H144927   4.284   3.444  17.132  0.3130 -1.7932 -0.9476
 7812TIP3    H244928   4.378   3.339  17.187 -0.2011 -0.8940  1.7379
 7813TIP3   OH244929   6.030   4.774  16.509 -0.0447  0.6118 -0.6135
 7813TIP3    H144930   5.977   4.763  16.588  1.1686 -0.3681  0.0926
 7813TIP3    H244931   6.080   4.854  16.525 -0.5179  0.9577 -0.8288
 7814TIP3   OH244932   3.265   1.206  13.146 -0.0942  0.0849  0.3486
 7814TIP3    H144933   3.242   1.122  13.108  0.4864 -0.1467  0.5160
 7814TIP3    H244934   3.284   1.187  13.238  0.7698  0.2789  0.2130
 7815TIP3   OH244935   5.448   1.380   4.526 -0.0559 -0.9601 -0.4709
 7815TIP3    H144936   5.417   1.378   4.436 -0.7445 -0.5840 -0.2425
 7815TIP3    H244937   5.518   1.445   4.526 -0.1326 -0.8788 -0.7064
 7816TIP3   OH244938   6.758   2.281  14.171  0.0736 -0.7750 -0.3263
 7816TIP3    H144939   6.796   2.195  14.151  0.1209 -0.8553  0.1192
 7816TIP3    H244940   6.827   2.328  14.219 -0.1232 -0.6564 -0.1597
 7817TIP3   OH244941   1.325   3.016   5.998  0.1011  0.4579 -0.3942
 7817TIP3    H144942   1.254   2.965   6.037  1.4242 -1.3145 -0.3012
 7817TIP3    H244943   1.354   3.074   6.068 -0.1814  0.0862  0.0293
 7818TIP3   OH244944   0.495   0.362  15.447  0.2073 -0.4878 -0.3517
 7818TIP3    H144945   0.444   0.338  15.370 -0.4837 -0.1302 -0.0082
 7818TIP3    H244946   0.486   0.457  15.454 -1.3806 -0.7256  1.3032
 7819TIP3   OH244947   4.396   4.749  16.698  0.3020 -0.0863  0.4028
 7819TIP3    H144948   4.328   4.814  16.718 -0.2764 -0.9777  1.3819
 7819TIP3    H244949   4.358   4.666  16.725  1.1866 -0.7942 -0.5060
 7820TIP3   OH244950   4.807   3.085   2.416 -0.3934 -0.2246 -0.3897
 7820TIP3    H144951   4.845   3.150   2.475 -0.5219 -2.1350  1.8464
 7820TIP3    H244952   4.871   3.015   2.412 -1.7390 -1.4868 -0.0799
 7821TIP3   OH244953   5.567   0.145   0.606  0.3547  0.5003 -0.3795
 7821TIP3    H144954   5.536   0.203   0.536 -0.5106  1.3363  0.6880
 7821TIP3    H244955   5.579   0.202   0.681 -0.6852 -0.7390  0.7515
 7822TIP3   OH244956   6.022   0.778  12.915  0.0010  0.6783  0.3538
 7822TIP3    H144957   6.038   0.782  12.821 -0.9243  2.8477  0.2535
 7822TIP3    H244958   6.109   0.773  12.954  0.3800 -0.4963 -0.6161
 7823TIP3   OH244959   1.787   1.615  12.155 -0.4672  0.4813 -0.3505
 7823TIP3    H144960   1.814   1.595  12.065 -0.7346 -0.2051 -0.2848
 7823TIP3    H244961   1.827   1.546  12.207  1.4433  2.0792  0.3426
 7824TIP3   OH244962   1.605   2.577  14.647  0.4725  0.7588 -0.2942
 7824TIP3    H144963   1.678   2.611  14.699 -1.0535  2.4733  0.7934
 7824TIP3    H244964   1.567   2.508  14.701  1.7866 -0.7066 -1.2267
 7825TIP3   OH244965   3.217   6.027  13.232 -0.0042  0.3781  0.1369
 7825TIP3    H144966   3.169   6.092  13.181 -0.0669 -0.4500 -0.8780
 7825TIP3    H244967   3.216   5.948  13.178  1.3960 -0.0271  0.6649
 7826TIP3   OH244968   3.111   3.553  11.782 -0.1568  0.3686  0.4133
 7826TIP3    H144969   3.079   3.577  11.869  2.0469 -2.4695  2.0951
 7826TIP3    H244970   3.105   3.458  11.779  2.4462  0.1957 -1.4367
 7827TIP3   OH244971   5.255   1.816  16.646  0.0431  0.1083  0.0827
 7827TIP3    H144972   5.264   1.911  16.653 -1.4626  0.3034 -0.2631
 7827TIP3    H244973   5.165   1.799  16.674 -0.2117 -1.0403 -1.3737
 7828TIP3   OH244974   3.038   1.243   2.833  0.1815  0.0598  0.1850
 7828TIP3    H144975   3.129   1.261   2.809 -0.8171  2.3706 -2.1124
 7828TIP3    H244976   3.033   1.147   2.839  2.7094 -0.0952  0.1829
 7829TIP3   OH244977   2.383   0.976  10.862 -0.1623 -0.9134  0.1522
 7829TIP3    H144978   2.431   0.996  10.942  0.8813 -0.0192 -0.6894
 7829TIP3    H244979   2.291   0.984  10.887  0.1538 -0.7825  1.3013
 7830TIP3   OH244980   0.713   4.593   4.386 -0.1917 -0.2780  0.0239
 7830TIP3    H144981   0.762   4.570   4.307  0.7393 -0.5780  0.6769
 7830TIP3    H244982   0.747   4.679   4.410 -1.2839  0.3110 -0.5379
 7831TIP3   OH244983   4.057   4.117   3.302 -0.3127  0.0742 -0.3375
 7831TIP3    H144984   4.007   4.164   3.368  0.2777  1.2217 -0.6892
 7831TIP3    H244985   4.017   4.030   3.298 -1.8180  0.7460 -0.1101
 7832TIP3   OH244986   4.355   5.539  11.649  0.3417  0.2594 -0.4264
 7832TIP3    H144987   4.343   5.453  11.608  0.4413 -0.3461  0.7681
 7832TIP3    H244988   4.429   5.578  11.602 -1.8249  1.1437 -3.2307
 7833TIP3   OH244989   1.978   0.904  14.533  0.6957  0.9102  0.0690
 7833TIP3    H144990   2.044   0.972  14.543  1.9255 -0.2249 -0.1411
 7833TIP3    H244991   1.951   0.881  14.622 -0.3576  2.2582  0.1114
 7834TIP3   OH244992   1.456   0.034  13.092  0.1583  0.2586  0.3404
 7834TIP3    H144993   1.551   0.039  13.078  0.3228 -0.8018  1.0147
 7834TIP3    H244994   1.445  -0.034  13.158 -1.0464  0.7243  0.6364
 7835TIP3   OH244995   0.647   6.498  14.823 -0.0456 -0.0692 -0.0959
 7835TIP3    H144996   0.679   6.495  14.733 -1.8932 -2.7774 -0.7225
 7835TIP3    H244997   0.575   6.561  14.822 -0.8326 -0.9828 -0.7774
 7836TIP3   OH244998   0.572   1.083   2.484  0.0691  0.1245  0.4855
 7836TIP3    H144999   0.528   1.127   2.557 -1.3131 -0.7431  0.1873
 7836TIP3    H245000   0.567   1.146   2.412  1.1169  0.8364  1.0101
 7837TIP3   OH245001   4.818   6.546  13.818 -0.2463  1.0900 -0.1053
 7837TIP3    H145002   4.818   6.455  13.848 -0.5208  2.1034  3.1847
 7837TIP3    H245003   4.906   6.578  13.838 -1.0652  2.3764  1.5267
 7838TIP3   OH245004   3.974   2.248   0.352  0.1640 -0.2072  0.2403
 7838TIP3    H145005   4.011   2.160   0.346  0.2795 -0.1056 -0.5872
 7838TIP3    H245006   3.910   2.252   0.281  1.2534  0.8977 -0.6977
 7839TIP3   OH245007   5.177   6.026  14.462 -0.7668 -0.2556  0.0456
 7839TIP3    H145008   5.264   6.000  14.495  0.2107  0.9435 -1.5292
 7839TIP3    H245009   5.161   6.111  14.503  0.9603  1.7877 -3.3404
 7840TIP3   OH245010   0.649   4.914  15.459 -0.4055  0.1554 -0.0372
 7840TIP3    H145011   0.706   4.838  15.468  0.4038  0.8429  0.7178
 7840TIP3    H245012   0.581   4.886  15.396 -0.9076 -1.6302  1.2662
 7841TIP3   OH245013   4.151   4.507  14.397 -0.3448  0.4734 -0.1745
 7841TIP3    H145014   4.081   4.543  14.342 -1.3638 -0.8234  0.2549
 7841TIP3    H245015   4.166   4.419  14.363  0.6850  0.5437  0.0963
 7842TIP3   OH245016   1.812   4.727   5.413  0.0117 -0.0623 -0.0632
 7842TIP3    H145017   1.899   4.740   5.374 -0.1677 -1.9869 -1.1615
 7842TIP3    H245018   1.823   4.654   5.474 -1.0840 -1.1076 -1.0948
 7843TIP3   OH245019   6.261   6.092   1.333 -0.5296 -0.1142  0.8045
 7843TIP3    H145020   6.258   6.027   1.264  0.7169  0.5986  0.0587
 7843TIP3    H245021   6.313   6.051   1.402  0.8873  0.3514  0.0339
 7844TIP3   OH245022   1.413   4.368   0.230  0.5187  0.6268  0.2057
 7844TIP3    H145023   1.394   4.275   0.228  3.7353 -0.0806 -3.2988
 7844TIP3    H245024   1.385   4.400   0.144 -0.1517  2.8567  1.2024
 7845TIP3   OH245025   2.561   0.283  12.730 -0.2373  0.5020  0.0093
 7845TIP3    H145026   2.567   0.335  12.650 -1.2253 -0.4176 -0.6726
 7845TIP3    H245027   2.541   0.346  12.799 -2.6394  0.8954 -1.0064
 7846TIP3   OH245028   0.333   3.950   0.612  0.4839  0.5163 -0.1797
 7846TIP3    H145029   0.415   3.921   0.573  1.7640  1.9971  1.3307
 7846TIP3    H245030   0.321   3.894   0.689 -0.4593 -0.3639 -0.9494
 7847TIP3   OH245031   1.943   6.035  12.319 -0.7047 -0.0629 -0.4893
 7847TIP3    H145032   1.875   5.996  12.374 -0.9364 -0.9935 -1.4134
 7847TIP3    H245033   1.985   5.960  12.276  0.0097  0.5950 -0.9439
 7848TIP3   OH245034   5.668   0.919  11.698 -0.0681  0.4136  0.1420
 7848TIP3    H145035   5.631   0.907  11.611 -0.4939  2.9959 -0.0761
 7848TIP3    H245036   5.660   0.833  11.740 -1.8605 -0.3044 -1.5941
 7849TIP3   OH245037   4.403   2.712   6.352  0.0881 -0.0370 -0.1834
 7849TIP3    H145038   4.376   2.637   6.405  2.2133 -0.6390  0.1041
 7849TIP3    H245039   4.344   2.783   6.378 -0.2845 -0.9129  1.4090
 7850TIP3   OH245040   4.192   4.424  12.016  0.5166  0.4330  0.0887
 7850TIP3    H145041   4.216   4.412  12.108 -0.0540  0.3331  0.2220
 7850TIP3    H245042   4.269   4.465  11.977 -0.6811  4.1380  1.4468
 7851TIP3   OH245043   4.186   1.827   2.995 -0.2616  0.1794  0.4207
 7851TIP3    H145044   4.203   1.905   3.047 -0.2739  1.3603 -1.3109
 7851TIP3    H245045   4.237   1.758   3.037 -0.2086  1.1241  1.9318
 7852TIP3   OH245046   3.244   3.326   4.069 -0.3204 -0.0859  0.6437
 7852TIP3    H145047   3.331   3.311   4.105 -0.4377 -0.2735  0.8487
 7852TIP3    H245048   3.191   3.253   4.102 -0.0566 -1.1162 -1.1831
 7853TIP3   OH245049   3.629   5.733  15.068 -0.0396 -0.0584  0.3705
 7853TIP3    H145050   3.623   5.685  14.986 -1.3804  1.7431 -0.6242
 7853TIP3    H245051   3.700   5.796  15.054  1.2925 -1.2799  1.4432
 7854TIP3   OH245052   6.011   3.206   2.083 -0.2485 -0.7273 -0.3344
 7854TIP3    H145053   6.073   3.139   2.052 -0.6004 -1.7325  1.0698
 7854TIP3    H245054   6.024   3.280   2.024 -1.0017 -2.6144 -2.9920
 7855TIP3   OH245055   4.493   3.878  16.500 -0.2526  0.1613 -0.3376
 7855TIP3    H145056   4.413   3.848  16.544  1.0475 -2.0216  0.6267
 7855TIP3    H245057   4.564   3.848  16.557  1.3539  0.0369 -2.3553
 7856TIP3   OH245058   6.014   3.004   5.160 -0.3959  0.2983  0.7261
 7856TIP3    H145059   6.039   3.083   5.209  1.8998  0.1134 -0.0803
 7856TIP3    H245060   5.988   2.942   5.227  0.4059  0.8462  1.5683
 7857TIP3   OH245061   1.996   3.293   2.799  0.1438  0.4077 -0.0279
 7857TIP3    H145062   1.957   3.230   2.861 -2.3741 -0.2435 -2.1697
 7857TIP3    H245063   2.053   3.239   2.743 -0.0899  0.4531 -0.3087
 7858TIP3   OH245064   1.482   6.480  16.804 -0.3669 -0.6986  0.2134
 7858TIP3    H145065   1.442   6.540  16.867  2.0191 -1.4471  2.5234
 7858TIP3    H245066   1.498   6.534  16.726 -2.4078  0.5028  0.5917
 7859TIP3   OH245067   6.054   2.994  13.980 -0.5231 -0.0295  0.5193
 7859TIP3    H145068   6.073   2.966  14.070 -0.7030  0.1877  0.6267
 7859TIP3    H245069   6.123   3.058  13.961 -0.0863 -0.5762  0.2592
 7860TIP3   OH245070   6.317   6.298   0.880  0.3127  0.1175 -0.7813
 7860TIP3    H145071   6.262   6.258   0.949  2.3188  0.0455  0.8344
 7860TIP3    H245072   6.311   6.236   0.807  0.8020 -1.5423  0.5401
 7861TIP3   OH245073   1.014   2.920   2.724  0.5079 -0.3323 -0.0992
 7861TIP3    H145074   0.928   2.934   2.763  1.1407  0.4193  1.0775
 7861TIP3    H245075   1.075   2.951   2.790  1.7287 -1.7918 -0.4988
 7862TIP3   OH245076   0.229   5.544   3.442  0.2862 -0.4515 -0.8338
 7862TIP3    H145077   0.270   5.602   3.378  0.4748 -0.8151 -1.0490
 7862TIP3    H245078   0.218   5.461   3.394  1.4814 -1.0762 -0.0450
 7863TIP3   OH245079   1.376   0.150   1.912  0.2924  0.1145 -0.2118
 7863TIP3    H145080   1.359   0.145   2.006  0.5581 -0.5141 -0.1938
 7863TIP3    H245081   1.404   0.062   1.888  1.6547  0.6357 -0.6018
 7864TIP3   OH245082   3.205   2.078  11.584  0.1115 -0.1505  0.1802
 7864TIP3    H145083   3.201   2.157  11.638  0.4884  0.4222 -0.6288
 7864TIP3    H245084   3.217   2.007  11.647  0.2298  0.4781  0.8750
 7865TIP3   OH245085   1.792   5.968  13.686  0.9123 -0.8812 -0.1924
 7865TIP3    H145086   1.767   6.060  13.677 -2.2708 -1.6885 -0.2085
 7865TIP3    H245087   1.801   5.937  13.596  3.1583 -0.3378 -0.1902
 7866TIP3   OH245088   4.587   3.072  15.651  0.1117 -0.2407 -0.1350
 7866TIP3    H145089   4.675   3.041  15.632 -0.1464 -0.9998 -0.0782
 7866TIP3    H245090   4.591   3.166  15.634  0.4641 -0.5506 -1.8851
 7867TIP3   OH245091   1.939   1.019  10.746  0.3487  0.7055  0.2147
 7867TIP3    H145092   1.931   0.988  10.656  0.6309  1.2844 -0.0098
 7867TIP3    H245093   2.012   0.969  10.783  0.4689  0.7338  0.0130
 7868TIP3   OH245094   6.118   2.349   4.632  0.2876 -0.2230  0.0608
 7868TIP3    H145095   6.030   2.312   4.618  0.3513 -0.6501  0.7318
 7868TIP3    H245096   6.144   2.382   4.547 -0.2014 -0.8154 -0.3267
 7869TIP3   OH245097   1.789   5.290  15.999  0.1375 -0.1719 -0.2922
 7869TIP3    H145098   1.824   5.219  15.945  0.1977  0.0621 -0.5584
 7869TIP3    H245099   1.834   5.280  16.083  0.9482  0.2185 -0.6823
 7870TIP3   OH245100   0.479   6.760  15.453  0.0341 -0.1897  0.4714
 7870TIP3    H145101   0.394   6.803  15.447 -0.0129 -0.3411  0.0152
 7870TIP3    H245102   0.465   6.673  15.414  0.3537 -0.2780  0.5502
 7871TIP3   OH245103   5.180   5.975   2.143  0.5683 -0.0116 -0.4094
 7871TIP3    H145104   5.195   5.883   2.122  0.3812  0.2793 -1.8798
 7871TIP3    H245105   5.094   5.977   2.185  1.3693 -0.7322  1.3161
 7872TIP3   OH245106   1.733   0.817  15.513 -0.3865  0.0879  0.3475
 7872TIP3    H145107   1.650   0.860  15.533 -0.3564 -0.2119  1.1312
 7872TIP3    H245108   1.737   0.743  15.573 -0.2358 -0.7673 -0.6883
 7873TIP3   OH245109   1.600   0.704   2.408  0.0040 -0.1910 -0.6340
 7873TIP3    H145110   1.639   0.776   2.359  0.0364 -0.1775 -0.5889
 7873TIP3    H245111   1.673   0.668   2.459 -0.2111  0.3641  0.0872
 7874TIP3   OH245112   1.961   2.690  13.381  0.4718  0.0860  0.0613
 7874TIP3    H145113   1.953   2.611  13.435  0.5493  0.0191 -0.0242
 7874TIP3    H245114   1.881   2.739  13.397  0.7960  0.3961  0.7688
 7875TIP3   OH245115   2.840   5.407  16.244 -0.2459 -0.4742  0.5660
 7875TIP3    H145116   2.847   5.416  16.149 -0.2818 -1.7786  0.4247
 7875TIP3    H245117   2.762   5.458  16.267 -0.5742 -0.6260 -0.1899
 7876TIP3   OH245118   3.430   5.424   4.432  0.0966 -0.3134  0.2867
 7876TIP3    H145119   3.432   5.343   4.380  1.3493 -0.4616  0.5420
 7876TIP3    H245120   3.347   5.465   4.409 -0.6317 -1.7480  0.2623
 7877TIP3   OH245121   3.406   2.878   1.302  0.5021  0.5546 -0.4386
 7877TIP3    H145122   3.369   2.911   1.384 -0.3148 -2.0987  0.3263
 7877TIP3    H245123   3.345   2.907   1.234 -0.7978 -0.3473  0.3417
 7878TIP3   OH245124   5.427   2.176  14.786  0.0958  0.9537 -0.0947
 7878TIP3    H145125   5.332   2.186  14.791 -0.0834 -0.6376  0.0747
 7878TIP3    H245126   5.442   2.129  14.704  0.6855  0.6304  0.1934
 7879TIP3   OH245127   3.293   4.817  16.385  0.1532 -0.6228  1.1294
 7879TIP3    H145128   3.207   4.788  16.416 -1.4983  0.8641 -1.7758
 7879TIP3    H245129   3.356   4.776  16.444 -2.5698 -1.6167  3.4201
 7880TIP3   OH245130   2.322   5.183   1.437  0.4959 -0.3275  0.2845
 7880TIP3    H145131   2.263   5.164   1.510 -0.3302  2.0756  0.2788
 7880TIP3    H245132   2.324   5.278   1.432 -0.5614 -0.4291 -3.7400
 7881TIP3   OH245133   1.219   4.034  16.171  0.4245  0.2588 -0.2137
 7881TIP3    H145134   1.299   3.990  16.143  0.6857 -0.6032  1.8297
 7881TIP3    H245135   1.226   4.040  16.266 -1.4264  1.1728 -0.1063
 7882TIP3   OH245136   6.187   5.019  10.993 -0.1525  0.0413  0.2800
 7882TIP3    H145137   6.259   5.021  10.931  0.0981  0.6674  0.5882
 7882TIP3    H245138   6.115   4.979  10.945  0.2784 -0.2133 -0.1557
 7883TIP3   OH245139   0.884   6.546   5.507  0.2321  0.2435  0.1919
 7883TIP3    H145140   0.976   6.552   5.533  0.6685  1.3199 -1.4907
 7883TIP3    H245141   0.873   6.455   5.478  0.5462 -0.1135  1.1937
 7884TIP3   OH245142   4.386   4.617   3.023  0.3901 -0.4382  0.0740
 7884TIP3    H145143   4.415   4.562   2.950  0.8493 -0.5719  0.3554
 7884TIP3    H245144   4.419   4.704   3.003  2.8765 -1.0263  1.4586
 7885TIP3   OH245145   4.315   0.691   3.533 -0.0618 -0.0923 -0.2967
 7885TIP3    H145146   4.248   0.759   3.544 -2.0876 -2.0335 -0.4687
 7885TIP3    H245147   4.321   0.680   3.438  0.1395 -0.2944 -0.2591
 7886TIP3   OH245148   3.440   0.911  17.235 -0.1067 -0.1497  1.0444
 7886TIP3    H145149   3.484   0.932  17.152 -2.1711 -1.5215 -0.4627
 7886TIP3    H245150   3.441   0.993  17.284  4.3343 -0.1761  1.2421
 7887TIP3   OH245151   0.467   0.322   4.362  0.1529  0.5695 -0.0610
 7887TIP3    H145152   0.560   0.319   4.382  0.3863  0.9635 -1.0627
 7887TIP3    H245153   0.439   0.231   4.362  0.5146  0.4596  0.3516
 7888TIP3   OH245154   5.979   1.848  13.257  0.0639  0.3641 -0.2861
 7888TIP3    H145155   6.069   1.849  13.223 -0.4684 -1.1834 -1.8754
 7888TIP3    H245156   5.934   1.917  13.208  0.4398  1.2999  0.6829
 7889TIP3   OH245157   3.789   4.824  14.176 -0.0242  0.3551  0.0304
 7889TIP3    H145158   3.749   4.865  14.253  0.7525  0.6376  0.2852
 7889TIP3    H245159   3.743   4.862  14.102 -1.2596 -0.4289  0.3748
 7890TIP3   OH245160   4.706   0.823   3.299  0.5422 -0.1113  0.3871
 7890TIP3    H145161   4.690   0.765   3.225  0.0712  0.1086  0.3131
 7890TIP3    H245162   4.679   0.772   3.376 -0.0558  0.0796  0.3053
 7891TIP3   OH245163   1.267   4.472  10.621 -0.5416 -0.2167 -0.6047
 7891TIP3    H145164   1.361   4.485  10.610 -0.7909  0.8476 -1.5604
 7891TIP3    H245165   1.241   4.540  10.683 -0.7970 -0.0222 -0.9204
 7892TIP3   OH245166   0.259   1.304   5.969 -0.3840  0.0985  0.1372
 7892TIP3    H145167   0.321   1.279   6.037 -2.5827 -2.4780  1.2650
 7892TIP3    H245168   0.205   1.373   6.009 -0.2536  0.1476  0.2265
 7893TIP3   OH245169   3.641   1.271   3.628 -0.3023 -0.3082 -0.0660
 7893TIP3    H145170   3.711   1.330   3.600  1.1548 -2.7743 -1.8514
 7893TIP3    H245171   3.577   1.328   3.670  1.4616  2.4032 -0.9115
 7894TIP3   OH245172   0.011   6.122  12.798 -0.0108  0.5703  0.0567
 7894TIP3    H145173  -0.051   6.194  12.813 -0.7863 -0.0893  0.0825
 7894TIP3    H245174  -0.012   6.058  12.865  3.3458  1.9858  2.7496
 7895TIP3   OH245175   0.216   5.957   2.500  0.1442 -0.4067  0.1547
 7895TIP3    H145176   0.309   5.950   2.524  0.1159  0.8790  0.6844
 7895TIP3    H245177   0.183   6.030   2.553 -1.0666 -0.5876 -0.3436
 7896TIP3   OH245178   6.190   4.673  14.666  0.2928  0.3332 -0.2879
 7896TIP3    H145179   6.263   4.692  14.725  0.6758 -0.1948 -0.5897
 7896TIP3    H245180   6.147   4.597  14.705 -1.2329  1.7476  0.9137
 7897TIP3   OH245181   2.301   0.713  13.189 -0.1454  0.0756 -0.6246
 7897TIP3    H145182   2.238   0.693  13.120 -0.8471  0.2704 -0.0616
 7897TIP3    H245183   2.353   0.785  13.154  0.5147 -0.8492 -1.5411
 7898TIP3   OH245184   3.872   2.210   6.014  0.3642  0.1802  0.4591
 7898TIP3    H145185   3.902   2.141   6.073 -1.0802 -0.2212  0.7403
 7898TIP3    H245186   3.909   2.291   6.050 -0.5091 -0.0569  1.9265
 7899TIP3   OH245187   2.777   4.616   2.513 -0.2066 -0.2812  0.6454
 7899TIP3    H145188   2.735   4.603   2.598  1.6127  0.7144  1.7416
 7899TIP3    H245189   2.801   4.709   2.513  3.3071 -1.1096  0.7384
 7900TIP3   OH245190   4.555   2.317  14.377  0.2637  0.0690 -0.7068
 7900TIP3    H145191   4.600   2.389  14.421  1.0031 -0.2019 -1.0043
 7900TIP3    H245192   4.524   2.261  14.449  0.3167  0.3101 -0.4949
 7901TIP3   OH245193   4.974   0.912  11.521 -0.5965  0.2546 -0.1938
 7901TIP3    H145194   4.897   0.937  11.572 -0.5356 -0.1599  0.1125
 7901TIP3    H245195   4.948   0.922  11.430 -0.6621  1.1509 -0.0804
 7902TIP3   OH245196   1.226   6.693  14.801 -0.1456 -0.5290 -0.5643
 7902TIP3    H145197   1.249   6.783  14.825  1.0997 -0.7736 -0.7883
 7902TIP3    H245198   1.137   6.681  14.834  0.9130 -0.3332  2.4698
 7903TIP3   OH245199   2.641   5.933   0.678 -0.4138  0.1050 -0.0589
 7903TIP3    H145200   2.694   5.859   0.648 -0.0692  0.6213 -0.7435
 7903TIP3    H245201   2.559   5.893   0.708 -0.5509 -0.4837 -1.1890
 7904TIP3   OH245202   5.378   6.094  12.929 -0.6452 -0.4151  0.1003
 7904TIP3    H145203   5.282   6.093  12.939 -0.8299 -0.0634 -1.4398
 7904TIP3    H245204   5.411   6.066  13.014 -2.1201 -0.4263  0.6943
 7905TIP3   OH245205   6.727   3.432   2.705 -0.0710  0.3793 -0.2908
 7905TIP3    H145206   6.639   3.415   2.673 -0.5511  0.1603  1.1012
 7905TIP3    H245207   6.774   3.350   2.691  0.4323  1.0248 -2.6280
 7906TIP3   OH245208   5.810   5.758  15.444 -0.2462  0.1340  0.1116
 7906TIP3    H145209   5.830   5.851  15.433  0.5441  0.0729  0.9226
 7906TIP3    H245210   5.890   5.713  15.416 -0.1649 -0.2394  0.9301
 7907TIP3   OH245211   1.006   5.199  16.236 -0.0221 -0.1154  0.5520
 7907TIP3    H145212   1.025   5.132  16.303  1.0137 -0.5130 -0.1406
 7907TIP3    H245213   0.926   5.241  16.268 -0.3986 -1.3340  1.2763
 7908TIP3   OH245214   0.540   6.761  11.424  0.1388  0.4882 -0.4750
 7908TIP3    H145215   0.563   6.675  11.390 -3.0393 -0.2789 -0.8641
 7908TIP3    H245216   0.492   6.803  11.352  1.0899  2.3318 -0.0554
 7909TIP3   OH245217   6.685   0.035   5.654 -0.6176  0.2348 -0.1215
 7909TIP3    H145218   6.677   0.074   5.740 -1.3054  0.0715 -0.1029
 7909TIP3    H245219   6.773   0.057   5.624 -0.4462  0.4400  0.5471
 7910TIP3   OH245220   0.670   6.709  13.377  0.3132 -0.7858 -0.7936
 7910TIP3    H145221   0.676   6.785  13.319  1.7548 -1.1429 -1.1344
 7910TIP3    H245222   0.691   6.634  13.320  0.2330 -1.2992 -0.1552
 7911TIP3   OH245223   5.704   6.454   6.142  0.1512  0.4913 -0.0592
 7911TIP3    H145224   5.686   6.545   6.166 -1.8870  0.1803 -0.2820
 7911TIP3    H245225   5.660   6.402   6.209 -0.6195 -0.3336 -1.1908
 7912TIP3   OH245226   0.225   6.469   3.061  0.2167  0.4656 -0.2523
 7912TIP3    H145227   0.304   6.516   3.088 -0.0412  0.2072  0.9581
 7912TIP3    H245228   0.171   6.535   3.018  0.2031  1.0886  0.7246
 7913TIP3   OH245229   3.673   0.804  13.971  0.3011 -0.0327  0.4353
 7913TIP3    H145230   3.715   0.863  14.034 -0.7320 -0.0792  1.1803
 7913TIP3    H245231   3.686   0.846  13.886  3.6193 -1.0222  0.3663
 7914TIP3   OH245232   5.097   1.354   3.474  0.1288  0.6219  0.3277
 7914TIP3    H145233   5.042   1.346   3.396 -0.2434 -0.7819  0.7132
 7914TIP3    H245234   5.174   1.301   3.455 -0.0031  0.2004  0.9219
 7915TIP3   OH245235   0.486   1.710   4.763  0.3312  0.4437 -0.1089
 7915TIP3    H145236   0.435   1.715   4.682  0.6333 -1.6676 -0.4448
 7915TIP3    H245237   0.557   1.650   4.742 -0.7542 -1.7434  2.3659
 7916TIP3   OH245238   5.484   2.777  16.031  0.2237 -0.1747 -0.3949
 7916TIP3    H145239   5.428   2.703  16.054 -0.4628  0.4938  0.1043
 7916TIP3    H245240   5.451   2.849  16.085  0.8797  0.4934 -0.8916
 7917TIP3   OH245241   3.796   2.735  12.867 -0.6579  0.3685  0.6615
 7917TIP3    H145242   3.742   2.814  12.873  0.5401  1.3026 -0.3055
 7917TIP3    H245243   3.796   2.713  12.774 -0.2127 -0.2160  0.7934
 7918TIP3   OH245244   4.807   6.596   1.206 -0.1952  0.8342  0.2651
 7918TIP3    H145245   4.874   6.586   1.273 -0.9391  1.0322  1.0497
 7918TIP3    H245246   4.795   6.690   1.197 -0.3120  0.8020  0.0779
 7919TIP3   OH245247   0.725   0.954   5.032 -0.1603 -0.1502  0.6440
 7919TIP3    H145248   0.723   0.861   5.053 -0.4735 -0.7617 -1.9534
 7919TIP3    H245249   0.795   0.962   4.967 -2.4706  0.8402 -1.7739
 7920TIP3   OH245250   2.055   1.379  13.698  0.8185  0.1587  0.5306
 7920TIP3    H145251   2.113   1.358  13.771 -0.3377 -2.2264  0.8140
 7920TIP3    H245252   2.024   1.294  13.667 -0.5875  1.2729 -1.1912
 7921TIP3   OH245253   4.473   0.241   2.136  0.3023 -0.5871 -0.4487
 7921TIP3    H145254   4.515   0.162   2.170  0.5825 -1.3061 -2.3809
 7921TIP3    H245255   4.543   0.288   2.091  0.2659  1.0902  1.2234
 7922TIP3   OH245256   1.075   4.614   2.503 -0.0778  0.0705  0.1406
 7922TIP3    H145257   1.113   4.527   2.507  0.6013  0.4292  2.1457
 7922TIP3    H245258   1.134   4.664   2.446  0.4988 -0.2977  0.4183
 7923TIP3   OH245259   4.501   0.377   3.762  0.0088 -0.1883 -0.0746
 7923TIP3    H145260   4.487   0.297   3.813 -0.5699 -0.3116 -0.4239
 7923TIP3    H245261   4.448   0.364   3.683 -1.2330  1.1741  0.5288
 7924TIP3   OH245262   4.515   2.790  15.807 -0.0831  0.4290  0.1813
 7924TIP3    H145263   4.450   2.766  15.872 -0.5737  0.5903 -0.2436
 7924TIP3    H245264   4.513   2.886  15.804  2.8064  0.6670  2.8268
 7925TIP3   OH245265   1.478   1.119   4.861  0.1838 -0.2310 -0.6185
 7925TIP3    H145266   1.555   1.083   4.905  2.1058  0.0482 -3.5942
 7925TIP3    H245267   1.404   1.070   4.897  1.7816 -0.8423  1.9476
 7926TIP3   OH245268   6.344   0.788  17.242  0.6568 -0.0557  0.2650
 7926TIP3    H145269   6.334   0.878  17.270  1.9861  0.0808  0.3507
 7926TIP3    H245270   6.263   0.744  17.269 -1.2826  1.7408 -2.3811
 7927TIP3   OH245271   0.203   0.573  15.509  0.0922 -0.1061  0.7305
 7927TIP3    H145272   0.217   0.496  15.453 -1.4334 -0.1625  0.4151
 7927TIP3    H245273   0.288   0.616  15.512  0.7850 -1.4140  0.3182
 7928TIP3   OH245274   5.016   0.513   0.921  0.3248  0.1589  0.7056
 7928TIP3    H145275   4.927   0.493   0.949 -0.1610  0.1398 -0.8381
 7928TIP3    H245276   5.011   0.521   0.826  1.7167  1.4412  0.7162
 7929TIP3   OH245277   4.619   5.970  15.389 -0.8071  0.0247  0.2062
 7929TIP3    H145278   4.581   6.034  15.329  0.5294  0.2923 -0.3624
 7929TIP3    H245279   4.550   5.903  15.398 -2.1607  1.4704  0.7324
 7930TIP3   OH245280   0.916   1.235   0.841 -0.4192 -0.2528 -0.0327
 7930TIP3    H145281   0.976   1.161   0.845  0.5769  0.5725  0.4164
 7930TIP3    H245282   0.881   1.233   0.752 -3.4055 -3.5978  1.1004
 7931TIP3   OH245283   0.837   6.345  11.275 -0.0013 -0.2074  1.1039
 7931TIP3    H145284   0.914   6.315  11.324 -1.4032 -3.8078  1.2473
 7931TIP3    H245285   0.873   6.380  11.193  1.8626 -0.6755  1.6815
 7932TIP3   OH245286   1.356   1.949  11.933  0.4049  1.0202 -0.4177
 7932TIP3    H145287   1.324   1.904  11.854  0.2725  0.3354  0.0176
 7932TIP3    H245288   1.451   1.938  11.929  0.3911  0.9032 -0.4371
 7933TIP3   OH245289   3.768   3.357   5.752 -0.1049 -0.0096 -0.1360
 7933TIP3    H145290   3.765   3.289   5.819 -0.9133 -1.4007 -1.5507
 7933TIP3    H245291   3.857   3.351   5.715  0.5051  1.0873  1.1198
 7934TIP3   OH245292   4.538   5.321   2.941 -0.2456 -0.1555 -0.1848
 7934TIP3    H145293   4.610   5.261   2.923 -2.0552 -2.7159  0.8263
 7934TIP3    H245294   4.503   5.344   2.855  0.6384 -0.3359 -0.5892
 7935TIP3   OH245295   5.157   5.476   2.732  0.3523  0.3534 -0.1652
 7935TIP3    H145296   5.160   5.450   2.640 -0.4934 -2.4827  0.5641
 7935TIP3    H245297   5.178   5.396   2.780 -2.5264  0.9620  2.2269
 7936TIP3   OH245298   2.808   4.642  16.722  0.1596  0.2011 -0.3050
 7936TIP3    H145299   2.811   4.546  16.723  2.5976  0.2325 -0.0242
 7936TIP3    H245300   2.876   4.667  16.659 -0.4142  1.7489 -0.3236
 7937TIP3   OH245301   3.933   0.423   3.571 -0.2396 -0.1350 -0.3459
 7937TIP3    H145302   3.890   0.346   3.533 -0.2269 -0.0719 -0.4904
 7937TIP3    H245303   3.895   0.431   3.658 -1.2157  0.4722 -0.8133
 7938TIP3   OH245304   2.896   0.346  14.015 -0.5230  0.1706  0.3038
 7938TIP3    H145305   2.858   0.430  13.992 -0.9101 -0.1614 -0.2809
 7938TIP3    H245306   2.977   0.368  14.062 -0.8671  0.8654  0.5832
 7939TIP3   OH245307   3.060   1.298   3.408  0.1714 -0.4710 -0.2359
 7939TIP3    H145308   3.033   1.353   3.480 -1.1302 -0.7003 -0.5455
 7939TIP3    H245309   3.048   1.208   3.440  0.1486 -0.5740 -0.5273
 7940TIP3   OH245310   0.519   1.985   1.850  0.0015  0.4943 -1.0931
 7940TIP3    H145311   0.559   1.938   1.923 -1.2304  0.3744 -0.4895
 7940TIP3    H245312   0.509   1.918   1.782 -1.4055 -0.0444 -0.3692
 7941TIP3   OH245313   2.990   6.655  15.374  0.1148  0.2591 -0.1181
 7941TIP3    H145314   2.962   6.592  15.308 -1.0000  0.7500 -0.1356
 7941TIP3    H245315   2.966   6.615  15.458  1.6980 -0.4460  0.0075
 7942TIP3   OH245316   6.426   3.317  17.207  0.5129 -1.0762  0.2996
 7942TIP3    H145317   6.391   3.268  17.282  1.1508 -0.8937  0.7217
 7942TIP3    H245318   6.391   3.271  17.131  0.3304 -1.6200  0.6980
 7943TIP3   OH245319   6.514   4.948  16.864 -0.4894  0.0121 -0.0789
 7943TIP3    H145320   6.493   5.040  16.852 -0.7207  0.2317  1.8015
 7943TIP3    H245321   6.566   4.924  16.787  0.9421  2.1235  0.1965
 7944TIP3   OH245322   2.210   2.609  14.902  0.3770  0.3879  0.9799
 7944TIP3    H145323   2.281   2.603  14.839  0.3735  3.0216  0.6619
 7944TIP3    H245324   2.142   2.660  14.857 -1.1254 -0.8426  1.7958
 7945TIP3   OH245325   2.815   0.924   1.792 -0.5785  0.5240 -0.3960
 7945TIP3    H145326   2.771   0.850   1.833  2.7267 -2.0349 -1.2553
 7945TIP3    H245327   2.750   0.960   1.731 -3.7126  1.0892  3.1048
 7946TIP3   OH245328   6.355   2.978  16.421 -0.0310  0.1979 -0.1646
 7946TIP3    H145329   6.417   3.004  16.353  2.1296 -2.9497  0.4856
 7946TIP3    H245330   6.300   2.911  16.380 -1.1448  0.9082  0.1314
 7947TIP3   OH245331   1.804   4.216  16.532  0.2470 -0.2778  0.0112
 7947TIP3    H145332   1.765   4.201  16.618 -1.2782  0.9859 -0.4386
 7947TIP3    H245333   1.871   4.283  16.547 -0.1001  0.0270  0.1749
 7948TIP3   OH245334   5.900   3.480  14.785  0.0198  0.5115  0.0088
 7948TIP3    H145335   5.909   3.414  14.855 -0.9912  1.0645  0.6753
 7948TIP3    H245336   5.904   3.564  14.831  1.6932  0.9453 -0.8842
 7949TIP3   OH245337   3.020   2.545   4.478  0.2886  0.5219  0.2495
 7949TIP3    H145338   2.984   2.456   4.476  1.9129 -0.1257 -1.0525
 7949TIP3    H245339   3.113   2.532   4.494  0.7216  1.9415 -1.0634
 7950TIP3   OH245340   0.528   4.433  14.478  0.2921  0.9693 -0.2625
 7950TIP3    H145341   0.597   4.389  14.429 -0.5377 -0.7273  0.0371
 7950TIP3    H245342   0.463   4.458  14.412 -0.7693 -1.2082 -0.0877
 7951TIP3   OH245343   6.701   4.137   4.996 -0.1921  0.2780 -0.4541
 7951TIP3    H145344   6.686   4.172   4.909 -0.5701  1.2082 -0.0128
 7951TIP3    H245345   6.620   4.091   5.018  0.4986 -1.3555 -1.2503
 7952TIP3   OH245346   2.269   0.670   3.322 -0.2482 -0.2977 -0.0897
 7952TIP3    H145347   2.357   0.665   3.285 -0.0311 -2.6715  0.6655
 7952TIP3    H245348   2.220   0.599   3.279 -0.9051 -0.9534  1.6888
 7953TIP3   OH245349   2.397   6.353  11.385  0.2086 -0.3809 -0.2192
 7953TIP3    H145350   2.428   6.365  11.295  2.6674  0.8649  0.7474
 7953TIP3    H245351   2.379   6.260  11.392 -0.3807 -0.4350 -2.1120
 7954TIP3   OH245352   5.538   1.384  14.360  0.1903 -0.5189  0.3972
 7954TIP3    H145353   5.521   1.445  14.289 -2.0119 -0.4715  0.9196
 7954TIP3    H245354   5.582   1.310  14.318 -0.9772 -0.4365 -1.0013
 7955TIP3   OH245355   3.051   0.988   5.893 -0.5216  0.5811 -0.0029
 7955TIP3    H145356   3.123   0.965   5.835 -0.7090 -1.1706  0.4491
 7955TIP3    H245357   2.988   1.033   5.837 -1.0536 -1.7740 -1.3410
 7956TIP3   OH245358   0.389   5.894  13.994  0.1115 -1.1783  0.0068
 7956TIP3    H145359   0.359   5.934  14.075  0.4700 -1.4367  0.2662
 7956TIP3    H245360   0.482   5.876  14.008  0.0455 -1.7447 -0.2498
 7957TIP3   OH245361   3.685   6.648  15.969 -0.0150  0.1296 -0.7777
 7957TIP3    H145362   3.630   6.571  15.961 -0.7559  0.3720  1.5433
 7957TIP3    H245363   3.722   6.661  15.882 -1.9198 -1.3105 -1.8245
 7958TIP3   OH245364   0.546   2.299  16.170  0.2934 -0.2175  0.2970
 7958TIP3    H145365   0.635   2.264  16.160  0.4189 -0.0362  0.7676
 7958TIP3    H245366   0.508   2.293  16.082  1.3211  1.1583 -0.2623
 7959TIP3   OH245367   5.201   1.290   0.278 -0.1475  0.0749 -0.1842
 7959TIP3    H145368   5.182   1.209   0.324  1.1548 -0.6040 -0.8040
 7959TIP3    H245369   5.176   1.359   0.339  0.0764 -0.7950  0.9046
 7960TIP3   OH245370   4.828   0.070  11.735 -0.3157  0.3963 -0.0994
 7960TIP3    H145371   4.749   0.098  11.781  0.5173  2.5213  0.1068
 7960TIP3    H245372   4.861  -0.004  11.785 -1.5357  0.2331  0.4744
 7961TIP3   OH245373   3.634   3.639  17.114 -0.8481  0.6730  0.8616
 7961TIP3    H145374   3.577   3.617  17.187 -1.0389  2.2964  1.2166
 7961TIP3    H245375   3.688   3.711  17.145 -1.4306  1.8753 -0.8151
 7962TIP3   OH245376   1.853   0.534  15.106 -0.1807 -0.4762 -1.2936
 7962TIP3    H145377   1.896   0.454  15.075 -0.5615 -1.6250  1.0030
 7962TIP3    H245378   1.790   0.504  15.172  0.4687  1.7871  0.4510
 7963TIP3   OH245379   4.795   2.939  17.104 -0.7067  0.4572  0.0185
 7963TIP3    H145380   4.740   2.930  17.026  1.1072  0.2839 -1.2598
 7963TIP3    H245381   4.820   3.031  17.106 -0.9370  0.5141  0.5451
 7964TIP3   OH245382   1.320   2.520  14.553  0.4644  0.6060  0.2524
 7964TIP3    H145383   1.249   2.577  14.585 -1.5284 -0.7868 -1.5106
 7964TIP3    H245384   1.349   2.472  14.630 -2.2093 -0.5681  0.5737
 7965TIP3   OH245385   2.690   2.437   3.561  0.5698 -0.2415  0.2307
 7965TIP3    H145386   2.745   2.371   3.520 -0.9074 -1.3512  0.0286
 7965TIP3    H245387   2.611   2.391   3.587 -0.4869  1.4457  0.0936
 7966TIP3   OH245388   2.610   1.684   4.718  0.5150 -0.6956 -0.3643
 7966TIP3    H145389   2.522   1.693   4.682  0.9018 -0.3269 -1.2350
 7966TIP3    H245390   2.664   1.742   4.664  0.7583  1.4672  2.1269
 7967TIP3   OH245391   3.788   2.422  16.888  0.1991 -0.6253  0.5792
 7967TIP3    H145392   3.863   2.374  16.851 -0.1367 -1.4726  0.9840
 7967TIP3    H245393   3.763   2.371  16.965  1.5607  1.6742  2.6415
 7968TIP3   OH245394   4.271   2.614   4.288 -0.0587  0.0401  0.0589
 7968TIP3    H145395   4.253   2.706   4.303  0.1105  0.4869 -2.3057
 7968TIP3    H245396   4.231   2.569   4.363 -0.1596  1.9988  1.2147
 7969TIP3   OH245397   2.822   1.188   0.559  0.5827 -0.1636 -0.3747
 7969TIP3    H145398   2.887   1.250   0.593  0.9024 -0.6510 -0.0924
 7969TIP3    H245399   2.830   1.196   0.464  0.2682  0.5937 -0.3431
 7970TIP3   OH245400   4.567   6.459   5.680  0.3161  0.0351  0.1171
 7970TIP3    H145401   4.556   6.551   5.655  3.3603  0.6897  1.0611
 7970TIP3    H245402   4.655   6.436   5.650  0.0953 -2.1935  1.0630
 7971TIP3   OH245403   2.063   5.109   4.184  0.3252 -0.4064  0.7112
 7971TIP3    H145404   2.134   5.046   4.166 -1.1484 -1.6492 -0.9482
 7971TIP3    H245405   2.050   5.155   4.101 -2.0670 -1.5207  0.4139
 7972TIP3   OH245406   0.668   1.404  15.171 -0.0834 -0.3764 -0.5105
 7972TIP3    H145407   0.753   1.361  15.160 -0.2715 -0.4171 -1.9302
 7972TIP3    H245408   0.689   1.493  15.198  0.3740 -0.6775  0.1493
 7973TIP3   OH245409   4.765   2.380   6.141 -0.1352  0.2296 -0.2619
 7973TIP3    H145410   4.838   2.340   6.189 -0.7847 -2.1165 -1.1786
 7973TIP3    H245411   4.803   2.458   6.101  1.4754 -0.1127  0.5496
 7974TIP3   OH245412   1.387   3.884   1.127  0.2514 -0.0618  0.4732
 7974TIP3    H145413   1.417   3.927   1.047 -0.4303  0.9866  0.7722
 7974TIP3    H245414   1.318   3.942   1.161 -1.4910 -1.9516  0.2593
 7975TIP3   OH245415   3.300   2.364   4.979 -0.3628  0.3597  0.5234
 7975TIP3    H145416   3.344   2.280   4.964  0.3737  0.4721  1.9896
 7975TIP3    H245417   3.369   2.423   5.008 -1.2593  0.8680  1.6662
 7976TIP3   OH245418   0.687   4.100  12.681 -0.7189 -0.6770  0.8672
 7976TIP3    H145419   0.723   4.142  12.760 -0.0363 -1.8964  1.2046
 7976TIP3    H245420   0.658   4.014  12.710  1.8382 -2.1387 -0.7119
 7977TIP3   OH245421   5.228   0.641  16.076 -0.3029 -0.0397  0.3951
 7977TIP3    H145422   5.149   0.587  16.081  0.0371 -0.5902 -0.0501
 7977TIP3    H245423   5.199   0.722  16.035 -0.0925 -1.3315 -2.4320
 7978TIP3   OH245424   0.653   3.671  12.884 -0.6156 -0.9385 -0.3310
 7978TIP3    H145425   0.613   3.586  12.868  0.5735 -1.2421 -1.9045
 7978TIP3    H245426   0.622   3.725  12.811  2.3374 -1.3949 -2.0116
 7979TIP3   OH245427   3.724   3.237  13.364 -0.9708  0.3301  0.4393
 7979TIP3    H145428   3.771   3.264  13.285  0.8006 -0.7526  1.1061
 7979TIP3    H245429   3.715   3.143  13.356 -0.0069  0.0868  1.9167
 7980TIP3   OH245430   2.188   0.994  17.243  0.3692 -0.2852  0.6962
 7980TIP3    H145431   2.118   0.946  17.199  1.5083 -1.7047  0.3936
 7980TIP3    H245432   2.228   1.048  17.174  1.2566 -1.4642  0.2694
 7981TIP3   OH245433   3.092   4.274   0.840  0.0332  0.3314  0.0564
 7981TIP3    H145434   3.087   4.233   0.926  0.6438 -0.3153 -0.2124
 7981TIP3    H245435   3.123   4.204   0.782 -0.9746  0.5863 -0.8065
 7982TIP3   OH245436   3.256   5.702   3.139  0.5737 -0.1486  0.0444
 7982TIP3    H145437   3.301   5.706   3.224  0.0556  0.2653  0.3008
 7982TIP3    H245438   3.313   5.648   3.085  2.4430  2.0731 -0.2829
 7983TIP3   OH245439   0.728   4.464  14.684 -0.0351 -0.1073 -0.4517
 7983TIP3    H145440   0.814   4.439  14.649  0.1927  3.7607 -2.8983
 7983TIP3    H245441   0.667   4.446  14.612 -1.2512 -2.1318  1.0192
 7984TIP3   OH245442   5.751   5.950   2.582 -0.5007  0.3093 -0.3064
 7984TIP3    H145443   5.681   5.967   2.645 -1.0964 -0.9584 -0.6236
 7984TIP3    H245444   5.824   5.920   2.636 -1.2193 -1.4103 -0.2681
 7985TIP3   OH245445   2.263   6.421  13.629  0.0203 -0.2086  0.1693
 7985TIP3    H145446   2.355   6.402  13.647  0.4250  0.7539 -0.8682
 7985TIP3    H245447   2.260   6.444  13.536 -1.0753  0.9394  0.4710
 7986TIP3   OH245448   5.481   3.977   1.859  0.0914 -0.2963  0.1323
 7986TIP3    H145449   5.454   4.004   1.946 -0.1072  0.1964 -0.0795
 7986TIP3    H245450   5.554   4.036   1.837 -0.4649  0.1961 -0.4073
 7987TIP3   OH245451   6.627   1.397  10.491 -0.6142 -0.0566  0.1959
 7987TIP3    H145452   6.626   1.400  10.587 -0.4199  0.8235  0.1796
 7987TIP3    H245453   6.677   1.319  10.469  0.0312  0.1774  0.8165
 7988TIP3   OH245454   4.724   3.739  16.119  0.0566 -0.3416 -0.7220
 7988TIP3    H145455   4.706   3.824  16.079 -1.7679 -0.8163 -0.9338
 7988TIP3    H245456   4.640   3.709  16.152  1.0302 -1.2609  0.9657
 7989TIP3   OH245457   4.308   3.150  16.270  0.4898 -0.0217 -0.0957
 7989TIP3    H145458   4.264   3.199  16.201 -0.3541 -0.5684  0.0448
 7989TIP3    H245459   4.295   3.058  16.246  1.7775 -0.1904 -0.1862
 7990TIP3   OH245460   1.144   2.407   0.917 -0.6930 -0.2443 -0.3810
 7990TIP3    H145461   1.086   2.465   0.967 -0.1703 -0.4996  0.5405
 7990TIP3    H245462   1.118   2.420   0.826 -1.4004  0.5281 -0.0807
 7991TIP3   OH245463   1.507   3.076   5.775  0.6725 -0.5686 -0.4987
 7991TIP3    H145464   1.525   3.050   5.865  2.4836 -0.6354 -0.8481
 7991TIP3    H245465   1.502   3.172   5.778  1.2721 -0.5366 -0.4019
 7992TIP3   OH245466   4.964   2.551  11.041 -0.4428  0.3636 -0.1152
 7992TIP3    H145467   4.948   2.530  10.949  0.1538  0.0633 -0.1568
 7992TIP3    H245468   4.908   2.626  11.060 -0.4154  0.5468 -0.7796
 7993TIP3   OH245469   5.375   5.786  10.855  0.4782 -0.1440 -0.6086
 7993TIP3    H145470   5.416   5.868  10.883  0.5920 -0.9889  1.7740
 7993TIP3    H245471   5.442   5.741  10.805  1.1749  0.2271 -0.0205
 7994TIP3   OH245472   0.752   2.753  13.094 -0.3622 -0.3326  0.4497
 7994TIP3    H145473   0.790   2.833  13.131 -0.0947  0.3362 -1.2393
 7994TIP3    H245474   0.801   2.682  13.136  0.9637  0.4481  0.2380
 7995TIP3   OH245475   5.483   4.572  12.651  0.4458  0.2039 -0.2925
 7995TIP3    H145476   5.441   4.544  12.570  1.1898  1.9082 -1.2968
 7995TIP3    H245477   5.564   4.521  12.655 -0.5100 -1.3189  0.4188
 7996TIP3   OH245478   1.042   0.001   3.359  0.0897 -0.1029  0.1664
 7996TIP3    H145479   1.130   0.013   3.324 -0.8618  3.8412 -1.0183
 7996TIP3    H245480   1.048   0.031   3.450 -0.1110  0.4682 -0.0098
 7997TIP3   OH245481   6.786   0.744  15.818  0.1558  0.0630  0.6839
 7997TIP3    H145482   6.753   0.701  15.897  2.5600 -0.0272  1.6640
 7997TIP3    H245483   6.851   0.806  15.851 -2.5117  3.8247 -0.7591
 7998TIP3   OH245484   2.988   0.260   3.672 -0.1436  0.0092 -0.0126
 7998TIP3    H145485   3.026   0.217   3.748  0.5291 -1.6309 -1.2423
 7998TIP3    H245486   3.032   0.219   3.597  0.0942  2.4330 -1.2589
 7999TIP3   OH245487   5.381   2.554  16.154 -0.5188 -0.0745  0.2970
 7999TIP3    H145488   5.445   2.505  16.205  0.1387 -1.7972 -2.1336
 7999TIP3    H245489   5.339   2.488  16.098 -2.2682  1.5340 -0.3487
 8000TIP3   OH245490   2.913   2.198   3.921 -0.5802  0.1763 -0.3735
 8000TIP3    H145491   2.826   2.161   3.911 -1.0956  1.5165 -0.9886
 8000TIP3    H245492   2.950   2.199   3.833  0.9887 -2.5261  0.1879
 8001TIP3   OH245493   6.470   5.275  13.256 -0.7964 -0.3343  0.3320
 8001TIP3    H145494   6.513   5.336  13.197 -2.2998  1.3342  0.9378
 8001TIP3    H245495   6.527   5.197  13.255  0.8923  0.8736 -0.7813
 8002TIP3   OH245496   4.747   1.374   0.459  0.4331  0.6893  0.5762
 8002TIP3    H145497   4.812   1.320   0.505  0.7452  0.6796  0.1261
 8002TIP3    H245498   4.780   1.464   0.469  0.7220  0.6471  0.0158
 8003TIP3   OH245499   1.107   3.859  14.302 -0.2691 -0.0561  0.1894
 8003TIP3    H145500   1.113   3.766  14.280 -1.3685 -0.6975  2.4264
 8003TIP3    H245501   1.016   3.882  14.284 -0.3427  0.2251  0.9022
 8004TIP3   OH245502   5.938   1.608   2.247 -0.2137  0.0905 -0.8349
 8004TIP3    H145503   5.871   1.543   2.269 -0.6640  1.8104  3.2414
 8004TIP3    H245504   5.889   1.685   2.219 -0.0413  1.4864  2.5292
 8005TIP3   OH245505   2.836   5.845   1.576  0.0200  0.0522  0.5015
 8005TIP3    H145506   2.861   5.824   1.666  0.3701 -0.8340  0.2062
 8005TIP3    H245507   2.869   5.771   1.525  0.3164  0.8199 -0.4268
 8006TIP3   OH245508   3.240   4.579   2.917  0.0132 -0.8011 -0.1253
 8006TIP3    H145509   3.206   4.635   2.987 -1.1123 -2.6149  0.8089
 8006TIP3    H245510   3.208   4.620   2.836 -1.5189 -0.5526  0.5789
 8007TIP3   OH245511   6.633   2.522   4.065 -0.1695  0.0170  0.0614
 8007TIP3    H145512   6.623   2.579   4.142 -0.4147  0.9802 -0.6724
 8007TIP3    H245513   6.621   2.434   4.100 -0.4949  0.4522  1.1014
 8008TIP3   OH245514   0.210   2.563  12.341 -0.5191 -0.5924  0.3203
 8008TIP3    H145515   0.238   2.480  12.380 -0.1942 -1.0659 -0.9015
 8008TIP3    H245516   0.290   2.616  12.339 -0.5763 -0.4997  0.4624
 8009TIP3   OH245517   1.131   0.014   2.447 -0.3840  0.0426  0.5359
 8009TIP3    H145518   1.058  -0.046   2.435  0.1586 -0.9681  2.2524
 8009TIP3    H245519   1.090   0.100   2.454 -1.2383 -0.2419 -0.8016
 8010TIP3   OH245520   4.941   6.323  12.397  0.2079 -0.2529  0.5086
 8010TIP3    H145521   4.983   6.399  12.357  2.7495 -1.6681  0.4227
 8010TIP3    H245522   4.963   6.328  12.490 -2.0693  0.6611  1.0439
 8011TIP3   OH245523   4.871   4.980   5.721  0.5592 -0.0123 -0.6116
 8011TIP3    H145524   4.929   5.056   5.714 -0.1656  0.6621  0.6529
 8011TIP3    H245525   4.787   5.016   5.748 -0.4142 -1.0132 -2.2432
 8012TIP3   OH245526   5.806   1.036   2.393 -0.1144  0.1970  0.0931
 8012TIP3    H145527   5.811   0.982   2.313 -3.6436 -0.3660  0.1841
 8012TIP3    H245528   5.815   0.973   2.465 -0.0790  0.3009  0.1804
 8013TIP3   OH245529   1.801   4.640   1.119 -0.1606 -0.5493 -0.2643
 8013TIP3    H145530   1.764   4.675   1.038  0.6895 -0.4630 -0.6196
 8013TIP3    H245531   1.752   4.684   1.188  0.8039  1.2441 -0.6985
 8014TIP3   OH245532   1.963   4.827  12.485 -0.0306 -0.0908 -0.2093
 8014TIP3    H145533   2.003   4.880  12.416  0.2849 -0.7874 -0.5632
 8014TIP3    H245534   2.036   4.797  12.539  0.0609 -2.2753 -1.4971
 8015TIP3   OH245535   5.555   3.355  15.861  0.0376  0.3942 -0.2325
 8015TIP3    H145536   5.553   3.451  15.859  2.6268  0.4913  0.1863
 8015TIP3    H245537   5.611   3.331  15.788 -1.2855 -0.8704 -0.8568
 8016TIP3   OH245538   6.703   6.164  14.425  0.6888  0.2945 -0.2229
 8016TIP3    H145539   6.611   6.187  14.437  0.3484 -2.0045  1.9103
 8016TIP3    H245540   6.749   6.212  14.495  0.6597 -1.1405  0.8046
 8017TIP3   OH245541   6.708   0.914   5.856  0.3639  0.1476  0.3732
 8017TIP3    H145542   6.775   0.969   5.897  0.2820  1.3193 -1.0122
 8017TIP3    H245543   6.630   0.927   5.910  0.5500  0.8204  0.4865
 8018TIP3   OH245544   6.708   3.470   0.551 -0.3402  0.0669  0.3367
 8018TIP3    H145545   6.659   3.505   0.477  1.0754  0.0951 -0.6100
 8018TIP3    H245546   6.800   3.485   0.528  0.1444 -0.7431  1.6901
 8019TIP3   OH245547   3.195   5.669  14.511 -0.0562 -0.7230  0.1171
 8019TIP3    H145548   3.282   5.681  14.474 -0.7098 -1.2280 -1.6515
 8019TIP3    H245549   3.136   5.710  14.446 -1.1290 -0.4020  1.2802
 8020TIP3   OH245550   3.366   0.012   4.480  0.2760  1.1425 -0.1703
 8020TIP3    H145551   3.304   0.013   4.407  0.7756  0.0588 -0.6168
 8020TIP3    H245552   3.452   0.019   4.438  0.5289  1.1421  0.3496
 8021TIP3   OH245553   5.715   1.760   5.204 -0.2313  0.9950  0.1634
 8021TIP3    H145554   5.782   1.828   5.217  0.2546  0.4247  0.7084
 8021TIP3    H245555   5.687   1.738   5.293 -1.0419  1.1152 -0.0538
 8022TIP3   OH245556   2.739   3.152   4.241  0.3285 -0.2749 -0.1829
 8022TIP3    H145557   2.677   3.201   4.186  0.6187  0.2309 -0.0646
 8022TIP3    H245558   2.745   3.067   4.199 -2.4881 -1.2706  1.2797
 8023TIP3   OH245559   1.446   3.453  15.669 -0.6612  0.3226 -0.2935
 8023TIP3    H145560   1.362   3.436  15.712 -0.4282 -3.9388 -1.3123
 8023TIP3    H245561   1.424   3.462  15.576 -0.1133  0.2369 -0.4334
 8024TIP3   OH245562   1.794   2.947  14.125 -0.2070  0.3806 -0.1798
 8024TIP3    H145563   1.726   2.887  14.095  0.7840  0.1410 -1.9460
 8024TIP3    H245564   1.750   3.033  14.127 -1.3719 -0.2311  1.5231
 8025TIP3   OH245565   5.761   6.313  12.236  0.3830  0.2446  0.2011
 8025TIP3    H145566   5.734   6.221  12.227 -0.1518  0.5586 -1.4119
 8025TIP3    H245567   5.682   6.358  12.264  0.8561  0.0857  1.8417
 8026TIP3   OH245568   3.356   1.109   3.922  0.3996  0.5273 -0.1094
 8026TIP3    H145569   3.436   1.159   3.940  0.5719  0.7677 -1.4664
 8026TIP3    H245570   3.324   1.146   3.839  0.1138 -1.1026 -0.7350
 8027TIP3   OH245571   3.368   3.693  16.820 -0.5972 -0.5408  0.9137
 8027TIP3    H145572   3.318   3.642  16.756  0.1391 -0.5337  0.3184
 8027TIP3    H245573   3.382   3.778  16.778  1.2809 -1.0777  0.3732
 8028TIP3   OH245574   1.639   3.631  14.734 -1.1189 -0.1982  0.1217
 8028TIP3    H145575   1.578   3.645  14.806 -1.1039 -1.1223  0.3218
 8028TIP3    H245576   1.615   3.546  14.698 -1.8849  0.7929 -1.7361
 8029TIP3   OH245577   0.621   4.349  16.329 -0.6692  0.2110  0.0661
 8029TIP3    H145578   0.702   4.389  16.362 -0.3486  1.5031 -2.2176
 8029TIP3    H245579   0.570   4.331  16.408  1.6613 -0.2426  1.5169
 8030TIP3   OH245580   6.240   3.239  15.234  0.1552  0.0813  0.1595
 8030TIP3    H145581   6.236   3.155  15.280 -1.6872  0.5287  0.8492
 8030TIP3    H245582   6.267   3.302  15.300  2.0336 -0.0289 -0.4753
 8031TIP3   OH245583   6.072   2.286  11.869  0.2981  0.1885  0.8218
 8031TIP3    H145584   6.136   2.356  11.860 -0.9509  1.2585  0.1043
 8031TIP3    H245585   5.995   2.328  11.907 -0.5603 -0.7182  0.1303
 8032TIP3   OH245586   5.152   5.410   5.341  0.0382  0.0704  0.3855
 8032TIP3    H145587   5.128   5.486   5.394 -1.5019  0.5848 -0.9708
 8032TIP3    H245588   5.218   5.443   5.280  0.9177 -0.2195  1.1701
 8033TIP3   OH245589   5.027   3.179  15.221 -0.2645 -0.1114  0.0275
 8033TIP3    H145590   5.003   3.097  15.178  0.0772 -0.8187  1.1663
 8033TIP3    H245591   4.959   3.241  15.194 -1.6817 -1.3044  0.7959
 8034TIP3   OH245592   2.335   6.674   4.692  0.0876  0.8802 -0.3786
 8034TIP3    H145593   2.252   6.630   4.675 -0.7434  1.3189  2.4090
 8034TIP3    H245594   2.389   6.653   4.615 -1.7952 -1.3134 -1.1550
 8035TIP3   OH245595   3.256   5.023  12.321  0.2143 -0.2432  0.4843
 8035TIP3    H145596   3.277   5.116  12.307  0.6430 -0.2593  0.9917
 8035TIP3    H245597   3.301   4.978  12.250  0.8221 -0.1493  0.8022
 8036TIP3   OH245598   2.418   0.856  14.289  0.3772 -0.0056  0.1571
 8036TIP3    H145599   2.463   0.880  14.208 -0.3169  1.2316  0.1291
 8036TIP3    H245600   2.379   0.938  14.320 -0.7377 -0.7978  0.8809
 8037TIP3   OH245601   5.815   6.769  12.786  0.4216  0.4775 -0.1740
 8037TIP3    H145602   5.844   6.696  12.731 -0.0497  1.7858 -2.2051
 8037TIP3    H245603   5.837   6.847  12.735 -0.4467  1.7079  1.3109
 8038TIP3   OH245604   2.616   2.367  14.662  0.3992 -0.0057  0.1469
 8038TIP3    H145605   2.632   2.419  14.584  1.6457  2.5643  2.0161
 8038TIP3    H245606   2.694   2.312  14.671 -0.0463 -0.7988 -0.7568
 8039TIP3   OH245607   2.362   4.950  17.019 -0.0697 -0.0567  0.2921
 8039TIP3    H145608   2.276   4.991  17.032 -0.1825  0.0309 -0.7273
 8039TIP3    H245609   2.420   4.998  17.079 -1.0086 -1.1071  2.1027
 8040TIP3   OH245610   5.714   6.705  11.320 -0.5071 -0.9870  0.3013
 8040TIP3    H145611   5.667   6.764  11.379 -0.9929 -3.1333  2.0865
 8040TIP3    H245612   5.794   6.754  11.297 -1.8691  1.2022  0.0797
 8041TIP3   OH245613   4.982   0.652   5.980 -0.3080  0.0048 -0.4596
 8041TIP3    H145614   5.063   0.676   6.026 -0.1515  1.1842 -1.3212
 8041TIP3    H245615   4.912   0.671   6.042  0.0913 -1.6818  0.5560
 8042TIP3   OH245616   5.702   3.556  16.668 -0.2209 -0.0313 -0.4885
 8042TIP3    H145617   5.743   3.601  16.594 -1.2008 -0.8977 -1.5646
 8042TIP3    H245618   5.739   3.600  16.745  1.2596  0.4847 -1.4596
 8043TIP3   OH245619   3.450   1.417   2.451  0.1740 -0.8598  0.3832
 8043TIP3    H145620   3.511   1.346   2.433 -0.0043 -0.9399  0.0819
 8043TIP3    H245621   3.403   1.430   2.368  1.4674  0.8380 -0.1257
 8044TIP3   OH245622   2.564   4.226  17.244  0.4122 -0.6811 -0.0278
 8044TIP3    H145623   2.589   4.313  17.276  3.4987 -1.1729 -0.8999
 8044TIP3    H245624   2.603   4.221  17.157 -0.7442 -2.4970 -0.4501
 8045TIP3   OH245625   5.925   1.589  17.280  0.2098  0.2523 -0.7460
 8045TIP3    H145626   5.885   1.670  17.310 -0.6522  0.0188 -1.2289
 8045TIP3    H245627   5.999   1.574  17.339 -2.3461 -1.0121  2.2229
 8046TIP3   OH245628   1.838   1.555  13.238 -0.6351  0.6261 -0.1704
 8046TIP3    H145629   1.814   1.580  13.149 -1.0594 -2.7497 -1.0855
 8046TIP3    H245630   1.922   1.598  13.253 -0.5346  1.2114 -2.2144
 8047TIP3   OH245631   2.261   1.551  14.843  0.5079 -0.6809  0.4508
 8047TIP3    H145632   2.193   1.527  14.906 -0.5518 -0.4953 -0.6031
 8047TIP3    H245633   2.216   1.555  14.759  1.4223  1.4231  0.0362
 8048TIP3   OH245634   2.494   6.435   6.297  0.8207 -0.3440  0.0521
 8048TIP3    H145635   2.480   6.504   6.361  0.6857  0.3067 -0.6674
 8048TIP3    H245636   2.410   6.390   6.292  0.8728 -0.4853  0.4324
 8049TIP3   OH245637   1.032   0.724  14.671  0.2954 -0.1371 -0.0347
 8049TIP3    H145638   1.078   0.706  14.753 -0.2594 -1.0884  0.0744
 8049TIP3    H245639   1.065   0.657  14.611 -0.1955 -0.1909 -0.2448
 8050TIP3   OH245640   4.613   2.055   5.631 -0.6946  0.0350 -0.2269
 8050TIP3    H145641   4.671   1.979   5.636  0.0080  0.5008 -1.1094
 8050TIP3    H245642   4.595   2.078   5.722  0.4511 -0.1479  0.0528
 8051TIP3   OH245643   1.631   0.521  15.291 -0.0251 -0.4202 -0.0341
 8051TIP3    H145644   1.570   0.450  15.272 -1.5653  0.7463  0.4228
 8051TIP3    H245645   1.692   0.485  15.356 -1.7222 -0.8397  1.3484
 8052TIP3   OH245646   6.300   0.621  11.596 -0.4469  0.1479  0.1410
 8052TIP3    H145647   6.354   0.607  11.674 -0.6101  0.5390  0.3330
 8052TIP3    H245648   6.348   0.686  11.545 -0.9110  0.7821  0.4973
 8053TIP3   OH245649   1.179   1.929   1.684  0.4837 -0.2188  0.5694
 8053TIP3    H145650   1.088   1.935   1.655  0.4752 -0.0047  0.6404
 8053TIP3    H245651   1.173   1.897   1.774  0.4423  0.5424  0.8401
 8054TIP3   OH245652   2.738   0.200   1.769 -1.0872 -0.3436 -0.1162
 8054TIP3    H145653   2.796   0.174   1.696 -1.1784 -1.7428  0.2934
 8054TIP3    H245654   2.748   0.129   1.833 -1.7774  0.3863  0.8018
 8055TIP3   OH245655   6.426   0.959  16.445 -0.4094 -0.0665  0.2068
 8055TIP3    H145656   6.507   0.991  16.403 -0.8010  0.8368  0.1190
 8055TIP3    H245657   6.415   0.870  16.412 -0.7376  0.6448 -1.6689
 8056TIP3   OH245658   3.922   6.075   4.509 -0.7444  0.0339  0.1386
 8056TIP3    H145659   3.914   6.005   4.574  1.4253 -1.0456 -0.6874
 8056TIP3    H245660   3.931   6.155   4.560 -0.0196 -0.6953  1.1746
 8057TIP3   OH245661   1.449   2.325   4.392  0.3266  0.1467  0.5287
 8057TIP3    H145662   1.354   2.331   4.389  0.3771  1.0580  0.6788
 8057TIP3    H245663   1.470   2.249   4.338 -0.4839 -0.0511  0.4889
 8058TIP3   OH245664   5.667   5.412  12.254  0.1832 -0.1481  0.2839
 8058TIP3    H145665   5.583   5.449  12.231  0.6325  1.0513  0.5387
 8058TIP3    H245666   5.658   5.385  12.345 -0.0459 -0.3620  0.1951
 8059TIP3   OH245667   2.692   1.646  14.860  0.2405  0.4077 -0.3656
 8059TIP3    H145668   2.759   1.585  14.890 -1.8573 -1.2862  1.0750
 8059TIP3    H245669   2.675   1.620  14.770 -1.6954 -2.2099  0.6906
 8060TIP3   OH245670   2.794   2.230   3.419  0.0297 -0.0964  0.2538
 8060TIP3    H145671   2.866   2.189   3.466 -0.8221 -1.3405  0.4802
 8060TIP3    H245672   2.785   2.178   3.339  1.7454  2.2501 -1.5233
 8061TIP3   OH245673   3.560   0.822   2.916 -0.1768  0.3723 -0.0864
 8061TIP3    H145674   3.518   0.854   2.836 -1.0663  0.3627  0.3775
 8061TIP3    H245675   3.630   0.885   2.932  0.3330  0.0884 -1.1554
 8062TIP3   OH245676   2.750   5.317   3.104 -0.3977 -0.0728 -0.5413
 8062TIP3    H145677   2.671   5.305   3.157  0.0080  0.5440  0.2165
 8062TIP3    H245678   2.747   5.246   3.040 -1.9602  0.3984 -1.0156
 8063TIP3   OH245679   6.761   2.347  12.492  0.1821  0.5339 -0.7632
 8063TIP3    H145680   6.840   2.292  12.485  0.4422  0.6615  1.0419
 8063TIP3    H245681   6.788   2.421  12.547 -0.9959  0.9664 -0.7550
 8064TIP3   OH245682   6.630   3.522   0.293  0.0258 -0.0509  0.3252
 8064TIP3    H145683   6.547   3.475   0.298  1.2503 -2.4073 -0.8695
 8064TIP3    H245684   6.636   3.551   0.202  0.7076 -0.2639  0.2971
 8065TIP3   OH245685   1.320   6.657   1.243  0.2680 -0.0006  0.1926
 8065TIP3    H145686   1.235   6.659   1.286 -0.0683  0.2449 -0.4761
 8065TIP3    H245687   1.382   6.633   1.312 -0.3361 -0.1254  0.6899
 8066TIP3   OH245688   4.127   5.236   5.922  0.1014  0.3156  0.1211
 8066TIP3    H145689   4.088   5.323   5.931  0.6602  0.4870  1.0047
 8066TIP3    H245690   4.211   5.252   5.879 -0.0783  0.1305 -0.3066
 8067TIP3   OH245691   2.487   4.558  11.274 -0.0184  0.0512 -0.1018
 8067TIP3    H145692   2.507   4.588  11.186  0.4485  1.7048  0.5575
 8067TIP3    H245693   2.420   4.618  11.305 -1.4471 -1.5776  0.0531
 8068TIP3   OH245694   0.086   3.565   0.743  0.0419 -0.2843 -0.1211
 8068TIP3    H145695  -0.003   3.583   0.711  0.2053 -0.2860 -0.5737
 8068TIP3    H245696   0.132   3.649   0.734 -0.0347 -0.1758  0.5057
 8069TIP3   OH245697   0.275   2.311   2.337 -0.1381  0.4064  0.1032
 8069TIP3    H145698   0.331   2.264   2.398 -0.0515  1.8072  1.1164
 8069TIP3    H245699   0.207   2.247   2.313  0.7305 -0.6462  0.4216
 8070TIP3   OH245700   1.528   6.117  10.880 -0.3609 -0.4369 -0.2986
 8070TIP3    H145701   1.444   6.132  10.838 -2.2961 -2.0699  2.7753
 8070TIP3    H245702   1.535   6.021  10.888  2.0325 -0.3601 -0.9385
 8071TIP3   OH245703   6.316   5.052  13.578  0.3632  0.3146  0.3285
 8071TIP3    H145704   6.253   4.994  13.535  1.2041  0.5248 -1.2023
 8071TIP3    H245705   6.398   5.004  13.577  0.5020  0.5222  1.2877
 8072TIP3   OH245706   3.566   4.637  13.976 -0.0849  0.3645  0.5655
 8072TIP3    H145707   3.492   4.658  13.920 -0.2358  1.3334  1.1226
 8072TIP3    H245708   3.528   4.618  14.061  0.2721  0.3386  0.7221
 8073TIP3   OH245709   0.493   1.182   6.412 -0.6781  0.2158 -0.5438
 8073TIP3    H145710   0.518   1.246   6.478  0.4585  0.2013 -0.9489
 8073TIP3    H245711   0.427   1.227   6.359  0.4562  1.2390 -1.1173
 8074TIP3   OH245712   1.420   1.380   6.421  0.6563 -0.3264 -0.2203
 8074TIP3    H145713   1.411   1.464   6.465  0.1868  0.7149 -2.2417
 8074TIP3    H245714   1.503   1.386   6.374  0.7660 -1.1027 -0.1290
 8075TIP3   OH245715   4.178   5.505  11.021  0.7267  0.0494  0.1995
 8075TIP3    H145716   4.189   5.599  11.007  0.8040  0.3983  2.4593
 8075TIP3    H245717   4.262   5.467  10.995  1.3808  0.8334  1.1399
 8076TIP3   OH245718   5.707   3.958   4.500 -0.1500  0.1668 -0.1551
 8076TIP3    H145719   5.791   3.947   4.545 -0.6023  0.8493  0.8578
 8076TIP3    H245720   5.731   3.979   4.410  0.7615  0.2006  0.0923
 8077TIP3   OH245721   2.771   3.593  12.643 -0.5149 -0.4441 -0.0362
 8077TIP3    H145722   2.764   3.582  12.548 -0.8355  0.4421 -0.1284
 8077TIP3    H245723   2.680   3.603  12.672 -0.3398  0.7239  0.1606
 8078TIP3   OH245724   6.795   3.461   3.279 -0.5756  0.1192  0.0985
 8078TIP3    H145725   6.752   3.543   3.256 -0.9409 -0.0819  0.0521
 8078TIP3    H245726   6.796   3.410   3.198  0.0043  0.2348  0.0350
 8079TIP3   OH245727   1.153   3.358   2.804 -0.4672  0.8431 -0.1747
 8079TIP3    H145728   1.147   3.431   2.865 -1.4846 -0.8159  1.7673
 8079TIP3    H245729   1.073   3.307   2.819  1.1824 -1.7812 -0.0184
 8080TIP3   OH245730   6.486   2.432  16.560  0.2779 -0.0266  0.2745
 8080TIP3    H145731   6.537   2.480  16.495  1.2801 -0.5760  0.6499
 8080TIP3    H245732   6.462   2.498  16.625  0.7552  0.1795  0.2449
 8081TIP3   OH245733   5.232   5.706   3.906  0.0206 -0.5118 -0.5480
 8081TIP3    H145734   5.207   5.734   3.994  0.3232  1.2164 -1.0012
 8081TIP3    H245735   5.212   5.612   3.904  2.3158 -1.1206  2.1622
 8082TIP3   OH245736   5.392   4.562  13.137  0.7289 -0.1748  0.5599
 8082TIP3    H145737   5.325   4.500  13.107  0.2147  0.2437  0.8365
 8082TIP3    H245738   5.394   4.551  13.232  1.6739 -0.8111  0.4691
 8083TIP3   OH245739   6.581   1.802  13.463 -0.0830 -0.0510  1.0600
 8083TIP3    H145740   6.575   1.869  13.396 -1.9097  0.7799  2.0302
 8083TIP3    H245741   6.559   1.720  13.417 -0.8138  0.4390  0.5283
 8084TIP3   OH245742   4.789   4.154  13.846  0.0348  0.0587 -0.0320
 8084TIP3    H145743   4.865   4.188  13.800  1.1509 -0.7904  1.1699
 8084TIP3    H245744   4.800   4.184  13.937 -1.7953  1.1590 -0.1519
 8085TIP3   OH245745   3.319   5.969   2.730  0.1370 -0.4164  0.1255
 8085TIP3    H145746   3.244   6.028   2.742  0.0091 -0.4686 -0.3741
 8085TIP3    H245747   3.370   5.978   2.810 -0.5469 -0.5846  0.5854
 8086TIP3   OH245748   3.329   0.609   3.739 -0.0330 -0.3389  0.7787
 8086TIP3    H145749   3.350   0.641   3.828 -3.5210  0.5513  1.3392
 8086TIP3    H245750   3.302   0.688   3.692  0.5633 -1.0267 -0.7217
 8087TIP3   OH245751   4.909   1.604  11.667  0.3135 -0.0579 -0.1815
 8087TIP3    H145752   4.864   1.682  11.636 -0.2791  0.1925  1.2941
 8087TIP3    H245753   4.845   1.558  11.721  0.8718 -1.2247 -0.4722
 8088TIP3   OH245754   6.411   4.172  12.623  0.1030  0.6244  0.0909
 8088TIP3    H145755   6.359   4.099  12.655  1.5540 -1.4681 -2.1837
 8088TIP3    H245756   6.480   4.183  12.689 -0.3849  0.2642  0.6643
 8089TIP3   OH245757   5.736   1.406  15.625  0.6317  0.3294 -0.5883
 8089TIP3    H145758   5.761   1.467  15.555 -0.2707 -2.6330 -3.6422
 8089TIP3    H245759   5.796   1.332  15.614 -0.1136 -0.5658  1.2557
 8090TIP3   OH245760   4.198   5.888   1.407  0.1207 -0.7671 -0.1114
 8090TIP3    H145761   4.177   5.962   1.350 -0.2815 -0.0473  0.9655
 8090TIP3    H245762   4.292   5.875   1.396  0.1499 -0.2432 -0.4735
 8091TIP3   OH245763   6.399   4.323   1.164 -0.2634 -0.1434 -0.2101
 8091TIP3    H145764   6.438   4.318   1.076  1.4623 -1.6062  0.6012
 8091TIP3    H245765   6.325   4.263   1.160 -0.8483  0.6282 -0.9922
 8092TIP3   OH245766   6.576   3.464  13.738 -0.1188  0.1633  0.0732
 8092TIP3    H145767   6.623   3.495  13.660  0.5356 -1.5617 -0.2373
 8092TIP3    H245768   6.630   3.492  13.811  1.1572 -1.3457 -0.2628
 8093TIP3   OH245769   4.310   3.297  12.631  0.0936  0.1973  0.2794
 8093TIP3    H145770   4.377   3.364  12.617 -1.0190  1.3489  0.3330
 8093TIP3    H245771   4.357   3.214  12.625  1.1152  0.9000 -2.1295
 8094TIP3   OH245772   2.687   4.240   6.105  0.1198  0.2071 -0.1556
 8094TIP3    H145773   2.762   4.201   6.060  0.3067  0.2139  0.1479
 8094TIP3    H245774   2.720   4.321   6.142  0.5361 -0.8456  1.8187
 8095TIP3   OH245775   2.694   4.638   0.206  0.5241  0.8635  0.4770
 8095TIP3    H145776   2.605   4.641   0.239  0.4396  2.0456  0.1609
 8095TIP3    H245777   2.748   4.618   0.282  0.0644  0.8430  0.7972
 8096TIP3   OH245778   2.056   6.608   4.639  0.4194  0.0827 -0.4525
 8096TIP3    H145779   2.045   6.584   4.731 -2.4671 -0.7669 -0.9486
 8096TIP3    H245780   2.074   6.526   4.594  1.7424  0.4839 -0.6886
 8097TIP3   OH245781   0.674   1.919   5.552  0.0834 -0.2551  0.4085
 8097TIP3    H145782   0.760   1.892   5.518  0.8940  1.9024  0.6431
 8097TIP3    H245783   0.615   1.912   5.477  0.6569 -0.8476  0.0045
 8098TIP3   OH245784   1.068   0.243  12.727 -0.2591  0.2589 -0.6134
 8098TIP3    H145785   1.104   0.327  12.754  0.2484 -0.3514  0.6648
 8098TIP3    H245786   1.107   0.227  12.641 -0.0383  1.1316 -0.6839
 8099TIP3   OH245787   4.530   5.871   4.311  0.7099  0.3067  0.0621
 8099TIP3    H145788   4.617   5.890   4.345 -0.0354  0.5881  1.8546
 8099TIP3    H245789   4.502   5.792   4.358  0.4550 -0.4440 -1.3315
 8100TIP3   OH245790   1.067   5.867  15.430 -0.2883 -0.0487 -0.3372
 8100TIP3    H145791   1.095   5.900  15.515  0.8992 -0.6153 -0.5064
 8100TIP3    H245792   1.109   5.924  15.366 -0.1075 -0.4481 -0.5759
 8101TIP3   OH245793   3.510   3.218   3.222 -0.5998  0.5605 -0.3165
 8101TIP3    H145794   3.457   3.270   3.162 -0.3934 -0.0017 -0.9906
 8101TIP3    H245795   3.529   3.138   3.174 -2.3607 -0.9013  1.3530
 8102TIP3   OH245796   4.680   6.124   4.803  0.3124 -0.2207  0.0768
 8102TIP3    H145797   4.770   6.131   4.837  0.3771 -1.4568  0.1764
 8102TIP3    H245798   4.675   6.036   4.766 -0.9405 -0.2537  0.3001
 8103TIP3   OH245799   3.699   0.076  14.520 -0.2961 -0.2296 -0.2714
 8103TIP3    H145800   3.702  -0.012  14.482 -0.2966 -0.1046 -0.5689
 8103TIP3    H245801   3.703   0.134  14.444  1.3415  0.0531  0.0188
 8104TIP3   OH245802   6.405   4.323   6.644 -0.0803  0.1180 -0.3968
 8104TIP3    H145803   6.353   4.255   6.601  1.3460 -0.4853 -1.1761
 8104TIP3    H245804   6.431   4.284   6.728  1.6511 -0.7284 -1.3056
 8105TIP3   OH245805   2.764   4.147  11.050 -0.0992 -0.0130  0.4178
 8105TIP3    H145806   2.827   4.214  11.079  1.3121 -0.7004 -0.9543
 8105TIP3    H245807   2.780   4.138  10.956 -1.5705 -0.9353  0.2367
 8106TIP3   OH245808   0.756   4.940  11.614 -0.4830  0.0492 -0.3764
 8106TIP3    H145809   0.847   4.936  11.643 -0.1576  0.5253 -1.2843
 8106TIP3    H245810   0.754   5.015  11.554 -0.8865 -1.5070 -2.3586
 8107TIP3   OH245811   3.688   3.792  14.561 -0.4823  0.4096  0.6404
 8107TIP3    H145812   3.718   3.756  14.645  1.8391 -0.9881 -0.7102
 8107TIP3    H245813   3.739   3.872  14.550 -0.0558  0.0702  0.1220
 8108TIP3   OH245814   2.205   1.191   2.134  0.1631  0.5313  0.1522
 8108TIP3    H145815   2.147   1.198   2.210  0.5879  1.1443  0.4230
 8108TIP3    H245816   2.288   1.228   2.164  0.7879 -0.5907 -0.1401
 8109TIP3   OH245817   3.471   4.447   2.744 -0.3107  0.4039 -0.3362
 8109TIP3    H145818   3.501   4.516   2.803  0.6060  0.2908 -0.6628
 8109TIP3    H245819   3.534   4.376   2.756  0.3356  0.6770 -2.0158
 8110TIP3   OH245820   1.455   5.142   3.943 -0.1301 -0.2988 -0.2806
 8110TIP3    H145821   1.425   5.233   3.934  2.2310  0.4771 -0.6526
 8110TIP3    H245822   1.439   5.103   3.857  1.0879  0.4762 -0.8678
 8111TIP3   OH245823   0.749   4.758  17.049  0.0421  0.7590 -0.6317
 8111TIP3    H145824   0.746   4.760  17.145  1.9965  0.5117 -0.5537
 8111TIP3    H245825   0.824   4.703  17.028 -2.4204 -2.0552 -2.3558
 8112TIP3   OH245826   4.622   5.680  13.297  0.5249 -0.3592 -0.3506
 8112TIP3    H145827   4.600   5.593  13.328 -2.3085  0.6523  0.6403
 8112TIP3    H245828   4.613   5.675  13.202  0.3738 -1.1437 -0.2979
 8113TIP3   OH245829   6.106   6.355  14.356 -0.1331 -0.0399  0.1259
 8113TIP3    H145830   6.148   6.287  14.302 -1.5621  0.0646 -1.1580
 8113TIP3    H245831   6.025   6.313  14.387 -0.3503  0.6206  0.4418
 8114TIP3   OH245832   4.330   4.623   0.237 -0.2243  0.7694 -0.5691
 8114TIP3    H145833   4.358   4.714   0.235  2.2009  0.0463 -1.2660
 8114TIP3    H245834   4.400   4.575   0.191 -0.7904 -1.5987  0.9211
 8115TIP3   OH245835   6.764   4.979   4.248  0.2297 -0.0607  0.3621
 8115TIP3    H145836   6.857   4.985   4.270  0.2050  1.3382  0.1434
 8115TIP3    H245837   6.762   4.923   4.170  0.9545  0.4678 -0.0434
 8116TIP3   OH245838   5.246   3.203   0.215  0.9211 -0.1097  0.5620
 8116TIP3    H145839   5.201   3.142   0.273 -1.1226  0.9144  0.0696
 8116TIP3    H245840   5.280   3.148   0.144  1.7821 -1.0941  1.7166
 8117TIP3   OH245841   5.729   4.092  12.338 -0.2245  0.3348  0.5157
 8117TIP3    H145842   5.813   4.122  12.302 -0.1192  0.4578  0.8672
 8117TIP3    H245843   5.664   4.122  12.274 -0.2231  2.2013  1.3625
 8118TIP3   OH245844   1.286   6.314  14.034  0.2055  0.3553  0.1408
 8118TIP3    H145845   1.291   6.336  13.941 -1.2235  0.5181  0.0828
 8118TIP3    H245846   1.338   6.235  14.043 -0.6306 -0.3570 -1.0493
 8119TIP3   OH245847   5.971   6.337  13.278 -0.1877  0.3506 -0.5001
 8119TIP3    H145848   5.886   6.381  13.281  0.2230  1.0977  0.8544
 8119TIP3    H245849   6.009   6.364  13.195 -1.1064  0.3415 -0.9292
 8120TIP3   OH245850   2.584   1.981   1.948  0.1524 -0.0896  0.1315
 8120TIP3    H145851   2.496   1.961   1.979  0.4694 -2.0608 -0.1774
 8120TIP3    H245852   2.608   1.907   1.892  1.7429  0.7520 -0.3599
 8121TIP3   OH245853   5.953   4.563  12.957  0.4397  0.3460  0.2401
 8121TIP3    H145854   6.035   4.529  12.993  0.8120  0.4659 -0.4859
 8121TIP3    H245855   5.921   4.624  13.023  1.2544  0.7664  0.2519
 8122TIP3   OH245856   2.685   5.131  15.895 -0.2625  0.2278 -0.2991
 8122TIP3    H145857   2.626   5.188  15.944  1.2571 -0.0982  2.0173
 8122TIP3    H245858   2.718   5.186  15.823  0.6180  2.0819  1.4726
 8123TIP3   OH245859   5.104   5.686  10.825 -0.9255  0.2540 -0.5363
 8123TIP3    H145860   5.121   5.595  10.802 -0.3138  0.3794 -0.5757
 8123TIP3    H245861   5.190   5.724  10.840 -1.2002  0.7341 -0.1574
 8124TIP3   OH245862   4.958   1.978   5.670  0.6410 -0.5295  0.5369
 8124TIP3    H145863   4.888   1.921   5.639  1.7759 -0.9717 -1.2679
 8124TIP3    H245864   4.965   1.959   5.764 -2.5170  0.4696  1.0369
 8125TIP3   OH245865   6.693   2.871  15.475  0.1208  0.1764  0.0216
 8125TIP3    H145866   6.686   2.949  15.419 -0.8093 -1.4249 -2.1616
 8125TIP3    H245867   6.609   2.826  15.463  0.3919 -0.8480  1.7744
 8126TIP3   OH245868   2.320   0.281   2.539  0.8981  0.1812  0.1010
 8126TIP3    H145869   2.308   0.206   2.481 -0.4462  1.7086 -1.6454
 8126TIP3    H245870   2.235   0.291   2.583  1.0669  0.7043  0.3143
 8127TIP3   OH245871   6.403   2.554  12.629  0.1981 -0.0964  0.1136
 8127TIP3    H145872   6.441   2.638  12.607 -0.1548 -0.0706 -0.4133
 8127TIP3    H245873   6.309   2.564  12.610  0.5107 -1.3951 -2.4670
 8128TIP3   OH245874   3.264   6.607   1.259  0.3235 -0.4109  0.0639
 8128TIP3    H145875   3.173   6.579   1.249  0.5530 -0.7890 -0.9811
 8128TIP3    H245876   3.290   6.637   1.172  0.8390  0.8076  0.6287
 8129TIP3   OH245877   0.224   5.621  14.541 -0.0216  0.5365 -0.1043
 8129TIP3    H145878   0.139   5.665  14.552 -0.0614  0.7375 -1.1293
 8129TIP3    H245879   0.279   5.656  14.611 -1.2759 -0.8416  1.6072
 8130TIP3   OH245880   1.850   1.465   5.562 -0.2092  0.1772 -0.2007
 8130TIP3    H145881   1.905   1.395   5.527  0.1087 -0.4049  1.4241
 8130TIP3    H245882   1.894   1.546   5.535  0.9679 -0.2744  0.3333
 8131TIP3   OH245883   0.618   5.711  14.486  0.0257 -0.3278  0.1404
 8131TIP3    H145884   0.553   5.714  14.415  0.4828 -1.6043 -0.3463
 8131TIP3    H245885   0.585   5.773  14.551 -0.3976  0.8663 -1.1952
 8132TIP3   OH245886   4.032   6.442  16.449  0.1169 -0.0288 -0.2372
 8132TIP3    H145887   4.047   6.348  16.440  1.1406  0.1299 -0.2011
 8132TIP3    H245888   3.947   6.448  16.492 -0.1750 -0.9294 -0.6655
 8133TIP3   OH245889   4.173   0.464   5.194  0.1565  0.0187  0.1477
 8133TIP3    H145890   4.146   0.500   5.110  1.1361 -0.0470 -0.2074
 8133TIP3    H245891   4.172   0.369   5.181 -2.3336 -0.1055  1.0522
 8134TIP3   OH245892   4.564   5.191   5.655  0.4151  0.8092 -0.1603
 8134TIP3    H145893   4.600   5.118   5.705  1.1756  1.6215  0.4949
 8134TIP3    H245894   4.547   5.259   5.720  0.3454  1.4581 -0.8522
 8135TIP3   OH245895   0.791   1.542   3.493  0.0096 -0.3899 -0.1920
 8135TIP3    H145896   0.776   1.449   3.508 -0.9362 -0.2173 -0.0826
 8135TIP3    H245897   0.707   1.576   3.461  0.3156  0.4505 -0.1160
 8136TIP3   OH245898   3.767   0.282  14.965 -0.1122  0.4231  0.1267
 8136TIP3    H145899   3.682   0.323  14.986 -0.8069 -1.7615  1.7722
 8136TIP3    H245900   3.746   0.215  14.900  0.3612 -0.0864  0.4950
 8137TIP3   OH245901   2.922   5.449  14.332  0.0851  0.1623 -0.0295
 8137TIP3    H145902   2.839   5.439  14.285  0.6472 -0.3313 -0.9245
 8137TIP3    H245903   2.900   5.426  14.423 -0.5355 -0.9910 -0.4549
 8138TIP3   OH245904   0.171   0.958  14.152 -0.3506 -0.0896 -0.2348
 8138TIP3    H145905   0.246   0.924  14.201 -0.5042  0.6196  0.5073
 8138TIP3    H245906   0.205   0.973  14.064  0.3369  0.0664  0.0527
 8139TIP3   OH245907   5.639   0.112  13.760 -0.9323 -0.1937 -0.6993
 8139TIP3    H145908   5.619   0.126  13.852  0.8693  0.3528 -0.3778
 8139TIP3    H245909   5.656   0.199  13.725  0.9065 -0.6254 -0.9342
 8140TIP3   OH245910   6.642   2.986  13.317 -0.0258  0.1160 -0.3468
 8140TIP3    H145911   6.606   2.915  13.370 -0.9775 -0.6474 -1.9913
 8140TIP3    H245912   6.732   2.959  13.299 -0.6016 -1.0654 -1.5870
 8141TIP3   OH245913   2.358   2.597   5.100 -0.0607  0.1128 -0.0876
 8141TIP3    H145914   2.402   2.666   5.150 -0.8989  0.7935 -0.2642
 8141TIP3    H245915   2.281   2.576   5.153 -0.0925 -0.3026 -0.3048
 8142TIP3   OH245916   4.641   5.088   5.885  0.4868  0.1790  0.1625
 8142TIP3    H145917   4.581   5.078   5.959  0.3242  0.6081  0.0927
 8142TIP3    H245918   4.695   5.164   5.909  1.6722 -0.8102  0.6812
 8143TIP3   OH245919   3.110   2.728   1.481  0.0842  0.6116  0.2818
 8143TIP3    H145920   3.047   2.786   1.439 -0.3451  1.0035  1.4397
 8143TIP3    H245921   3.174   2.788   1.521  0.3246  0.2544  0.4353
 8144TIP3   OH245922   3.313   0.124  12.707 -0.1190  0.0351 -0.2258
 8144TIP3    H145923   3.325   0.035  12.674 -1.0021  0.1910 -1.0123
 8144TIP3    H245924   3.334   0.180  12.632  0.9822  0.5150  0.4288
 8145TIP3   OH245925   2.110   6.603   5.824 -0.3194  0.3990 -0.3892
 8145TIP3    H145926   2.128   6.623   5.915  0.3495 -0.0673 -0.4196
 8145TIP3    H245927   2.195   6.607   5.781 -0.2481 -1.8809 -0.5144
 8146TIP3   OH245928   6.388   5.507   3.660  0.4730  0.4921 -0.0951
 8146TIP3    H145929   6.399   5.511   3.565 -1.2765  0.9691 -0.2899
 8146TIP3    H245930   6.337   5.428   3.675  0.1586  0.7906  0.3954
 8147TIP3   OH245931   2.151   0.463   4.138 -0.2412  0.2686  0.5758
 8147TIP3    H145932   2.129   0.533   4.199 -0.9340 -0.1229  0.7774
 8147TIP3    H245933   2.168   0.387   4.193 -1.4089 -0.2310  0.2676
 8148TIP3   OH245934   5.138   5.595   0.142 -0.7321 -0.2305  0.5925
 8148TIP3    H145935   5.152   5.688   0.157 -2.7542  0.3021 -0.6412
 8148TIP3    H245936   5.045   5.587   0.121 -0.5074 -2.4653  0.2421
 8149TIP3   OH245937   6.242   6.573   2.398 -0.1224 -0.1986  0.3102
 8149TIP3    H145938   6.152   6.541   2.409  0.3500 -1.6135  0.1079
 8149TIP3    H245939   6.244   6.610   2.310 -0.8835  1.1286  0.8312
 8150TIP3   OH245940   2.791   3.869   0.490 -0.1522 -0.4297 -0.2628
 8150TIP3    H145941   2.699   3.847   0.507  0.0180  0.3841  1.8372
 8150TIP3    H245942   2.790   3.965   0.479  0.6449 -0.2246  1.2992
 8151TIP3   OH245943   4.814   5.792   3.866  0.4241 -0.2820  0.3174
 8151TIP3    H145944   4.763   5.742   3.804  1.0582  2.3345 -2.4293
 8151TIP3    H245945   4.765   5.873   3.878  2.0282  0.6784  0.5568
 8152TIP3   OH245946   6.731   4.386  13.429 -0.2838  0.3930 -0.0512
 8152TIP3    H145947   6.775   4.353  13.351 -0.9627  0.5423 -0.5051
 8152TIP3    H245948   6.746   4.319  13.496  3.5195  1.9936  0.8172
 8153TIP3   OH245949   2.552   2.337   3.094 -0.1527 -0.3919 -0.7183
 8153TIP3    H145950   2.509   2.422   3.084  2.7891  1.5814  2.1393
 8153TIP3    H245951   2.493   2.287   3.152  0.0801  1.3053  1.0364
 8154TIP3   OH245952   1.074   0.359  14.208  0.0746 -0.0892 -0.1772
 8154TIP3    H145953   1.123   0.276  14.210 -1.2809 -0.9133 -0.4744
 8154TIP3    H245954   0.984   0.334  14.228 -0.3284  1.3449 -0.1387
 8155TIP3   OH245955   6.242   1.842   4.584 -0.4004  0.1042  0.1763
 8155TIP3    H145956   6.306   1.890   4.531  1.2498 -0.4487  1.6252
 8155TIP3    H245957   6.229   1.896   4.662  0.9666 -1.4086  1.5103
 8156TIP3   OH245958   3.775   2.597  11.174  0.3781  0.3317 -0.2300
 8156TIP3    H145959   3.869   2.606  11.157  0.2053 -0.2367 -1.5619
 8156TIP3    H245960   3.740   2.562  11.092 -0.9953  0.5422  0.2674
 8157TIP3   OH245961   5.666   2.749  12.934 -0.1424 -0.2949 -0.2177
 8157TIP3    H145962   5.727   2.749  13.008  0.7353  0.2649 -0.9245
 8157TIP3    H245963   5.663   2.658  12.906  0.2175 -0.3618 -0.0466
 8158TIP3   OH245964   2.797   5.701  14.550  0.3362 -0.3191 -0.1679
 8158TIP3    H145965   2.841   5.756  14.615  1.4658  0.2506 -1.3727
 8158TIP3    H245966   2.830   5.613  14.568  0.7616 -0.1423 -0.0569
 8159TIP3   OH245967   2.843   2.742   1.737 -0.2054  0.0138  0.3056
 8159TIP3    H145968   2.826   2.649   1.720 -0.4161 -0.0164  0.6744
 8159TIP3    H245969   2.809   2.787   1.660  1.2904 -0.3348 -0.5786
 8160TIP3   OH245970   3.227   6.174  14.922  0.5683  0.1147  0.2644
 8160TIP3    H145971   3.273   6.094  14.895 -0.4454 -0.3848 -0.0176
 8160TIP3    H245972   3.264   6.242  14.865 -0.2071 -0.5869 -1.1051
 8161TIP3   OH245973   2.629   6.644   0.209  0.3739  0.3000 -0.1395
 8161TIP3    H145974   2.655   6.605   0.125 -0.8439 -0.0069 -0.3814
 8161TIP3    H245975   2.581   6.723   0.185  2.4852  1.7725  0.3491
 8162TIP3   OH245976   4.570   2.312   0.319  1.0292 -0.1508  0.3578
 8162TIP3    H145977   4.652   2.357   0.302 -0.1184  1.2682 -1.5362
 8162TIP3    H245978   4.582   2.225   0.280  0.8976  0.7644 -1.7888
 8163TIP3   OH245979   1.159   1.169   2.759  0.3563 -0.0636  0.2733
 8163TIP3    H145980   1.092   1.167   2.827  0.0424 -0.9276 -0.0506
 8163TIP3    H245981   1.193   1.079   2.757  1.3786  0.3138  0.2915
 8164TIP3   OH245982   3.724   1.010   0.839 -0.1768 -0.1932 -0.8055
 8164TIP3    H145983   3.698   0.933   0.890 -0.9566 -0.6141 -1.8172
 8164TIP3    H245984   3.652   1.022   0.777 -0.1570  1.4844 -0.5215
 8165TIP3   OH245985   6.082   4.545  11.973  0.5852 -0.1111 -0.0607
 8165TIP3    H145986   6.046   4.497  11.899  0.4726  0.6255 -0.4885
 8165TIP3    H245987   6.177   4.546  11.958  0.5161  0.5006 -0.4818
 8166TIP3   OH245988   5.073   0.221  16.699 -0.3085 -0.0638  0.0204
 8166TIP3    H145989   5.079   0.128  16.680  2.3871  0.3915 -1.5509
 8166TIP3    H245990   5.160   0.256  16.681 -0.8431  2.5189  2.0290
 8167TIP3   OH245991   0.830   3.318   5.997 -0.2920 -0.3577  0.4007
 8167TIP3    H145992   0.924   3.316   6.016 -0.0656 -0.7383 -0.7435
 8167TIP3    H245993   0.798   3.393   6.048  0.6528 -0.1134  0.6614
 8168TIP3   OH245994   2.749   0.882   0.837  0.1246 -0.1240  0.1411
 8168TIP3    H145995   2.829   0.860   0.790 -0.2546  0.1559 -0.6333
 8168TIP3    H245996   2.713   0.958   0.792  0.9861  1.6259  2.3113
 8169TIP3   OH245997   2.197   3.779  10.533  0.4310  0.4403  0.0960
 8169TIP3    H145998   2.266   3.719  10.506  0.8131  0.9786 -0.1333
 8169TIP3    H245999   2.162   3.815  10.451 -1.7462 -1.6042  0.0587
 8170TIP3   OH246000   2.392   0.449  14.531 -0.2867  0.0080  0.1227
 8170TIP3    H146001   2.409   0.484  14.444 -0.7973  0.0223  0.0238
 8170TIP3    H246002   2.361   0.524  14.582  0.0667  0.0125  0.3306
 8171TIP3   OH246003   6.479   3.725  13.716  0.1810 -0.1358  0.5309
 8171TIP3    H146004   6.418   3.730  13.643  0.2007  0.6093  0.5596
 8171TIP3    H246005   6.488   3.631  13.733 -1.3413 -0.2417  0.8523
 8172TIP3   OH246006   1.846   2.762   4.790  0.3677  0.5899  1.2095
 8172TIP3    H146007   1.929   2.769   4.741 -0.1449  0.6289  0.3387
 8172TIP3    H246008   1.873   2.752   4.881  1.3439  0.2883  0.8938
 8173TIP3   OH246009   2.954   4.782   4.087 -0.0962 -0.6514 -0.0387
 8173TIP3    H146010   2.931   4.873   4.105  3.0884  0.1063  0.5519
 8173TIP3    H246011   2.916   4.764   4.001 -1.9609  0.7796  0.4655
 8174TIP3   OH246012   3.208   0.220  16.653 -0.2106  0.6155 -0.0511
 8174TIP3    H146013   3.228   0.265  16.735 -1.6415  1.2035 -0.0083
 8174TIP3    H246014   3.113   0.208  16.654 -0.2524  0.6059 -1.5963
 8175TIP3   OH246015   0.276   4.646  11.058 -0.2842  0.1332  0.3389
 8175TIP3    H146016   0.247   4.704  11.129  1.2648  0.0511  1.0642
 8175TIP3    H246017   0.238   4.684  10.979  0.9589  2.3483  0.7609
 8176TIP3   OH246018   4.797   1.782   1.106 -0.5076 -1.0055 -0.0779
 8176TIP3    H146019   4.857   1.855   1.091 -0.1131 -1.6666 -1.8295
 8176TIP3    H246020   4.723   1.799   1.048 -1.2851 -1.0232  0.8979
 8177TIP3   OH246021   5.217   5.635  15.672 -0.2226 -0.1577  0.5512
 8177TIP3    H146022   5.291   5.691  15.648 -1.4157  1.6268  0.8423
 8177TIP3    H246023   5.152   5.697  15.707 -0.6947 -2.0223  3.0799
 8178TIP3   OH246024   5.315   5.701   2.651 -0.0462  0.1853  0.4745
 8178TIP3    H146025   5.333   5.671   2.562 -2.0357 -0.5274  0.2887
 8178TIP3    H246026   5.257   5.634   2.688  0.5159  0.6126  2.2241
 8179TIP3   OH246027   2.641   2.103  15.031 -0.3223 -0.1259 -0.6483
 8179TIP3    H146028   2.685   2.067  15.108 -2.3067 -0.8563  0.1875
 8179TIP3    H246029   2.625   2.195  15.053 -0.1330 -0.1206 -0.5312
 8180TIP3   OH246030   3.781   6.044  10.713  0.5855 -0.2019 -0.4325
 8180TIP3    H146031   3.724   6.100  10.661  0.0421 -0.2173  0.1286
 8180TIP3    H246032   3.870   6.075  10.695  0.1996  1.9111  1.0877
 8181TIP3   OH246033   4.609   6.795   3.497 -0.2750 -0.3264  0.7126
 8181TIP3    H146034   4.585   6.715   3.449 -0.3763  1.1554 -1.7410
 8181TIP3    H246035   4.527   6.822   3.539 -1.6059  1.4318 -2.8411
 8182TIP3   OH246036   2.816   4.127  13.806  0.7407 -0.3696 -0.6050
 8182TIP3    H146037   2.800   4.181  13.729  0.0307 -0.8981 -0.8363
 8182TIP3    H246038   2.909   4.138  13.825  0.8463  0.0126 -1.3463
 8183TIP3   OH246039   3.938   2.356  10.490 -0.1030  0.7499  0.0438
 8183TIP3    H146040   3.992   2.319  10.420 -0.4353  1.7838 -0.7830
 8183TIP3    H246041   3.983   2.437  10.513 -0.1670  0.5631  0.8079
 8184TIP3   OH246042   5.478   3.418   5.656  0.0474 -0.5131 -0.2880
 8184TIP3    H146043   5.514   3.499   5.621 -0.1880 -0.1755  0.2588
 8184TIP3    H246044   5.522   3.349   5.606  1.4667 -0.1075  0.3785
 8185TIP3   OH246045   6.357   2.542   4.113  0.3596 -0.2851  0.0956
 8185TIP3    H146046   6.432   2.508   4.161  2.1314 -1.1245 -3.0918
 8185TIP3    H246047   6.388   2.626   4.078 -0.4260 -0.2916 -0.6296
 8186TIP3   OH246048   2.617   1.337   0.391 -0.0635  0.7371 -0.2633
 8186TIP3    H146049   2.668   1.372   0.318  0.0916  0.1001 -0.4645
 8186TIP3    H246050   2.620   1.242   0.378 -1.1579  0.6886 -0.1860
 8187TIP3   OH246051   3.545   6.156  14.572  0.7661  0.1350 -0.0876
 8187TIP3    H146052   3.471   6.113  14.530  0.6772  1.8009 -1.7248
 8187TIP3    H246053   3.617   6.092  14.567  0.0799 -0.6028 -0.6097
 8188TIP3   OH246054   2.049   6.308  12.344  0.4894 -0.1639 -0.0334
 8188TIP3    H146055   2.044   6.217  12.372 -1.6919  0.1242  0.6416
 8188TIP3    H246056   2.033   6.306  12.250 -0.6556 -0.4103  0.1532
 8189TIP3   OH246057   3.179   3.535   2.962 -0.1086  0.1935 -0.0948
 8189TIP3    H146058   3.150   3.455   3.004  0.6521 -0.4804 -0.8358
 8189TIP3    H246059   3.231   3.506   2.887 -1.3812  1.3577 -1.4757
 8190TIP3   OH246060   5.475   0.756  14.575  0.2736 -0.3281 -0.0243
 8190TIP3    H146061   5.558   0.776  14.532  0.4018 -1.7980 -0.4796
 8190TIP3    H246062   5.439   0.842  14.598  1.1075  0.3976 -1.3506
 8191TIP3   OH246063   3.011   3.467   1.388  0.2114  0.1969 -0.4183
 8191TIP3    H146064   3.076   3.397   1.386 -0.3776 -0.3539 -0.5411
 8191TIP3    H246065   3.060   3.546   1.368  1.1265  0.0106  0.9763
 8192TIP3   OH246066   2.645   2.339  14.263  0.2513 -0.6185 -0.1266
 8192TIP3    H146067   2.667   2.402  14.331  1.4329  1.8540 -2.7137
 8192TIP3    H246068   2.559   2.367  14.231 -0.9621 -2.6361  1.2867
 8193TIP3   OH246069   6.321   0.574   5.120 -0.8747 -0.7515  0.6790
 8193TIP3    H146070   6.357   0.500   5.169 -0.0433 -0.3137  0.7533
 8193TIP3    H246071   6.262   0.535   5.055  0.6418 -1.5900 -0.2259
 8194TIP3   OH246072   3.769   4.359  14.926 -0.0615  0.0471 -0.4651
 8194TIP3    H146073   3.754   4.390  15.015  0.6387  1.9368 -0.9831
 8194TIP3    H246074   3.864   4.354  14.918 -0.1413 -1.9720 -0.5132
 8195TIP3   OH246075   0.458   3.418   2.262 -0.3504 -0.0588 -0.7787
 8195TIP3    H146076   0.455   3.344   2.201 -0.3346 -0.3922 -0.3819
 8195TIP3    H246077   0.409   3.387   2.339  1.5690 -0.5049  0.3053
 8196TIP3   OH246078   1.425   6.315   2.262 -0.4892  0.2531  0.2943
 8196TIP3    H146079   1.466   6.401   2.251  1.3331 -0.7741 -1.2412
 8196TIP3    H246080   1.337   6.335   2.293 -0.2565  2.7106 -0.4725
 8197TIP3   OH246081   2.691   3.440  15.496 -0.0275  0.5338 -0.4070
 8197TIP3    H146082   2.703   3.441  15.401  1.8471  0.5693 -0.1745
 8197TIP3    H246083   2.636   3.363  15.512  0.9954 -0.4215 -1.3859
 8198TIP3   OH246084   4.022   2.624   6.399  0.1707 -0.1306 -0.6684
 8198TIP3    H146085   4.022   2.684   6.473  0.6341 -1.5637  0.5273
 8198TIP3    H246086   4.109   2.585   6.398 -0.8068 -2.4319 -0.0094
 8199TIP3   OH246087   6.737   4.723   1.942 -0.2244 -0.6409 -0.3728
 8199TIP3    H146088   6.798   4.703   1.871  0.8031  1.4117 -0.1063
 8199TIP3    H246089   6.788   4.774   2.005 -2.0216  0.4748  0.2302
 8200TIP3   OH246090   0.042   6.124  17.165 -0.3093  0.2094 -0.4171
 8200TIP3    H146091   0.089   6.178  17.102 -0.6269  0.1444 -0.7095
 8200TIP3    H246092  -0.036   6.095  17.119 -0.4390 -0.0100 -0.0641
 8201TIP3   OH246093   4.650   3.584   2.423 -0.6380 -0.6240  0.1557
 8201TIP3    H146094   4.737   3.563   2.456 -0.5817 -0.5359  0.0590
 8201TIP3    H246095   4.607   3.630   2.496 -0.1013  0.6431 -0.3245
 8202TIP3   OH246096   1.638   4.116  15.706 -0.1411 -0.0759 -0.1042
 8202TIP3    H146097   1.575   4.074  15.765 -0.7799  0.2358 -0.5632
 8202TIP3    H246098   1.664   4.046  15.646 -0.8259  0.0479 -0.5546
 8203TIP3   OH246099   6.024   2.993   3.498 -0.0153  0.0548 -0.5706
 8203TIP3    H146100   5.999   2.916   3.549 -2.0343  0.4978 -0.8334
 8203TIP3    H246101   6.039   3.061   3.564 -1.9293  0.4337 -0.4873
 8204TIP3   OH246102   6.787   0.906  13.462  0.0596 -0.3702 -0.4228
 8204TIP3    H146103   6.774   0.816  13.492  2.6330 -0.6875 -0.1839
 8204TIP3    H246104   6.878   0.926  13.483 -0.2066  1.9695 -1.3364
 8205TIP3   OH246105   3.133   3.157   2.182  0.4875 -0.5982  0.5594
 8205TIP3    H146106   3.061   3.193   2.131  1.6269  2.1261  0.7603
 8205TIP3    H246107   3.093   3.125   2.262 -0.3013  2.9735  1.6891
 8206TIP3   OH246108   2.370   0.364  15.014 -0.0983  0.0043  0.0210
 8206TIP3    H146109   2.373   0.449  14.970 -0.1686 -0.4070 -0.7775
 8206TIP3    H246110   2.443   0.367  15.077  0.4192  0.3290 -0.5948
 8207TIP3   OH246111   4.780   5.775  16.953 -0.5116 -0.5914  0.0451
 8207TIP3    H146112   4.841   5.749  17.022 -3.1513  0.5861  2.9621
 8207TIP3    H246113   4.768   5.869  16.966 -0.1009 -0.1103 -2.8503
 8208TIP3   OH246114   1.694   0.186  11.386 -0.2539  0.0085 -0.8622
 8208TIP3    H146115   1.733   0.240  11.454  1.5360 -0.9757 -1.0660
 8208TIP3    H246116   1.606   0.167  11.417  0.6697 -0.7333  1.3644
 8209TIP3   OH246117   0.577   5.933  11.782  0.2784 -0.2293 -0.0648
 8209TIP3    H146118   0.497   5.952  11.733  0.8771  0.7758 -0.6606
 8209TIP3    H246119   0.565   5.979  11.865  0.3409  0.1319 -0.2528
 8210TIP3   OH246120   4.981   1.950   2.850  1.3510 -0.0787  0.0117
 8210TIP3    H146121   5.025   1.940   2.765  2.3782 -2.6427  0.7628
 8210TIP3    H246122   5.023   1.883   2.905  0.3622  1.2225  2.3893
 8211TIP3   OH246123   2.414   3.939   2.905  0.8441 -0.4180  0.3642
 8211TIP3    H146124   2.472   3.987   2.963 -0.4625 -0.5668  1.8293
 8211TIP3    H246125   2.345   4.002   2.881  1.1337 -0.4868 -0.6708
 8212TIP3   OH246126   0.947   0.962  11.558 -0.0630 -0.0275 -0.4990
 8212TIP3    H146127   0.983   1.005  11.481  1.5968  0.8502  0.7519
 8212TIP3    H246128   0.965   1.021  11.631 -0.7870 -1.2621  0.7275
 8213TIP3   OH246129   1.398   5.789  14.591  0.2275  0.2275 -0.0636
 8213TIP3    H146130   1.407   5.819  14.500  1.0967 -0.9376 -0.3761
 8213TIP3    H246131   1.307   5.759  14.597  0.4201 -0.5779 -0.8488
 8214TIP3   OH246132   1.212   2.197   1.719 -0.3910  0.6798 -0.1322
 8214TIP3    H146133   1.249   2.217   1.633 -0.9849 -1.3782 -0.8869
 8214TIP3    H246134   1.189   2.104   1.714 -0.5850  0.5936  2.1973
 8215TIP3   OH246135   2.477   1.764  10.750  0.0285  0.2682 -0.3864
 8215TIP3    H146136   2.515   1.709  10.818  0.5696 -0.0538 -0.9484
 8215TIP3    H246137   2.407   1.711  10.712 -0.6667  0.6761  0.3205
 8216TIP3   OH246138   5.164   5.045   1.785  0.5929 -0.3549 -0.4786
 8216TIP3    H146139   5.112   5.012   1.712 -0.0248  0.4009 -0.3900
 8216TIP3    H246140   5.100   5.089   1.842  1.3398  0.7559 -0.4722
 8217TIP3   OH246141   0.586   4.710  15.259 -0.3679 -0.1341 -0.0236
 8217TIP3    H146142   0.569   4.640  15.195 -1.8706 -0.5182  0.7688
 8217TIP3    H246143   0.516   4.774  15.243 -1.5592 -0.8651  2.1158
 8218TIP3   OH246144   6.040   2.957  11.687  0.3041  0.1524  0.5382
 8218TIP3    H146145   5.978   2.952  11.614  2.1145 -0.8258 -0.9924
 8218TIP3    H246146   6.100   3.028  11.662  1.5066 -0.8321  0.5775
 8219TIP3   OH246147   5.596   1.172   2.265  0.8847  0.5584 -0.1856
 8219TIP3    H146148   5.653   1.105   2.303  0.2288 -0.5086 -1.0542
 8219TIP3    H246149   5.547   1.126   2.197 -1.1665  1.3983  0.6770
 8220TIP3   OH246150   5.337   3.828   5.585 -0.3552 -0.0641 -0.7244
 8220TIP3    H146151   5.249   3.860   5.603  0.0202  1.5136 -1.5384
 8220TIP3    H246152   5.324   3.748   5.534 -1.3210 -1.4055  1.5730
 8221TIP3   OH246153   2.452   2.911  13.112 -0.0236 -0.2181  0.0098
 8221TIP3    H146154   2.430   2.911  13.205  0.6830 -3.0708  0.2427
 8221TIP3    H246155   2.528   2.968  13.106 -0.3481  0.3495  1.1270
 8222TIP3   OH246156   6.068   4.943   2.024 -0.0860  0.1908  0.6213
 8222TIP3    H146157   6.113   5.006   2.080 -0.7150  0.9840  0.2336
 8222TIP3    H246158   6.129   4.869   2.018  0.6689  0.7755  1.0381
 8223TIP3   OH246159   3.698   1.581   4.125 -0.0826 -0.4269 -0.2787
 8223TIP3    H146160   3.723   1.656   4.178 -0.0734 -0.3180 -0.4375
 8223TIP3    H246161   3.675   1.513   4.188 -0.0348 -0.3089 -0.1363
 8224TIP3   OH246162   3.321   4.212  10.712 -0.1851 -0.0010  1.1793
 8224TIP3    H146163   3.338   4.282  10.648  1.7626 -1.8585 -0.3853
 8224TIP3    H246164   3.278   4.144  10.662  0.8963 -1.2732  1.9534
 8225TIP3   OH246165   6.491   3.634   3.854 -0.3367  0.1647 -0.3872
 8225TIP3    H146166   6.564   3.585   3.817  0.2670  0.1229  0.8443
 8225TIP3    H246167   6.435   3.568   3.894 -1.2683  0.1577 -1.7086
 8226TIP3   OH246168   0.056   0.256   4.184 -0.2952  0.8712  0.2126
 8226TIP3    H146169   0.019   0.328   4.132 -2.0331  0.9226  1.4847
 8226TIP3    H246170   0.032   0.177   4.135  0.6676  1.0573 -0.6013
 8227TIP3   OH246171   0.987   4.221  14.214  0.1952 -0.1828  0.1299
 8227TIP3    H146172   1.038   4.266  14.147  1.6169 -1.0152  0.6325
 8227TIP3    H246173   0.974   4.133  14.179  1.5748 -0.8533  1.2335
 8228TIP3   OH246174   4.516   0.681   4.669  0.1405  0.1656  0.3113
 8228TIP3    H146175   4.460   0.759   4.678 -0.9001 -0.4834 -0.3967
 8228TIP3    H246176   4.529   0.673   4.574 -1.6213 -1.8220  0.2223
 8229TIP3   OH246177   3.556   4.959  12.500 -0.2432 -0.4065  0.4032
 8229TIP3    H146178   3.504   4.992  12.427 -0.7227 -1.3174  0.3159
 8229TIP3    H246179   3.637   4.926  12.460  0.9148  2.0484  0.6707
 8230TIP3   OH246180   3.418   1.520  14.878 -0.1909  0.3717  0.2188
 8230TIP3    H146181   3.453   1.512  14.966 -3.7197  0.8488  1.7491
 8230TIP3    H246182   3.470   1.459  14.825  2.4573  0.6214  2.4257
 8231TIP3   OH246183   1.872   6.342   3.582 -0.5099  0.0154  0.0824
 8231TIP3    H146184   1.828   6.376   3.660 -1.5336 -1.4883  0.1750
 8231TIP3    H246185   1.964   6.337   3.608 -0.8648 -0.6576  1.2754
 8232TIP3   OH246186   3.260   5.964   5.103 -0.0182 -0.3205 -0.0333
 8232TIP3    H146187   3.294   6.003   5.183 -0.9539 -2.2534  1.3413
 8232TIP3    H246188   3.181   5.917   5.130 -1.4525  0.5937 -2.4365
 8233TIP3   OH246189   5.478   3.243  15.581  0.1703  0.6723  0.4353
 8233TIP3    H146190   5.498   3.273  15.492 -2.3111 -0.9639 -0.7347
 8233TIP3    H246191   5.523   3.158  15.588 -1.3435 -0.1815 -0.0362
 8234TIP3   OH246192   1.071   0.953  14.203  0.0793  0.3682 -0.2617
 8234TIP3    H146193   1.143   1.009  14.230  2.2849 -1.9038 -1.2374
 8234TIP3    H246194   1.024   0.933  14.285  0.5135  1.8989  0.3664
 8235TIP3   OH246195   6.043   2.712   6.215  0.4187  0.0637  0.6937
 8235TIP3    H146196   5.959   2.736   6.177  0.3468  0.2825  0.9824
 8235TIP3    H246197   6.069   2.632   6.170 -0.2661 -0.3822  1.0790
 8236TIP3   OH246198   3.375   6.555  11.582  0.0515 -0.5449 -0.2422
 8236TIP3    H146199   3.351   6.590  11.496 -1.2519  1.6667  0.9715
 8236TIP3    H246200   3.321   6.476  11.591  0.1526 -0.7585 -1.4085
 8237TIP3   OH246201   4.789   4.229  13.154 -0.2588 -0.5501  0.3441
 8237TIP3    H146202   4.784   4.160  13.220  1.0046 -0.7434  0.2474
 8237TIP3    H246203   4.790   4.183  13.071  1.1990 -0.4444  0.3017
 8238TIP3   OH246204   1.904   3.397   1.599  0.2723  0.0539  0.5467
 8238TIP3    H146205   1.951   3.333   1.544 -0.7824 -1.3884  1.2892
 8238TIP3    H246206   1.935   3.379   1.688 -1.6508 -0.8981  1.0438
 8239TIP3   OH246207   2.298   5.796   2.819  1.0841 -0.4681 -0.9624
 8239TIP3    H146208   2.318   5.779   2.911  0.2163  0.7342 -0.5515
 8239TIP3    H246209   2.382   5.785   2.774  1.8899  0.6917  0.2187
 8240TIP3   OH246210   3.960   2.122  14.724  0.2204 -0.0446 -0.0384
 8240TIP3    H146211   4.028   2.091  14.784  0.4668 -0.1610 -0.3802
 8240TIP3    H246212   3.969   2.067  14.646  0.0228  0.2325 -0.2568
 8241TIP3   OH246213   4.224   4.371   0.523  0.2271  0.2946  0.0857
 8241TIP3    H146214   4.305   4.420   0.508  0.6347 -0.6258 -0.7369
 8241TIP3    H246215   4.238   4.325   0.605  1.3492 -1.4815 -1.0695
 8242TIP3   OH246216   2.729   0.245   6.360 -0.5494  0.2533 -0.2559
 8242TIP3    H146217   2.730   0.331   6.316  1.5975  0.7536  0.6731
 8242TIP3    H246218   2.794   0.254   6.430 -0.3509 -2.1141 -0.1002
 8243TIP3   OH246219   5.950   0.300  12.354  0.7027 -0.0215 -0.5434
 8243TIP3    H146220   6.002   0.248  12.293 -0.7560 -0.8268 -1.1312
 8243TIP3    H246221   5.919   0.238  12.419  0.5001  0.4509 -0.1889
 8244TIP3   OH246222   1.354   0.136  16.937 -0.2506  0.0946  0.4494
 8244TIP3    H146223   1.357   0.167  16.846 -1.1440  0.1703  0.4494
 8244TIP3    H246224   1.354   0.215  16.990 -2.0964  0.0952  0.4572
 8245TIP3   OH246225   2.952   5.097  15.493 -0.4682 -0.5955 -0.1332
 8245TIP3    H146226   2.916   5.112  15.581 -2.2162 -1.0021 -0.7530
 8245TIP3    H246227   3.034   5.051  15.508 -0.8925 -0.9117  1.2826
 8246TIP3   OH246228   2.959   0.283   5.956 -0.0922 -0.3932  0.4088
 8246TIP3    H146229   2.866   0.263   5.962 -0.0859 -0.3352  0.7480
 8246TIP3    H246230   2.965   0.377   5.977  0.1187 -0.5624  1.1238
 8247TIP3   OH246231   5.316   3.211  14.207 -0.3540 -0.5366 -0.0411
 8247TIP3    H146232   5.312   3.299  14.246 -2.5463 -0.8977  0.5795
 8247TIP3    H246233   5.239   3.205  14.151  0.9313 -1.3036 -1.7668
 8248TIP3   OH246234   4.157   6.262   5.573 -0.4502  0.0086 -0.7354
 8248TIP3    H146235   4.100   6.309   5.513  0.1022  1.1096 -0.4336
 8248TIP3    H246236   4.243   6.303   5.560 -0.2561  0.0367  0.5375
 8249TIP3   OH246237   2.452   1.237  16.876 -0.2960  0.3075 -0.2436
 8249TIP3    H146238   2.535   1.278  16.899 -0.4072  1.5233 -1.8885
 8249TIP3    H246239   2.476   1.154  16.836  0.0508 -0.0030  0.5925
 8250TIP3   OH246240   5.377   6.270   3.982 -0.5175 -0.3491  0.5184
 8250TIP3    H146241   5.367   6.231   3.895  3.2436 -0.6406  0.1304
 8250TIP3    H246242   5.365   6.197   4.043 -0.7274 -0.6428  0.1255
 8251TIP3   OH246243   0.573   5.639  16.833 -0.3975 -0.6479 -0.0564
 8251TIP3    H146244   0.632   5.634  16.908  0.0657 -1.6428 -0.4742
 8251TIP3    H246245   0.520   5.560  16.839 -1.0592 -0.2157 -0.2003
 8252TIP3   OH246246   5.502   5.023  10.689  0.3537  0.6684  0.1569
 8252TIP3    H146247   5.554   4.951  10.725 -1.1866  0.9315  3.0550
 8252TIP3    H246248   5.418   4.983  10.667 -0.6453  1.6108  2.1432
 8253TIP3   OH246249   3.975   3.342  16.984 -0.3152 -0.5142 -0.3605
 8253TIP3    H146250   4.039   3.337  16.914 -0.6696  0.7458 -0.7832
 8253TIP3    H246251   3.912   3.408  16.955 -1.2502 -1.0063  0.4993
 8254TIP3   OH246252   2.601   6.475  15.191  0.2941  0.1448  0.4030
 8254TIP3    H146253   2.571   6.389  15.162 -0.4456  0.6660 -0.3866
 8254TIP3    H246254   2.526   6.533  15.177  1.1745  1.1563 -0.1738
 8255TIP3   OH246255   4.770   4.109  15.771 -0.0113 -0.1770  0.0509
 8255TIP3    H146256   4.814   4.044  15.717 -1.4457 -0.6647 -0.5439
 8255TIP3    H246257   4.820   4.190  15.756  1.3807 -0.9764  0.3015
 8256TIP3   OH246258   0.509   3.918  11.989  0.1338 -0.0400 -0.1135
 8256TIP3    H146259   0.417   3.924  12.017  0.2949 -0.3174  0.4916
 8256TIP3    H246260   0.535   3.828  12.010  0.1880 -0.3302 -1.4176
 8257TIP3   OH246261   2.517   6.624  16.377  0.0200 -0.0193 -0.0838
 8257TIP3    H146262   2.505   6.718  16.390  0.4535  0.1207 -0.6476
 8257TIP3    H246263   2.464   6.604  16.300  0.1727 -0.1744 -0.1473
 8258TIP3   OH246264   3.608   4.242   1.925  0.0354  0.6133 -0.2303
 8258TIP3    H146265   3.566   4.236   1.839  1.2687 -1.1997 -0.7357
 8258TIP3    H246266   3.536   4.257   1.986 -1.0661  0.0269 -1.3695
 8259TIP3   OH246267   2.242   3.591   3.848 -0.0259 -0.2906 -0.3775
 8259TIP3    H146268   2.242   3.532   3.924 -0.4651  0.2112  0.0080
 8259TIP3    H246269   2.152   3.624   3.842  0.0690 -0.1187 -0.9597
 8260TIP3   OH246270   3.023   2.588   4.141  0.0105 -0.3862  0.5721
 8260TIP3    H146271   3.106   2.543   4.128 -0.4919 -1.1530 -0.0425
 8260TIP3    H246272   3.045   2.681   4.143  0.7947 -0.5533 -0.2976
 8261TIP3   OH246273   3.709   3.618   0.115 -0.0947 -0.1470  0.1236
 8261TIP3    H146274   3.624   3.633   0.157 -0.1947  1.7550 -0.7033
 8261TIP3    H246275   3.764   3.581   0.184 -1.7448 -1.9673  0.5250
 8262TIP3   OH246276   5.599   0.954   3.532 -0.6183  0.1894  0.1958
 8262TIP3    H146277   5.505   0.968   3.525 -0.4456  1.1559 -0.3963
 8262TIP3    H246278   5.637   1.026   3.481  0.4588  0.3518  1.2099
 8263TIP3   OH246279   1.435   3.943  10.840 -0.2712 -0.2361 -0.5597
 8263TIP3    H146280   1.481   4.024  10.864  2.0231 -1.2121 -1.5614
 8263TIP3    H246281   1.347   3.954  10.876 -0.4383  3.3199 -1.8478
 8264TIP3   OH246282   6.206   3.638   4.151 -0.5481 -0.3032 -0.7813
 8264TIP3    H146283   6.150   3.642   4.073 -1.1532 -0.2968 -0.3530
 8264TIP3    H246284   6.145   3.619   4.222 -0.3297  2.0220  0.0607
 8265TIP3   OH246285   5.185   2.850   6.738 -0.1188 -0.0875  0.1067
 8265TIP3    H146286   5.128   2.916   6.698  1.0001 -0.3917 -2.0817
 8265TIP3    H246287   5.203   2.884   6.825 -1.1424  1.5336 -0.2872
 8266TIP3   OH246288   4.360   0.435   0.986  0.6279  0.2858  0.1008
 8266TIP3    H146289   4.431   0.453   0.924  1.7460 -1.3499  0.8678
 8266TIP3    H246290   4.294   0.502   0.967  1.6597  0.8213 -1.7323
 8267TIP3   OH246291   3.939   2.374   3.337  0.4221 -0.2790 -0.2755
 8267TIP3    H146292   3.918   2.314   3.265  1.3923  0.2540 -0.9954
 8267TIP3    H246293   3.856   2.418   3.355 -0.6017 -2.6165  1.0121
 8268TIP3   OH246294   1.531   2.352  12.151  0.4604  0.3249 -0.2658
 8268TIP3    H146295   1.463   2.415  12.174  1.0980  1.0552 -0.3325
 8268TIP3    H246296   1.548   2.368  12.059 -0.4650 -1.0192 -0.6829
 8269TIP3   OH246297   3.879   6.037   2.173 -0.8113  0.3778 -0.1830
 8269TIP3    H146298   3.854   6.088   2.096 -0.5896 -4.0193 -3.3744
 8269TIP3    H246299   3.796   6.007   2.210 -0.8345  0.6836  0.0171
 8270TIP3   OH246300   2.230   3.026  14.056 -0.3487  0.2021  0.3428
 8270TIP3    H146301   2.284   2.974  13.998  0.3212  0.5999  0.5971
 8270TIP3    H246302   2.273   3.019  14.141 -0.5876  0.6857  0.5051
 8271TIP3   OH246303   3.425   5.270   0.215  0.2421 -0.0543 -0.3604
 8271TIP3    H146304   3.428   5.362   0.241  0.2982 -0.3483  0.7218
 8271TIP3    H246305   3.436   5.271   0.120 -1.7045  1.1938 -0.6142
 8272TIP3   OH246306   3.045   1.339  11.612 -0.2299  0.6960  0.6001
 8272TIP3    H146307   2.951   1.339  11.630 -0.1557 -0.2635  0.9991
 8272TIP3    H246308   3.068   1.432  11.604 -1.5114  0.8719 -1.1494
 8273TIP3   OH246309   2.640   2.616   4.717  0.3214  0.3264 -0.4916
 8273TIP3    H146310   2.640   2.671   4.796 -0.9200 -1.5686  0.8706
 8273TIP3    H246311   2.705   2.548   4.734 -0.0041 -0.1358 -1.0749
 8274TIP3   OH246312   3.072   0.750  12.844  0.2644 -0.4924  0.0377
 8274TIP3    H146313   3.126   0.812  12.796  1.6058 -0.3823  1.6695
 8274TIP3    H246314   2.995   0.800  12.869 -0.0867 -0.3346 -1.2831
 8275TIP3   OH246315   1.476   6.544   2.504 -0.6322  0.3434 -0.4060
 8275TIP3    H146316   1.403   6.593   2.541 -0.0388  0.8758  0.0444
 8275TIP3    H246317   1.465   6.553   2.409 -0.4286  1.4709 -0.3218
 8276TIP3   OH246318   3.678   3.913   2.559  0.0560 -0.1230 -0.0399
 8276TIP3    H146319   3.627   3.841   2.524  0.5805 -0.2523 -0.5400
 8276TIP3    H246320   3.644   3.991   2.514  1.6904 -0.4549 -1.9262
 8277TIP3   OH246321   5.226   1.774   3.735 -0.2013  0.3537  0.2161
 8277TIP3    H146322   5.183   1.691   3.718 -0.1801  0.5063 -0.5817
 8277TIP3    H246323   5.238   1.776   3.830 -1.6634  0.1740  0.4128
 8278TIP3   OH246324   6.130   1.306   3.083  0.4054  0.1199  0.1353
 8278TIP3    H146325   6.198   1.240   3.096  0.5887 -0.0983 -1.6977
 8278TIP3    H246326   6.099   1.290   2.993  1.8502  3.7737 -1.1021
 8279TIP3   OH246327   5.301   5.131  12.912 -0.1765 -0.1665  0.2715
 8279TIP3    H146328   5.212   5.142  12.945  0.7023 -0.4511  2.8160
 8279TIP3    H246329   5.302   5.042  12.877 -0.5423 -0.6168  1.3954
 8280TIP3   OH246330   3.463   6.449   0.867  0.1856 -0.5235 -0.1815
 8280TIP3    H146331   3.552   6.462   0.835  0.4743  0.0057  0.8011
 8280TIP3    H246332   3.463   6.488   0.955 -2.3793  4.0914 -2.0874
 8281TIP3   OH246333   0.684   4.129   2.909 -0.1066  0.0537 -0.3967
 8281TIP3    H146334   0.653   4.046   2.872  0.5752 -0.9008  1.0927
 8281TIP3    H246335   0.670   4.119   3.004 -0.9560  2.0481 -0.2963
 8282TIP3   OH246336   3.323   5.769   0.072 -0.1064  0.4046  0.6795
 8282TIP3    H146337   3.360   5.790  -0.014  0.3137  0.4976  0.8800
 8282TIP3    H246338   3.342   5.846   0.125 -2.3318  1.2840  0.2515
 8283TIP3   OH246339   6.342   1.861  12.773 -0.3990 -0.8556 -0.0790
 8283TIP3    H146340   6.311   1.785  12.823 -1.2047 -0.3494  0.2003
 8283TIP3    H246341   6.429   1.880  12.808  0.8053 -3.0992 -1.7454
 8284TIP3   OH246342   4.935   0.484   2.532  0.6970  0.2889 -0.6999
 8284TIP3    H146343   4.887   0.491   2.449  0.3473 -0.7547 -0.5974
 8284TIP3    H246344   4.907   0.400   2.569  1.7761  0.1696 -0.1168
 8285TIP3   OH246345   4.902   0.717  13.951  0.5200  0.1407 -0.0205
 8285TIP3    H146346   4.913   0.645  14.013  0.4166 -0.5742 -0.8163
 8285TIP3    H246347   4.808   0.727  13.941  0.5379 -0.4008 -0.7971
 8286TIP3   OH246348   2.265   1.808  11.196 -0.5084 -0.4350 -0.2375
 8286TIP3    H146349   2.316   1.870  11.144 -0.1858  0.9707  1.6716
 8286TIP3    H246350   2.266   1.727  11.146  1.6256  0.2604 -1.3682
 8287TIP3   OH246351   3.675   1.653   1.999  0.1505 -0.2551 -0.2818
 8287TIP3    H146352   3.727   1.701   2.063 -2.6823  0.5176  1.5121
 8287TIP3    H246353   3.697   1.561   2.014 -1.0865 -0.1544  2.3880
 8288TIP3   OH246354   1.240   1.827   0.053  0.4262  0.5282 -0.0724
 8288TIP3    H146355   1.335   1.814   0.049  0.8785  2.7656  1.9123
 8288TIP3    H246356   1.221   1.884  -0.022  0.8136  0.8505  0.0688
 8289TIP3   OH246357   3.811   0.402  17.136  0.2416 -0.2419 -0.3534
 8289TIP3    H146358   3.744   0.334  17.137  0.4550 -0.4535  1.0188
 8289TIP3    H246359   3.772   0.475  17.089  0.0204 -1.3248 -1.8559
 8290TIP3   OH246360   2.114   0.660  15.254  0.4746  0.0132  0.1622
 8290TIP3    H146361   2.045   0.600  15.225 -0.0272  1.0409 -0.8037
 8290TIP3    H246362   2.086   0.690  15.340 -0.2051  0.2858 -0.1493
 8291TIP3   OH246363   2.217   0.048   4.532  0.2754  0.1353  0.3339
 8291TIP3    H146364   2.186  -0.005   4.605  1.9107 -0.4301  0.6273
 8291TIP3    H246365   2.170   0.131   4.541  0.1067 -0.0984  1.7429
 8292TIP3   OH246366   2.335   0.335  15.412  0.3649  0.1303  0.2156
 8292TIP3    H146367   2.293   0.401  15.356  0.1977 -0.1148  0.0509
 8292TIP3    H246368   2.413   0.379  15.447  0.1048  0.5067  0.3262
 8293TIP3   OH246369   6.004   2.210  14.036  0.4069  0.1228  0.1059
 8293TIP3    H146370   5.993   2.241  13.946 -2.4874 -0.3242  0.2464
 8293TIP3    H246371   6.018   2.290  14.087 -0.4142  0.5979 -0.4051
 8294TIP3   OH246372   4.902   5.615  14.418 -0.6266  0.5899 -0.2155
 8294TIP3    H146373   4.916   5.710  14.421  1.9905  0.2262  0.3434
 8294TIP3    H246374   4.807   5.605  14.432 -1.4608  3.2258 -3.2396
 8295TIP3   OH246375   4.019   3.081   2.820  0.3020  0.2665  0.5371
 8295TIP3    H146376   4.061   3.137   2.754  0.5634 -0.8672 -0.2911
 8295TIP3    H246377   4.088   3.064   2.884  0.4945  0.1294  0.2951
 8296TIP3   OH246378   0.665   3.187   0.867  0.2890 -0.3667 -0.1606
 8296TIP3    H146379   0.736   3.246   0.845  0.9118  0.6926  4.1803
 8296TIP3    H246380   0.704   3.100   0.865  1.0760 -0.0108 -0.1270
 8297TIP3   OH246381   6.705   1.729   5.098 -0.2603  0.2312  0.0253
 8297TIP3    H146382   6.616   1.764   5.090 -0.9285 -1.2618  0.7273
 8297TIP3    H246383   6.706   1.651   5.043  0.7707  0.4977 -0.3567
 8298TIP3   OH246384   1.457   3.894  15.803  0.0229  0.2820  0.8892
 8298TIP3    H146385   1.529   3.831  15.797  0.6255  0.9383  1.2114
 8298TIP3    H246386   1.378   3.841  15.791  0.5433 -0.4835  0.8079
 8299TIP3   OH246387   2.157   5.805  15.333  0.3131  0.2511 -0.5114
 8299TIP3    H146388   2.203   5.729  15.298 -0.5638  0.2172 -1.6190
 8299TIP3    H246389   2.079   5.769  15.376  0.4023  0.4444 -0.1833
 8300TIP3   OH246390   2.154   0.954   5.750  0.2302 -0.2557  0.1565
 8300TIP3    H146391   2.225   0.912   5.798  0.0790 -0.0964  0.5292
 8300TIP3    H246392   2.117   1.016   5.813  0.0171 -0.0569 -0.1653
 8301TIP3   OH246393   6.467   3.490   2.583  0.2263  0.6635  0.3036
 8301TIP3    H146394   6.523   3.561   2.550 -1.3165  1.4253 -0.7424
 8301TIP3    H246395   6.410   3.469   2.509 -0.8691 -0.0878  1.3612
 8302TIP3   OH246396   3.574   2.230  12.487 -0.2452  0.3440  0.2359
 8302TIP3    H146397   3.664   2.215  12.457 -0.7065 -0.8571 -0.6166
 8302TIP3    H246398   3.520   2.214  12.409 -1.4781 -2.8697  1.6284
 8303TIP3   OH246399   4.699   5.554   5.789  0.0787 -0.2931  0.0730
 8303TIP3    H146400   4.755   5.477   5.800  0.3198 -0.0418  0.6268
 8303TIP3    H246401   4.676   5.580   5.878  1.7192  1.5336 -0.0038
 8304TIP3   OH246402   3.964   0.756  15.820 -0.5644 -0.0835 -0.2339
 8304TIP3    H146403   4.037   0.715  15.866  0.4333  1.4964 -0.3517
 8304TIP3    H246404   3.946   0.836  15.870 -1.5064  0.0749 -0.8204
 8305TIP3   OH246405   3.279   0.374   2.120  0.1555 -0.4178  0.6692
 8305TIP3    H146406   3.308   0.316   2.190 -1.0702 -0.0246  1.5150
 8305TIP3    H246407   3.184   0.381   2.132 -0.0198 -0.0613 -0.8079
 8306TIP3   OH246408   1.666   2.377   1.877 -0.4275  0.2681 -0.0678
 8306TIP3    H146409   1.657   2.303   1.818  0.7796  1.2389 -1.4998
 8306TIP3    H246410   1.581   2.384   1.920 -0.9056 -1.2378 -0.7576
 8307TIP3   OH246411   3.854   2.426  11.671 -0.1222  0.3983  0.0650
 8307TIP3    H146412   3.871   2.519  11.688 -1.7617  0.5267  1.1343
 8307TIP3    H246413   3.817   2.423  11.583  0.4352  0.6930 -0.1813
 8308TIP3   OH246414   6.382   6.049   4.563  0.0082 -0.2218 -0.2924
 8308TIP3    H146415   6.468   6.047   4.606 -0.3835  3.7051  0.8945
 8308TIP3    H246416   6.319   6.040   4.635 -0.6192 -1.5820 -0.9890
 8309TIP3   OH246417   5.373   0.718   5.799 -0.3738  0.6022  0.0324
 8309TIP3    H146418   5.422   0.708   5.717 -2.2531 -0.4257 -1.0025
 8309TIP3    H246419   5.424   0.670   5.864  0.9325  1.0915 -0.6187
 8310TIP3   OH246420   3.854   4.731   5.353  0.0627 -0.0124 -0.4972
 8310TIP3    H146421   3.888   4.667   5.416  0.1142  0.3097 -0.1967
 8310TIP3    H246422   3.901   4.714   5.272 -0.4743 -0.8699 -0.6377
 8311TIP3   OH246423   0.603   3.536   3.062 -0.9969  0.0095 -0.1148
 8311TIP3    H146424   0.608   3.457   3.116 -1.8560 -0.4651 -0.7092
 8311TIP3    H246425   0.638   3.605   3.117 -0.2945 -0.7774  0.4380
 8312TIP3   OH246426   4.914   3.313  16.003 -0.5194  0.6253 -0.2137
 8312TIP3    H146427   4.830   3.330  15.959 -0.1239  0.1888 -1.1525
 8312TIP3    H246428   4.889   3.283  16.090 -1.2781  3.1680  0.4747
 8313TIP3   OH246429   6.286   6.381  15.143 -0.0649  0.1681  0.4854
 8313TIP3    H146430   6.318   6.447  15.205  0.4168  0.2633  0.1388
 8313TIP3    H246431   6.252   6.311  15.199  0.8234  0.0261  0.8728
 8314TIP3   OH246432   3.402   2.431  11.653  0.6658  0.0046  0.3169
 8314TIP3    H146433   3.442   2.481  11.724 -0.6901  0.0896  1.0271
 8314TIP3    H246434   3.320   2.398  11.690 -0.8796  1.4509 -1.7308
 8315TIP3   OH246435   2.403   3.254  13.292  0.3900  0.7465 -0.3907
 8315TIP3    H146436   2.323   3.239  13.241 -0.8645  1.6869  1.2153
 8315TIP3    H246437   2.474   3.232  13.233 -1.0592  0.1571 -1.9655
 8316TIP3   OH246438   3.677   3.207   5.964 -0.0881  0.8677  0.5470
 8316TIP3    H146439   3.733   3.280   5.992  2.3660  0.5357 -3.2350
 8316TIP3    H246440   3.736   3.132   5.959 -1.2872  0.0401 -1.5285
 8317TIP3   OH246441   2.369   0.849   5.941  0.4544 -0.0335  0.7155
 8317TIP3    H146442   2.289   0.841   5.992  0.7682  0.8037  1.3516
 8317TIP3    H246443   2.427   0.903   5.995  1.3244 -0.3495  0.1154
 8318TIP3   OH246444   1.766   0.701  14.083 -0.0842  0.0690 -0.1658
 8318TIP3    H146445   1.759   0.788  14.043 -1.5995  0.0567  0.0615
 8318TIP3    H246446   1.752   0.715  14.176  1.7743 -0.1388  0.1549
 8319TIP3   OH246447   6.627   6.600   1.091 -0.5796  0.0713 -0.3044
 8319TIP3    H146448   6.610   6.569   1.180  1.9914 -0.2029  0.1386
 8319TIP3    H246449   6.610   6.524   1.035 -0.8831 -0.1645  0.1066
 8320TIP3   OH246450   4.097   1.511   0.798  0.4249  0.3059  0.3612
 8320TIP3    H146451   4.174   1.495   0.853  1.6546  1.0845 -1.1027
 8320TIP3    H246452   4.059   1.591   0.833  0.3958  0.0444  0.9426
 8321TIP3   OH246453   4.659   0.478  16.825  0.3012 -0.0624  0.1411
 8321TIP3    H146454   4.727   0.512  16.883  0.6507 -1.3602  0.4985
 8321TIP3    H246455   4.663   0.534  16.748  3.7698 -1.9562 -1.1122
 8322TIP3   OH246456   0.934   0.048  11.429 -0.6352 -0.1299 -0.6343
 8322TIP3    H146457   0.897   0.013  11.510 -1.8841 -0.6972 -1.4337
 8322TIP3    H246458   0.957   0.138  11.449 -0.8857 -0.2897  0.3595
 8323TIP3   OH246459   0.827   5.353   5.073  0.5393 -0.0159 -0.7673
 8323TIP3    H146460   0.784   5.418   5.017 -0.3920 -2.4737 -2.9858
 8323TIP3    H246461   0.801   5.377   5.162 -2.7930  0.4943 -1.8140
 8324TIP3   OH246462   4.863   1.732   2.547 -0.3068  0.4222 -0.1151
 8324TIP3    H146463   4.888   1.729   2.455  1.1101  1.8560  0.2062
 8324TIP3    H246464   4.791   1.669   2.554  0.3049 -0.5175 -1.9650
 8325TIP3   OH246465   0.387   5.335  11.563 -0.0912 -0.1055 -0.4479
 8325TIP3    H146466   0.294   5.357  11.574 -0.1839 -0.4823 -0.4758
 8325TIP3    H246467   0.391   5.293  11.477 -0.5402 -3.6069  1.1528
 8326TIP3   OH246468   5.904   3.381  10.967  0.9820 -0.3587  0.4707
 8326TIP3    H146469   5.858   3.318  10.911  1.5303  1.2845 -1.9386
 8326TIP3    H246470   5.997   3.366  10.949  1.1460  0.5221  0.5540
 8327TIP3   OH246471   6.684   2.017   2.022 -0.1755 -0.3490 -0.3976
 8327TIP3    H146472   6.771   2.025   1.983  0.2373 -1.4998  0.2680
 8327TIP3    H246473   6.626   2.004   1.947  0.2895 -0.1036 -0.8084
 8328TIP3   OH246474   3.411   2.367   1.806 -0.0757 -0.0105  0.7183
 8328TIP3    H146475   3.358   2.441   1.776  1.2953  0.3559 -0.8439
 8328TIP3    H246476   3.386   2.294   1.748 -1.1509 -0.6843  2.0092
 8329TIP3   OH246477   2.315   6.281   0.338 -0.3109  0.5533 -0.4558
 8329TIP3    H146478   2.290   6.365   0.376  0.6487  0.2989  0.7249
 8329TIP3    H246479   2.260   6.217   0.383  1.7061  0.1038  1.4615
 8330TIP3   OH246480   2.958   5.598   4.453 -0.1218 -0.3069 -0.4753
 8330TIP3    H146481   2.981   5.683   4.490 -0.2786 -0.7841  0.7679
 8330TIP3    H246482   3.034   5.573   4.400 -0.8220  1.4090 -2.3432
 8331TIP3   OH246483   6.184   2.494   6.142 -0.0523  0.0648  0.2451
 8331TIP3    H146484   6.155   2.403   6.149  0.9878 -0.2940 -0.1429
 8331TIP3    H246485   6.278   2.489   6.127  0.0760  1.2151  0.5907
 8332TIP3   OH246486   1.748   3.891   2.113 -0.1544  0.0207 -0.8098
 8332TIP3    H146487   1.678   3.957   2.117 -0.6117 -0.4514 -0.9059
 8332TIP3    H246488   1.815   3.930   2.058  0.2234  1.0146  0.3450
 8333TIP3   OH246489   3.304   3.222   1.747  0.3362 -0.0696  0.2718
 8333TIP3    H146490   3.336   3.155   1.807  1.7021  0.3693  0.0554
 8333TIP3    H246491   3.270   3.174   1.672 -0.5127 -0.5809  0.9653
 8334TIP3   OH246492   5.194   1.552  12.585  0.5369 -0.0188  0.4220
 8334TIP3    H146493   5.182   1.631  12.638 -2.1451 -1.9541  2.9099
 8334TIP3    H246494   5.143   1.569  12.505 -0.1927  0.7026  1.0245
 8335TIP3   OH246495   3.734   2.582   1.370 -0.0461  0.0241 -0.1314
 8335TIP3    H146496   3.811   2.538   1.405 -0.8273 -0.7943  0.5600
 8335TIP3    H246497   3.722   2.545   1.283 -0.8512 -1.3215  0.5457
 8336TIP3   OH246498   4.726   3.742   2.215 -0.3874 -0.7019  0.1379
 8336TIP3    H146499   4.695   3.686   2.286 -1.1014 -1.5908 -0.8748
 8336TIP3    H246500   4.822   3.737   2.221 -0.4223 -3.0969 -0.7595
 8337TIP3   OH246501   0.422   6.681  10.356 -0.3634 -0.2917  0.4053
 8337TIP3    H146502   0.453   6.765  10.323 -1.8474  0.1815  0.1794
 8337TIP3    H246503   0.332   6.698  10.386 -0.7185 -1.8143  0.2691
 8338TIP3   OH246504   2.666   6.529   4.292  0.0505  0.0851  0.4783
 8338TIP3    H146505   2.641   6.608   4.244 -2.1644  0.2556  1.8557
 8338TIP3    H246506   2.666   6.556   4.384  1.5138 -0.9598  0.8070
 8339TIP3   OH246507   0.822   3.781   4.539 -0.1731  0.4573 -0.3418
 8339TIP3    H146508   0.861   3.695   4.521  1.1184  1.3111 -1.6780
 8339TIP3    H246509   0.784   3.808   4.455 -0.7836  1.1056  0.1376
 8340TIP3   OH246510   3.608   1.889  11.224 -0.2602 -0.7522 -0.3965
 8340TIP3    H146511   3.665   1.962  11.199  0.2704 -0.8063  0.6630
 8340TIP3    H246512   3.662   1.811  11.210 -0.1545 -0.8175  0.3897
 8341TIP3   OH246513   4.690   1.408   3.644 -0.0424 -0.2567 -0.1287
 8341TIP3    H146514   4.662   1.437   3.557  0.3574  0.5547  0.0075
 8341TIP3    H246515   4.745   1.479   3.676 -0.8464 -0.1850  1.1269
 8342TIP3   OH246516   6.162   3.819   5.457 -0.4368  0.0939  0.1279
 8342TIP3    H146517   6.190   3.730   5.434  2.3540  1.4890 -2.1905
 8342TIP3    H246518   6.070   3.810   5.483 -0.6101 -3.2211 -1.4655
 8343TIP3   OH246519   3.610   4.884   6.646  0.5480  0.6480 -0.7599
 8343TIP3    H146520   3.539   4.904   6.707  2.9364  1.9310  1.7247
 8343TIP3    H246521   3.612   4.789   6.641  1.6661  0.3929  2.9538
 8344TIP3   OH246522   1.358   4.531   1.138 -0.4061 -0.1967  0.4554
 8344TIP3    H146523   1.432   4.488   1.095 -1.7387  0.0058 -2.1011
 8344TIP3    H246524   1.398   4.593   1.198  1.5264 -2.3540  1.4892
 8345TIP3   OH246525   2.098   1.669  13.293  0.0996  0.6508  0.3171
 8345TIP3    H146526   2.149   1.701  13.219  2.0349 -0.9170  0.9350
 8345TIP3    H246527   2.106   1.736  13.360  0.8061  0.7024  0.1739
 8346TIP3   OH246528   6.282   4.991  13.257  0.3206 -0.5488 -0.5273
 8346TIP3    H146529   6.219   5.029  13.317 -0.4354 -1.5952 -0.6449
 8346TIP3    H246530   6.268   5.036  13.174 -0.6405 -1.1430 -0.6943
 8347TIP3   OH246531   1.521   4.617  14.964  0.2072  0.3133  0.0204
 8347TIP3    H146532   1.530   4.707  14.933  0.0383  0.4398  0.3338
 8347TIP3    H246533   1.495   4.626  15.055 -2.0638 -0.0436 -0.5616
 8348TIP3   OH246534   3.887   6.472   1.365  0.3568  0.5865  0.8425
 8348TIP3    H146535   3.967   6.463   1.417  0.7920 -1.7707 -0.1537
 8348TIP3    H246536   3.914   6.447   1.276 -1.1990  1.0375  0.2328
 8349TIP3   OH246537   2.235   5.577   0.407 -0.2162 -0.1339  0.4587
 8349TIP3    H146538   2.289   5.581   0.328 -0.2351  0.6422  0.4850
 8349TIP3    H246539   2.258   5.493   0.447  0.1565 -0.3087 -0.1066
 8350TIP3   OH246540   5.730   1.842  15.583 -0.0156  0.3139 -0.2157
 8350TIP3    H146541   5.687   1.875  15.661 -0.2822 -1.4980  0.4153
 8350TIP3    H246542   5.769   1.920  15.542 -1.3348  1.5135  0.7921
 8351TIP3   OH246543   5.884   6.155  13.515 -0.2989  0.0040  0.2819
 8351TIP3    H146544   5.843   6.232  13.554 -1.6683 -1.1064  1.0811
 8351TIP3    H246545   5.894   6.177  13.423  3.5272  2.9063  1.2376
 8352TIP3   OH246546   2.578   6.374  15.778 -0.1382 -0.3647  0.2613
 8352TIP3    H146547   2.518   6.372  15.704 -1.2636  0.2404  1.1318
 8352TIP3    H246548   2.658   6.332  15.746 -0.6390 -0.1915 -1.2510
 8353TIP3   OH246549   4.825   4.016   0.859 -0.3521 -0.2040  0.0512
 8353TIP3    H146550   4.811   3.979   0.946  1.2256  2.3441  1.4619
 8353TIP3    H246551   4.891   4.084   0.873  0.6535 -0.4133 -3.3308
 8354TIP3   OH246552   6.153   4.442  10.626  0.2047  0.4981 -0.2204
 8354TIP3    H146553   6.234   4.477  10.662  1.0757 -1.3162 -0.3435
 8354TIP3    H246554   6.153   4.471  10.535  0.2355  1.3127  0.0400
 8355TIP3   OH246555   6.035   2.832   1.920  0.2278  0.1870  0.4807
 8355TIP3    H146556   6.102   2.892   1.952  1.1236  0.1783 -1.2971
 8355TIP3    H246557   5.984   2.884   1.857 -0.7511 -0.1173  1.0121
 8356TIP3   OH246558   4.393   5.789   5.557 -0.1444 -0.4037  0.3052
 8356TIP3    H146559   4.391   5.868   5.611  0.6322 -0.2670  0.1414
 8356TIP3    H246560   4.485   5.777   5.536 -0.3767 -0.7668 -0.5359
 8357TIP3   OH246561   3.254   6.684  15.773 -0.0359 -0.5570 -0.1768
 8357TIP3    H146562   3.166   6.722  15.767 -0.8426 -1.9123  2.1770
 8357TIP3    H246563   3.250   6.607  15.716  0.7503  1.3189 -2.8190
 8358TIP3   OH246564   6.140   4.836   1.266  0.4995 -0.1440  0.3548
 8358TIP3    H146565   6.110   4.746   1.283  1.9608 -0.6265  0.4317
 8358TIP3    H246566   6.234   4.834   1.283  0.3239  1.7454  1.6474
 8359TIP3   OH246567   5.148   5.763   4.171  0.4223 -0.3783  0.3207
 8359TIP3    H146568   5.064   5.809   4.171  1.0550  0.7763  0.1375
 8359TIP3    H246569   5.168   5.751   4.264  0.3569 -0.1142  0.3688
 8360TIP3   OH246570   6.633   1.226  13.952  0.1149  0.3037 -0.5833
 8360TIP3    H146571   6.683   1.177  13.888 -0.0544  0.9435 -1.2135
 8360TIP3    H246572   6.544   1.194  13.944  0.2928 -0.3760  0.0875
 8361TIP3   OH246573   4.098   0.640   2.245 -0.0515 -0.4830 -0.3850
 8361TIP3    H146574   4.069   0.585   2.173  0.2847 -2.3910  0.8939
 8361TIP3    H246575   4.178   0.597   2.277 -0.1343  0.3927  1.0416
 8362TIP3   OH246576   1.681   6.092   1.282  0.5421  0.3022 -0.2654
 8362TIP3    H146577   1.750   6.069   1.343  0.4872 -3.0415 -1.3480
 8362TIP3    H246578   1.602   6.099   1.336  0.6350 -1.8784  0.1877
 8363TIP3   OH246579   5.522   5.722   3.093 -0.0325  0.2954 -0.0089
 8363TIP3    H146580   5.588   5.654   3.107  0.2354 -0.4115 -4.1041
 8363TIP3    H246581   5.438   5.676   3.097 -0.0424  0.3808  0.7740
 8364TIP3   OH246582   6.335   5.701   4.938 -0.4554 -0.1296 -0.0286
 8364TIP3    H146583   6.337   5.730   5.029  2.3262 -1.8954  0.5065
 8364TIP3    H246584   6.345   5.606   4.942 -4.2803 -0.7437 -2.0327
 8365TIP3   OH246585   3.741   1.138  12.641 -0.1058 -0.0612 -0.9707
 8365TIP3    H146586   3.745   1.063  12.699  2.0749  0.0306 -0.9681
 8365TIP3    H246587   3.675   1.114  12.576 -2.8469 -0.0080  1.6833
 8366TIP3   OH246588   6.267   6.236  14.559  0.3878  0.2276 -0.1024
 8366TIP3    H146589   6.219   6.297  14.615  0.2731  0.1570 -0.1237
 8366TIP3    H246590   6.324   6.292  14.506 -0.6245  0.4162 -1.0081
 8367TIP3   OH246591   6.559   5.534   6.573 -0.6921 -0.0366  0.0918
 8367TIP3    H146592   6.523   5.555   6.487  0.4516  1.5297 -0.0264
 8367TIP3    H246593   6.614   5.457   6.557 -2.0938 -1.0094 -0.1658
 8368TIP3   OH246594   3.185   0.137  13.531  0.1734  0.5253  0.1081
 8368TIP3    H146595   3.212   0.139  13.623 -0.7363  1.0097  0.3642
 8368TIP3    H246596   3.254   0.086  13.488 -0.1663 -0.9817  1.3071
 8369TIP3   OH246597   4.176   5.460   0.835  0.6439  0.4817  0.3448
 8369TIP3    H146598   4.113   5.388   0.827  1.2216 -0.2123  1.8432
 8369TIP3    H246599   4.150   5.506   0.915  1.7577  0.4574  0.7298
 8370TIP3   OH246600   6.285   5.042  12.197  0.4976 -0.1513  0.4832
 8370TIP3    H146601   6.196   5.060  12.167  0.8684 -0.3316 -0.7562
 8370TIP3    H246602   6.286   5.071  12.288 -1.1181 -1.0945  0.8129
 8371TIP3   OH246603   3.845   0.299  16.722 -0.3650 -0.8693 -0.5732
 8371TIP3    H146604   3.785   0.337  16.786  1.8998  0.5485  0.7834
 8371TIP3    H246605   3.818   0.336  16.638 -0.1705  1.3320  0.3036
 8372TIP3   OH246606   4.986   3.824   2.470  0.1675  0.2892 -0.1212
 8372TIP3    H146607   4.963   3.744   2.518 -1.1992  0.9992  0.4088
 8372TIP3    H246608   4.969   3.895   2.531  1.4368  0.9996 -0.5745
 8373TIP3   OH246609   1.847   2.412  13.435 -0.6790  0.0472  0.1538
 8373TIP3    H146610   1.772   2.374  13.481 -1.6601  1.6228 -0.1395
 8373TIP3    H246611   1.819   2.419  13.344  0.5890 -1.3011 -0.3671
 8374TIP3   OH246612   2.693   3.599   3.756  0.5491 -0.3441  0.4108
 8374TIP3    H146613   2.691   3.579   3.662  2.1936  0.8719  0.0847
 8374TIP3    H246614   2.786   3.612   3.775 -0.0099  2.0919  1.6215
 8375TIP3   OH246615   6.038   1.144   0.883  0.6252 -0.2346 -0.5941
 8375TIP3    H146616   6.109   1.085   0.909 -0.0128 -1.6467 -1.9458
 8375TIP3    H246617   6.002   1.177   0.965  1.2649 -1.4237  0.1695
 8376TIP3   OH246618   4.797   1.451  11.873 -0.0935 -0.0668 -0.2892
 8376TIP3    H146619   4.855   1.378  11.893 -1.2210 -1.1475 -0.8872
 8376TIP3    H246620   4.794   1.502  11.954  1.3775 -0.2018 -0.1403
 8377TIP3   OH246621   2.250   1.633   5.327 -0.2566  0.3780  0.2870
 8377TIP3    H146622   2.327   1.685   5.304  0.1921  0.3577  1.6934
 8377TIP3    H246623   2.192   1.641   5.251  0.3279  1.9307 -0.0130
 8378TIP3   OH246624   4.379   0.142  17.020 -0.8415  0.6550 -0.0276
 8378TIP3    H146625   4.389   0.206  17.090 -1.9801  1.4859 -0.5996
 8378TIP3    H246626   4.318   0.077  17.054  0.6533 -0.3846  0.7160
 8379TIP3   OH246627   3.133   0.967  13.718 -0.5918 -0.2377 -0.2874
 8379TIP3    H146628   3.056   1.022  13.708 -0.4041 -0.2528 -1.9248
 8379TIP3    H246629   3.181   1.006  13.791 -0.9154  1.2215 -0.8373
 8380TIP3   OH246630   3.397   3.574  17.289  0.0613 -0.4150 -0.3985
 8380TIP3    H146631   3.344   3.599  17.212 -0.6984  0.7548  0.4881
 8380TIP3    H246632   3.381   3.480  17.299  1.2299 -0.8634 -2.4713
 8381TIP3   OH246633   6.213   3.199  11.683 -0.5369  0.3524 -0.0854
 8381TIP3    H146634   6.228   3.211  11.777 -0.8726 -0.4026  0.0691
 8381TIP3    H246635   6.249   3.278  11.643 -1.4741  1.2303  0.7753
 8382TIP3   OH246636   3.245   0.811   5.318  0.2878 -0.1998 -0.3256
 8382TIP3    H146637   3.292   0.856   5.387 -0.3979  1.9944 -1.2651
 8382TIP3    H246638   3.175   0.763   5.364  0.8233 -0.0626  0.6423
 8383TIP3   OH246639   5.080   3.293   2.099 -0.1717  0.4532 -1.0438
 8383TIP3    H146640   5.068   3.216   2.044 -1.7990  2.1748 -3.2145
 8383TIP3    H246641   5.138   3.350   2.048  1.3517  0.5202  0.7105
 8384TIP3   OH246642   5.944   2.836   5.374 -0.3897 -0.0048  0.0228
 8384TIP3    H146643   5.980   2.922   5.399 -1.4299  0.3498  0.3470
 8384TIP3    H246644   5.852   2.841   5.399 -1.4751  0.2829 -3.7163
 8385TIP3   OH246645   3.696   2.624   3.927  0.3502 -0.1528 -0.9026
 8385TIP3    H146646   3.723   2.649   3.839  2.1706 -0.0031 -0.3234
 8385TIP3    H246647   3.689   2.707   3.974  0.1564 -0.2900 -0.6899
 8386TIP3   OH246648   2.412   0.133   1.702 -0.3368  0.2506 -0.8318
 8386TIP3    H146649   2.471   0.196   1.744  0.1389 -1.0875  0.5587
 8386TIP3    H246650   2.446   0.125   1.613  1.0424  0.1998 -0.3154
 8387TIP3   OH246651   6.527   1.657  12.305  0.6756  0.2815  0.6895
 8387TIP3    H146652   6.446   1.654  12.254  1.3384 -0.3853 -0.3256
 8387TIP3    H246653   6.504   1.708  12.383 -0.7481  0.0153  0.4577
 8388TIP3   OH246654   4.949   2.531  13.937  0.2339 -0.2342 -0.3913
 8388TIP3    H146655   4.870   2.511  13.989  0.9261  1.1563  1.2225
 8388TIP3    H246656   5.021   2.522  13.999  1.2866 -0.5903 -1.6459
 8389TIP3   OH246657   0.584   3.353   4.825 -0.1806 -0.4456  0.1292
 8389TIP3    H146658   0.489   3.353   4.813 -0.5599 -0.1420  2.8431
 8389TIP3    H246659   0.617   3.408   4.753 -2.1232  0.2299 -0.2802
 8390TIP3   OH246660   4.402   5.329   0.027 -0.0674 -0.1441 -0.4208
 8390TIP3    H146661   4.391   5.414  -0.015  0.8248  0.4372  0.5029
 8390TIP3    H246662   4.352   5.336   0.108  0.3683 -0.3488 -0.1340
 8391TIP3   OH246663   3.461   6.249   5.757  0.0777 -0.0434 -0.1414
 8391TIP3    H146664   3.477   6.182   5.824  2.2909 -1.2493 -1.8096
 8391TIP3    H246665   3.459   6.332   5.805 -2.0753 -1.1985  1.8804
 8392TIP3   OH246666   0.746   6.154  12.137 -0.0222 -0.4338 -0.0889
 8392TIP3    H146667   0.740   6.147  12.042  2.5602  0.7728 -0.3887
 8392TIP3    H246668   0.743   6.248  12.155 -1.2650 -0.6818  1.1011
 8393TIP3   OH246669   3.481   6.080  15.398 -0.2935  0.1180 -0.1091
 8393TIP3    H146670   3.532   6.028  15.460 -1.0937 -0.2753  0.2302
 8393TIP3    H246671   3.443   6.015  15.338  1.0632  0.5443 -1.4655
 8394TIP3   OH246672   6.293   4.750  16.345  0.0230  0.2196 -0.5291
 8394TIP3    H146673   6.228   4.684  16.367 -1.0582  1.2526 -0.5812
 8394TIP3    H246674   6.327   4.779  16.429 -0.0975  0.1848 -0.4690
 8395TIP3   OH246675   2.413   5.096   3.716 -0.3905 -0.2918  0.1794
 8395TIP3    H146676   2.353   5.109   3.789 -1.9338  0.8106 -1.2495
 8395TIP3    H246677   2.380   5.153   3.646  0.5789 -1.8896 -1.6576
 8396TIP3   OH246678   6.576   5.713   1.209 -0.3375 -0.2242  0.8211
 8396TIP3    H146679   6.658   5.716   1.258 -0.6854 -1.8924  1.5440
 8396TIP3    H246680   6.523   5.648   1.256 -1.8513  0.4250  0.0327
 8397TIP3   OH246681   4.205   6.221   1.697 -0.6434  0.1988 -0.3394
 8397TIP3    H146682   4.300   6.213   1.698 -0.5445  1.3407 -0.6484
 8397TIP3    H246683   4.175   6.152   1.756  0.3661 -0.2288 -0.3115
 8398TIP3   OH246684   1.653   4.330  15.412 -0.5599 -0.3603 -0.3565
 8398TIP3    H146685   1.689   4.408  15.368 -2.3531  0.2502 -0.7748
 8398TIP3    H246686   1.616   4.364  15.493 -1.2113 -0.7949 -0.4700
 8399TIP3   OH246687   2.730   1.473  13.004  0.4071 -0.2439  0.2452
 8399TIP3    H146688   2.755   1.439  13.090  0.6456  0.3982  0.4369
 8399TIP3    H246689   2.671   1.407  12.968 -0.2511 -0.1967  1.2041
 8400TIP3   OH246690   3.587   4.834  11.699 -0.6084 -0.1568 -0.3618
 8400TIP3    H146691   3.570   4.818  11.607 -0.2700  0.8055 -0.6000
 8400TIP3    H246692   3.520   4.783  11.745 -1.2634 -0.0222 -1.1593
 8401TIP3   OH246693   5.995   3.137  14.251 -0.4761  0.7635  0.1178
 8401TIP3    H146694   5.959   3.126  14.163  0.6017  0.8444 -0.3468
 8401TIP3    H246695   5.991   3.050  14.290 -1.8557  0.9292  0.3372
 8402TIP3   OH246696   4.709   1.761   3.931  0.3031 -0.2883 -0.0659
 8402TIP3    H146697   4.619   1.743   3.903 -0.1793 -0.6370  1.6178
 8402TIP3    H246698   4.764   1.713   3.869 -0.6974 -0.4845 -0.8050
 8403TIP3   OH246699   0.356   3.460   0.217  0.5478 -0.2093  0.0681
 8403TIP3    H146700   0.393   3.473   0.304  1.4072 -1.5700 -0.0811
 8403TIP3    H246701   0.323   3.370   0.217  0.0180 -0.0251 -0.8147
 8404TIP3   OH246702   4.150   0.188  11.320 -0.4755  0.4309  1.1803
 8404TIP3    H146703   4.095   0.133  11.376 -1.4575  1.0563  0.8444
 8404TIP3    H246704   4.096   0.204  11.242  0.1299  1.1565  0.9047
 8405TIP3   OH246705   1.775   0.406  14.453  0.0144  0.2597 -0.2944
 8405TIP3    H146706   1.865   0.405  14.419  0.5991 -1.4611  1.2467
 8405TIP3    H246707   1.768   0.489  14.501  0.8086  0.3427 -0.3208
 8406TIP3   OH246708   6.664   0.606   0.754  0.4219 -0.3117  0.6490
 8406TIP3    H146709   6.715   0.685   0.739 -0.0165  0.1638  1.5931
 8406TIP3    H246710   6.664   0.560   0.670 -1.4773  1.9728 -0.6606
 8407TIP3   OH246711   5.772   1.329   5.176 -0.0220 -0.3658 -0.3544
 8407TIP3    H146712   5.832   1.392   5.216 -1.1895  1.0711 -0.8420
 8407TIP3    H246713   5.813   1.244   5.194 -0.1704  0.2490  3.3435
 8408TIP3   OH246714   5.450   3.342   4.646  0.1832 -0.1717 -0.2573
 8408TIP3    H146715   5.427   3.429   4.680 -1.2458 -1.0771  1.1588
 8408TIP3    H246716   5.432   3.348   4.552  1.3389  1.4569 -0.3926
 8409TIP3   OH246717   3.843   3.780  11.329 -0.8047  0.1197 -0.3533
 8409TIP3    H146718   3.823   3.868  11.359 -1.2819  0.2387 -1.0119
 8409TIP3    H246719   3.782   3.724  11.377  0.7607 -0.0787  1.4978
 8410TIP3   OH246720   6.479   3.638   2.143 -0.0305 -0.1818  0.2228
 8410TIP3    H146721   6.523   3.553   2.151  0.7600  0.1198 -0.7954
 8410TIP3    H246722   6.551   3.701   2.134 -0.6257  0.5489  0.5591
 8411TIP3   OH246723   2.454   6.123  14.214 -0.6161  0.1356  0.0649
 8411TIP3    H146724   2.515   6.186  14.253  0.5622 -0.4572 -0.7663
 8411TIP3    H246725   2.387   6.110  14.281  0.7061  0.0646  1.4026
 8412TIP3   OH246726   0.008   5.199   1.851 -0.5539 -0.6806 -0.2360
 8412TIP3    H146727   0.048   5.284   1.874 -1.8007 -0.1604  0.0490
 8412TIP3    H246728  -0.007   5.205   1.757  0.0159 -0.8748 -0.3435
 8413TIP3   OH246729   3.049   5.110   3.529  0.4765  0.4931  0.0726
 8413TIP3    H146730   3.139   5.129   3.503  0.3413  0.0167 -0.7613
 8413TIP3    H246731   3.042   5.015   3.524 -0.7110  0.6541 -2.0583
 8414TIP3   OH246732   4.925   2.408   5.359  0.3509 -0.3439  0.2347
 8414TIP3    H146733   4.892   2.364   5.437 -0.4911 -1.7415 -0.8776
 8414TIP3    H246734   4.865   2.380   5.289 -0.6293  3.0688 -0.4000
 8415TIP3   OH246735   5.334   0.877   0.033 -0.1587  0.3232 -0.0449
 8415TIP3    H146736   5.245   0.884  -0.002  0.5440 -0.9081 -2.1446
 8415TIP3    H246737   5.385   0.942  -0.016  1.0212 -2.0192 -2.0428
 8416TIP3   OH246738   3.469   2.746  15.638  0.2057  0.1221 -0.4029
 8416TIP3    H146739   3.413   2.782  15.707  1.1976  2.1599 -0.6178
 8416TIP3    H246740   3.537   2.699  15.685 -0.7312 -0.9421 -0.0896
 8417TIP3   OH246741   4.465   1.992   0.465 -0.0657  0.1397  0.7443
 8417TIP3    H146742   4.389   2.008   0.409  0.0109  2.4654  1.2374
 8417TIP3    H246743   4.430   1.989   0.554  0.4367  1.5645  1.0043
 8418TIP3   OH246744   4.163   3.035   5.393 -0.0052  0.1259 -0.0176
 8418TIP3    H146745   4.235   3.098   5.387  1.3789 -1.4806 -0.6837
 8418TIP3    H246746   4.146   3.010   5.302  0.6816 -1.7854  0.3598
 8419TIP3   OH246747   1.397   2.677  13.840  0.1344  0.6694 -0.2756
 8419TIP3    H146748   1.366   2.600  13.888  4.2216 -1.9577 -1.5919
 8419TIP3    H246749   1.366   2.663  13.750 -0.3014  1.2923 -0.2241
 8420TIP3   OH246750   1.610   1.025  16.898  0.5606 -0.4358  0.2065
 8420TIP3    H146751   1.704   1.040  16.886  0.4754  1.1806  1.3547
 8420TIP3    H246752   1.579   1.106  16.939 -1.4568 -0.6814 -0.8163
 8421TIP3   OH246753   0.649   3.520  14.474 -0.1980  0.3238  0.0004
 8421TIP3    H146754   0.725   3.578  14.468 -0.6802  0.9554 -0.0086
 8421TIP3    H246755   0.574   3.577  14.462 -0.7642 -0.0113  1.7469
 8422TIP3   OH246756   5.471   0.355  14.231 -0.4315 -0.2237  0.7580
 8422TIP3    H146757   5.466   0.298  14.308 -0.5693  0.2847  1.1319
 8422TIP3    H246758   5.498   0.298  14.160  0.2359 -0.5882  1.3042
 8423TIP3   OH246759   2.214   0.910  13.640 -0.6898  0.7957 -0.5206
 8423TIP3    H146760   2.178   0.952  13.562 -1.8814  1.7814  0.5335
 8423TIP3    H246761   2.275   0.974  13.676  1.7875 -0.6807 -2.0289
 8424TIP3   OH246762   3.231   6.653   1.946 -0.1538  0.4716  0.1365
 8424TIP3    H146763   3.204   6.656   2.039 -0.7366 -0.2482 -0.0038
 8424TIP3    H246764   3.149   6.639   1.899  0.0796  1.3611 -0.5269
 8425TIP3   OH246765   6.174   5.765  11.624  0.3275  0.4944 -0.0196
 8425TIP3    H146766   6.235   5.755  11.550 -0.0036  1.1948 -0.3906
 8425TIP3    H246767   6.199   5.849  11.664  1.3324 -0.4744  1.4370
 8426TIP3   OH246768   3.703   4.608  15.347  0.2371 -0.0001 -0.0232
 8426TIP3    H146769   3.793   4.590  15.374  0.1047 -1.2717 -0.4122
 8426TIP3    H246770   3.667   4.662  15.418  0.6739 -1.1986  1.1232
 8427TIP3   OH246771   5.086   2.497   5.719 -0.3963 -0.2550  0.5136
 8427TIP3    H146772   5.091   2.408   5.753 -0.3485 -0.4156  0.0833
 8427TIP3    H246773   5.150   2.546   5.771 -0.1810 -0.5421  0.5193
 8428TIP3   OH246774   2.941   0.580   1.016 -0.5078  0.2374  0.3727
 8428TIP3    H146775   2.913   0.495   1.049 -1.2443  0.6417  0.8116
 8428TIP3    H246776   2.891   0.592   0.935 -1.9705  1.1458  1.3733
 8429TIP3   OH246777   2.678   5.118  11.561 -0.1547  0.6363  0.0824
 8429TIP3    H146778   2.701   5.111  11.653 -1.3645 -2.3666  0.2082
 8429TIP3    H246779   2.758   5.097  11.514 -0.4190 -1.2930  0.4775
 8430TIP3   OH246780   1.049   4.506   1.243 -0.3880 -0.3651 -0.9176
 8430TIP3    H146781   1.095   4.521   1.325 -0.2310  2.2179 -1.4259
 8430TIP3    H246782   0.966   4.466   1.268  0.4595 -1.3604  0.3318
 8431TIP3   OH246783   2.370   1.472  11.990  0.2811  0.3733  0.1117
 8431TIP3    H146784   2.293   1.458  12.044  0.7127 -0.0677  0.6187
 8431TIP3    H246785   2.339   1.524  11.916 -0.3926  0.6398  0.5782
 8432TIP3   OH246786   1.346   1.810  13.084 -0.5493  0.6245  0.4996
 8432TIP3    H146787   1.250   1.804  13.080 -0.4474 -1.9145  1.0225
 8432TIP3    H246788   1.373   1.731  13.131  1.8092  1.3751  0.4793
 8433TIP3   OH246789   5.588   3.974   6.080  0.1793  0.7507  0.2726
 8433TIP3    H146790   5.572   3.961   5.987  1.8597 -1.9816  0.3011
 8433TIP3    H246791   5.661   4.035   6.084  0.1886  0.7720 -0.2038
 8434TIP3   OH246792   2.855   2.952   3.540 -0.2626  0.2672  0.3932
 8434TIP3    H146793   2.898   2.999   3.612 -0.9754  1.7689 -0.1442
 8434TIP3    H246794   2.854   2.861   3.568  2.5112  0.3206  0.7944
 8435TIP3   OH246795   3.558   0.370  12.852 -0.2798 -0.1682  0.3598
 8435TIP3    H146796   3.478   0.332  12.816  0.3621 -1.1051 -0.0835
 8435TIP3    H246797   3.560   0.341  12.943  0.7332 -2.0960 -0.2406
 8436TIP3   OH246798   0.963   5.000   1.303  0.1873  0.2852  0.1325
 8436TIP3    H146799   0.979   4.997   1.208  0.3199 -0.4074  0.1740
 8436TIP3    H246800   0.903   4.927   1.319  1.7957 -0.8877  0.8944
 8437TIP3   OH246801   3.361   6.098  11.934  0.2237 -0.4777  0.4769
 8437TIP3    H146802   3.397   6.088  12.022 -0.8686 -1.5692  0.8177
 8437TIP3    H246803   3.269   6.123  11.949  0.1131 -0.3849 -0.3535
 8438TIP3   OH246804   3.444   4.388  14.917 -0.1608  0.6694 -0.1032
 8438TIP3    H146805   3.508   4.416  14.852  0.7825 -0.9110  0.1096
 8438TIP3    H246806   3.405   4.310  14.879  1.5786 -1.2469  1.9014
 8439TIP3   OH246807   4.796   4.860  11.676 -0.3302  0.0372 -0.2894
 8439TIP3    H146808   4.807   4.817  11.760  1.5460  1.4517  0.2084
 8439TIP3    H246809   4.770   4.790  11.616  0.0587 -1.2797  1.0763
 8440TIP3   OH246810   3.340   3.760  13.823  0.0657 -0.3770  0.2227
 8440TIP3    H146811   3.298   3.816  13.889 -0.4420 -0.3332 -0.1321
 8440TIP3    H246812   3.278   3.760  13.750  0.7783 -0.1740 -0.3754
 8441TIP3   OH246813   2.748   2.753  17.260  0.0733 -0.0210 -0.3369
 8441TIP3    H146814   2.655   2.744  17.281 -0.4906 -0.5703 -2.8897
 8441TIP3    H246815   2.778   2.663  17.246  1.0169  0.1500  0.4584
 8442TIP3   OH246816   1.878   6.803   5.874 -0.4357  0.0876 -0.2301
 8442TIP3    H146817   1.824   6.748   5.930 -0.5834 -0.3067 -0.7510
 8442TIP3    H246818   1.966   6.768   5.884 -0.6607 -0.7939 -1.2057
 8443TIP3   OH246819   4.075   4.378  14.912  0.3684 -0.3214 -0.5885
 8443TIP3    H146820   4.084   4.439  14.839 -1.0458 -0.2831 -0.7476
 8443TIP3    H246821   4.082   4.433  14.990 -0.5847  0.0238 -0.7283
 8444TIP3   OH246822   3.675   2.393  10.469 -0.4056  0.2608  0.5376
 8444TIP3    H146823   3.769   2.381  10.474 -0.3995  0.8011  2.2279
 8444TIP3    H246824   3.640   2.307  10.448  0.5346  0.3544 -1.5394
 8445TIP3   OH246825   5.963   5.183  17.195  0.7766  0.1011 -0.2010
 8445TIP3    H146826   5.875   5.153  17.220  0.1294  1.4074 -0.9042
 8445TIP3    H246827   6.018   5.106  17.208 -0.4312 -0.6787  0.4464
 8446TIP3   OH246828   0.840   2.861   4.591 -0.3073 -0.4003  0.1839
 8446TIP3    H146829   0.917   2.816   4.625  1.0863  2.0354  0.3842
 8446TIP3    H246830   0.791   2.887   4.668 -1.2422 -1.7333  0.0617
 8447TIP3   OH246831   0.843   0.405   2.717  0.1286  0.6191  0.2148
 8447TIP3    H146832   0.790   0.390   2.639  0.2616 -0.7674  0.3738
 8447TIP3    H246833   0.821   0.494   2.744 -0.1068  1.0199 -1.2472
 8448TIP3   OH246834   3.525   4.156   5.261 -0.2263 -0.2361 -0.4355
 8448TIP3    H146835   3.597   4.219   5.271 -0.4409  0.0019 -0.3818
 8448TIP3    H246836   3.548   4.084   5.319 -0.0276 -0.1621 -0.4202
 8449TIP3   OH246837   4.247   3.881   5.161 -0.7158  0.0405 -0.5998
 8449TIP3    H146838   4.203   3.796   5.153  1.0477 -0.8696 -0.7474
 8449TIP3    H246839   4.304   3.886   5.084 -0.4105  1.1213 -0.3096
 8450TIP3   OH246840   3.665   2.994   0.989 -0.1757  0.2823  0.6633
 8450TIP3    H146841   3.625   3.079   0.970  1.9574  1.1146 -0.2475
 8450TIP3    H246842   3.689   2.959   0.903  0.7565 -0.3277  1.1615
 8451TIP3   OH246843   0.821   2.129  13.068  0.1006  0.6570  0.4194
 8451TIP3    H146844   0.814   2.134  12.973 -1.0664 -0.7034  0.4082
 8451TIP3    H246845   0.792   2.215  13.099 -0.0215  0.9232 -0.4293
 8452TIP3   OH246846   1.409   5.186  14.333  0.5145 -0.4998 -0.1251
 8452TIP3    H146847   1.386   5.270  14.374  0.3116  0.0599 -1.3446
 8452TIP3    H246848   1.485   5.155  14.381  0.7506  0.5221  0.1636
 8453TIP3   OH246849   4.955   5.600   4.025 -0.7322  0.0911 -0.1061
 8453TIP3    H146850   4.966   5.643   4.110 -0.3707 -0.4460  0.1193
 8453TIP3    H246851   4.893   5.656   3.978  0.2392  1.2331 -0.0667
 8454TIP3   OH246852   0.095   3.022  14.398 -0.1333  0.1464  0.1987
 8454TIP3    H146853   0.105   3.098  14.455 -0.2764  0.3931 -0.1021
 8454TIP3    H246854   0.178   3.017  14.350  0.1574 -0.3230  0.7397
 8455TIP3   OH246855   3.261   4.971   4.620 -0.2753  0.3527 -0.3711
 8455TIP3    H146856   3.283   5.063   4.610 -0.4980  0.3229 -1.2020
 8455TIP3    H246857   3.228   4.963   4.710 -3.1888  1.6960 -1.2583
 8456TIP3   OH246858   6.157   0.529  13.019 -0.0104 -0.9864  0.1550
 8456TIP3    H146859   6.194   0.479  12.946 -1.5085  0.0651 -1.3541
 8456TIP3    H246860   6.205   0.612  13.017  1.1374 -1.6089  1.4542
 8457TIP3   OH246861   5.874   3.510   2.664  0.2365 -0.1045  0.0274
 8457TIP3    H146862   5.839   3.575   2.602 -0.4796  0.9796  1.5373
 8457TIP3    H246863   5.878   3.557   2.747  1.6660 -1.3994  0.7025
 8458TIP3   OH246864   6.200   3.695   5.814  0.1434  0.2612  0.0656
 8458TIP3    H146865   6.295   3.687   5.804  0.0820  1.5874 -1.9254
 8458TIP3    H246866   6.176   3.764   5.753 -1.9934  0.5866  1.2465
 8459TIP3   OH246867   3.126   1.370  15.156  0.4259  0.1134  0.4173
 8459TIP3    H146868   3.215   1.399  15.179 -0.4334  2.3549  0.9789
 8459TIP3    H246869   3.089   1.339  15.239  0.4195 -0.0975  0.3344
 8460TIP3   OH246870   4.318   3.460  12.273 -0.0578 -0.1852  0.0951
 8460TIP3    H146871   4.280   3.543  12.302 -0.6271 -0.4462  0.1127
 8460TIP3    H246872   4.269   3.437  12.194  0.6896 -0.0680 -0.4062
 8461TIP3   OH246873   2.024   2.472   6.116 -0.2094  0.1675  0.1536
 8461TIP3    H146874   1.991   2.496   6.203 -2.4063  2.8393 -1.3575
 8461TIP3    H246875   2.102   2.526   6.104 -0.2586  0.2427  0.1793
 8462TIP3   OH246876   5.016   0.164  12.250  0.0007 -0.4174  0.2633
 8462TIP3    H146877   4.976   0.248  12.228 -0.8422 -0.5906  1.1005
 8462TIP3    H246878   4.946   0.100  12.237  0.5548 -0.9565 -0.0885
 8463TIP3   OH246879   3.014   4.053   2.436 -0.3389 -0.0834  0.4746
 8463TIP3    H146880   3.059   3.973   2.461  0.0007  0.1391  0.5722
 8463TIP3    H246881   2.955   4.072   2.509  0.3633  0.3478  0.9358
 8464TIP3   OH246882   0.599   1.628  12.549  0.1350 -0.4268 -0.5655
 8464TIP3    H146883   0.520   1.579  12.573  0.5734 -0.5795  0.6052
 8464TIP3    H246884   0.670   1.580  12.591  0.4336  2.0825  1.9960
 8465TIP3   OH246885   0.833   3.735  13.625 -0.3632 -0.8085 -0.3202
 8465TIP3    H146886   0.753   3.700  13.586 -0.6135 -1.2589  0.5848
 8465TIP3    H246887   0.898   3.665  13.614  0.0230 -0.2865 -1.4167
 8466TIP3   OH246888   3.699   6.356  13.455  0.0180 -0.3563  0.4124
 8466TIP3    H146889   3.767   6.288  13.456 -0.2142 -0.5884  1.0740
 8466TIP3    H246890   3.663   6.353  13.367 -0.0502 -1.1573  0.4633
 8467TIP3   OH246891   4.084   1.816  11.802  0.1962  0.2275 -0.1362
 8467TIP3    H146892   4.023   1.758  11.848 -1.8106  1.0283 -1.7537
 8467TIP3    H246893   4.032   1.892  11.778  2.8424  2.8413  2.0938
 8468TIP3   OH246894   1.408   2.597   2.286  0.0058 -0.5234  0.6587
 8468TIP3    H146895   1.451   2.514   2.263  1.5981  0.6951 -0.8734
 8468TIP3    H246896   1.463   2.634   2.355 -1.4109 -1.3015  2.2513
 8469TIP3   OH246897   0.856   6.128   1.710  0.1569 -0.2645  0.0684
 8469TIP3    H146898   0.905   6.172   1.641 -0.3143  1.0538  0.5552
 8469TIP3    H246899   0.846   6.038   1.679  1.2229 -0.0667 -0.8951
 8470TIP3   OH246900   4.750   2.917   3.662  0.3065 -0.3546  0.4444
 8470TIP3    H146901   4.780   2.981   3.598 -0.7111 -1.2771 -0.9922
 8470TIP3    H246902   4.681   2.869   3.617 -3.1696  1.5154  3.5631
 8471TIP3   OH246903   3.582   5.402   4.141 -0.0910  0.1761  0.1476
 8471TIP3    H146904   3.639   5.375   4.068  0.1378  0.4239  0.2352
 8471TIP3    H246905   3.597   5.496   4.150 -2.5413  0.7916 -1.5806
 8472TIP3   OH246906   4.521   2.844   4.464  0.3742 -0.0284 -0.3537
 8472TIP3    H146907   4.540   2.750   4.459 -0.5003 -0.2024 -0.5306
 8472TIP3    H246908   4.441   2.854   4.411 -0.4493  0.5537  0.9934
 8473TIP3   OH246909   0.677   3.076  16.599  0.5623 -0.0396 -0.1198
 8473TIP3    H146910   0.725   3.041  16.674 -0.6797 -0.3889  0.5284
 8473TIP3    H246911   0.603   3.122  16.637  0.3562  0.4673 -1.1077
 8474TIP3   OH246912   2.576   6.689   4.076  0.2794  0.0250 -0.0136
 8474TIP3    H146913   2.556   6.779   4.051 -0.7675 -1.0766 -3.4484
 8474TIP3    H246914   2.669   6.678   4.056 -0.3519 -0.5870 -2.8594
 8475TIP3   OH246915   2.521   2.694  11.493  0.2764 -0.1790 -0.0448
 8475TIP3    H146916   2.587   2.708  11.561  0.1474  0.9427 -0.1342
 8475TIP3    H246917   2.451   2.756  11.515  0.0138 -0.1678 -0.9043
 8476TIP3   OH246918   1.492   3.001   5.519  0.0298 -0.3327  0.4169
 8476TIP3    H146919   1.486   3.011   5.614 -0.7157 -1.4759  0.5016
 8476TIP3    H246920   1.414   2.952   5.495  0.6770 -0.8606 -0.6709
 8477TIP3   OH246921   3.227   6.186  17.240 -0.1355 -0.1017  0.3593
 8477TIP3    H146922   3.193   6.158  17.325 -0.9285  0.4653  0.2332
 8477TIP3    H246923   3.212   6.280  17.238 -2.4549 -0.4471 -1.4420
 8478TIP3   OH246924   2.261   6.105  13.473 -0.4619  0.1851 -0.0429
 8478TIP3    H146925   2.297   6.027  13.430  0.1635  0.6314 -0.3369
 8478TIP3    H246926   2.329   6.133  13.534 -1.3479 -0.4491  1.2622
 8479TIP3   OH246927   1.595   2.391   3.174 -0.1077  0.0922  0.4902
 8479TIP3    H146928   1.539   2.466   3.152 -3.6469 -2.6646 -0.3513
 8479TIP3    H246929   1.556   2.356   3.254  1.2256 -1.1335  0.5980
 8480TIP3   OH246930   2.033   4.035   0.110 -0.0008 -0.0020 -0.0467
 8480TIP3    H146931   2.111   3.994   0.073 -0.4643  0.0862 -1.1436
 8480TIP3    H246932   2.055   4.052   0.202  1.8773  1.5897 -0.7702
 8481TIP3   OH246933   5.560   5.773   0.286  0.4197  0.5934 -0.3711
 8481TIP3    H146934   5.554   5.680   0.262 -1.2409  0.8033 -0.8502
 8481TIP3    H246935   5.474   5.794   0.322  0.9202  1.8487  0.1193
 8482TIP3   OH246936   4.403   6.520  14.787  0.1553  0.4031 -0.0629
 8482TIP3    H146937   4.435   6.547  14.873  0.0635  1.0533 -0.2306
 8482TIP3    H246938   4.404   6.424  14.790 -0.1971  0.4244  0.7869
 8483TIP3   OH246939   3.459   5.279   2.391  0.2533  0.1355  0.2404
 8483TIP3    H146940   3.370   5.310   2.406 -0.2732 -1.0752 -0.3203
 8483TIP3    H246941   3.515   5.340   2.439 -0.9783 -0.0016  1.8624
 8484TIP3   OH246942   2.504   0.924  12.712 -0.4946 -0.2760 -0.0016
 8484TIP3    H146943   2.455   0.844  12.689 -0.0464 -0.1850 -1.3445
 8484TIP3    H246944   2.583   0.892  12.755 -1.1288 -0.4765  1.0314
 8485TIP3   OH246945   0.460   5.587  11.657 -0.3991  0.3413  0.3792
 8485TIP3    H146946   0.422   5.499  11.655  1.3355 -0.4150 -0.2589
 8485TIP3    H246947   0.544   5.576  11.702 -1.2909  2.1452  2.5440
 8486TIP3   OH246948   1.437   0.737  12.114 -0.0944  0.1429 -0.1536
 8486TIP3    H146949   1.369   0.706  12.054  1.4284 -0.1713 -1.7832
 8486TIP3    H246950   1.508   0.674  12.103  0.6415  0.7260  1.1662
 8487TIP3   OH246951   1.604   5.583   0.566 -0.3868 -0.3215 -0.6422
 8487TIP3    H146952   1.553   5.520   0.515 -0.5409  1.0686 -2.2631
 8487TIP3    H246953   1.539   5.626   0.622 -0.0769 -2.5112  1.5057
 8488TIP3   OH246954   3.799   0.574  14.053 -0.3917  0.1444 -0.3550
 8488TIP3    H146955   3.740   0.502  14.029 -0.9449  0.9097 -1.3199
 8488TIP3    H246956   3.767   0.649  14.003 -0.5371  1.3727  1.5468
 8489TIP3   OH246957   3.255   3.410  15.713  0.4713  1.1989  0.2380
 8489TIP3    H146958   3.332   3.430  15.767 -0.4394  0.3733  1.8948
 8489TIP3    H246959   3.262   3.316  15.696  1.5261  1.7084 -2.3771
 8490TIP3   OH246960   3.952   5.781  15.096  0.8388 -0.0994 -0.0682
 8490TIP3    H146961   3.928   5.805  15.185  2.7900  0.6532  0.2745
 8490TIP3    H246962   3.913   5.695  15.083 -1.6855  0.9202  0.5776
 8491TIP3   OH246963   1.111   4.371   4.636  0.0264  0.5184  0.3601
 8491TIP3    H146964   1.176   4.303   4.614  0.1450  1.6215 -3.0420
 8491TIP3    H246965   1.054   4.375   4.558 -0.7819  3.3894  1.0468
 8492TIP3   OH246966   4.415   6.133   1.214 -0.5511 -0.2736 -0.5394
 8492TIP3    H146967   4.324   6.141   1.245 -0.2394  1.0541  0.0685
 8492TIP3    H246968   4.416   6.178   1.130 -0.3946 -0.0428 -0.4144
 8493TIP3   OH246969   3.766   1.010   2.940 -0.0354 -0.0191  0.0111
 8493TIP3    H146970   3.733   1.092   2.905 -0.2152  0.2786  0.8621
 8493TIP3    H246971   3.853   1.032   2.975 -0.7499  0.1932  1.7142
 8494TIP3   OH246972   4.866   6.797   2.337  0.1815  0.0592  0.3748
 8494TIP3    H146973   4.851   6.791   2.431  0.7035  1.1838  0.5350
 8494TIP3    H246974   4.953   6.760   2.323 -0.5352 -1.5819  0.1178
 8495TIP3   OH246975   2.047   5.200   5.832 -0.1913 -0.1239 -0.3475
 8495TIP3    H146976   1.958   5.181   5.802 -0.3255 -2.5403  1.5023
 8495TIP3    H246977   2.037   5.228   5.923  0.9569 -0.3951 -0.1256
 8496TIP3   OH246978   0.772   6.765  11.176 -0.1930  0.1585  0.5065
 8496TIP3    H146979   0.810   6.783  11.262 -0.3482  1.4752  0.3134
 8496TIP3    H246980   0.719   6.843  11.157 -0.0726 -0.0801 -0.8144
 8497TIP3   OH246981   6.581   3.593  15.041  0.4662  0.3649 -0.9152
 8497TIP3    H146982   6.572   3.576  14.948 -0.0590  0.4316 -0.8784
 8497TIP3    H246983   6.516   3.660  15.060  1.1576  0.9660 -0.6648
 8498TIP3   OH246984   1.439   2.783  10.918 -0.4805  0.2584 -0.2332
 8498TIP3    H146985   1.370   2.815  10.976 -1.0853  0.4844 -1.0574
 8498TIP3    H246986   1.398   2.780  10.831  0.3125 -0.3675 -0.5993
 8499TIP3   OH246987   1.871   2.215  14.272  0.2592 -0.4184  0.4820
 8499TIP3    H146988   1.888   2.304  14.241 -0.3435 -0.2572  0.6204
 8499TIP3    H246989   1.854   2.224  14.366  1.9396 -0.8918  0.8543
 8500TIP3   OH246990   1.525   6.764   3.008  0.5130  0.0039 -0.5468
 8500TIP3    H146991   1.455   6.828   3.022  1.5330  1.2539 -1.0839
 8500TIP3    H246992   1.593   6.812   2.962  3.1180 -0.3013  2.8109
 8501TIP3   OH246993   3.388   2.888   5.243  0.0106  0.2605  0.1072
 8501TIP3    H146994   3.308   2.864   5.289 -0.6780  1.8235 -0.2581
 8501TIP3    H246995   3.458   2.869   5.305 -0.7884  0.7977  1.1848
 8502TIP3   OH246996   4.595   3.149   4.457  0.5872  0.4695  0.4227
 8502TIP3    H146997   4.674   3.137   4.510 -0.9267  0.4853  2.7456
 8502TIP3    H246998   4.529   3.094   4.499 -1.0747  1.6740 -0.5453
 8503TIP3   OH246999   1.733   1.890  11.616  0.5844 -0.1286 -0.5491
 8503TIP3    H147000   1.756   1.865  11.526  0.9408 -0.5488 -0.3406
 8503TIP3    H247001   1.648   1.849  11.630 -0.3388  1.4633 -1.3342
 8504TIP3   OH247002   4.146   0.846   3.295 -0.3659  0.0748 -0.2331
 8504TIP3    H147003   4.194   0.765   3.279  1.5920  0.3658  3.5627
 8504TIP3    H247004   4.058   0.818   3.321 -0.6301 -0.6779 -1.8905
 8505TIP3   OH247005   3.942   1.023  16.764  0.1091 -0.1486 -0.0334
 8505TIP3    H147006   4.037   1.028  16.754  0.1533 -3.2247 -1.6213
 8505TIP3    H247007   3.928   0.958  16.832 -0.8828  0.4077  0.3066
 8506TIP3   OH247008   4.744   0.255   4.062 -1.0783 -0.0814 -0.0931
 8506TIP3    H147009   4.823   0.265   4.115 -0.0573  2.4221 -1.9974
 8506TIP3    H247010   4.766   0.187   3.997 -0.8515 -0.0973  0.0019
 8507TIP3   OH247011   2.427   6.772   4.360 -0.6298  0.8646 -0.3988
 8507TIP3    H147012   2.505   6.826   4.369 -0.6886  0.8544  0.2613
 8507TIP3    H247013   2.362   6.816   4.416 -0.6021 -0.0276  0.3410
 8508TIP3   OH247014   2.573   6.563   0.782  0.4525 -0.0554 -0.2149
 8508TIP3    H147015   2.548   6.647   0.820  2.4449  0.7708 -0.7121
 8508TIP3    H247016   2.513   6.551   0.708  1.9267  2.2460 -1.8275
 8509TIP3   OH247017   6.038   2.578  13.595  0.1490 -0.1659  0.2611
 8509TIP3    H147018   6.109   2.569  13.531 -0.9242 -1.8387 -0.7310
 8509TIP3    H247019   6.038   2.671  13.618  0.1925  0.6126 -2.6494
 8510TIP3   OH247020   0.270   3.485  13.806  0.1160 -0.0336  0.1345
 8510TIP3    H147021   0.251   3.563  13.858 -2.1921 -1.1676  1.0226
 8510TIP3    H247022   0.284   3.416  13.871  0.7540 -0.6876 -0.6875
 8511TIP3   OH247023   0.053   1.635   3.147  0.5166  0.6158 -0.0626
 8511TIP3    H147024  -0.013   1.705   3.148 -0.1626  0.0755 -3.3637
 8511TIP3    H247025   0.002   1.554   3.136  1.5392 -0.0886  0.3154
 8512TIP3   OH247026   6.806   2.237  16.909  1.0141  0.0867  0.1896
 8512TIP3    H147027   6.779   2.243  16.817  1.0042 -0.2530  0.1714
 8512TIP3    H247028   6.867   2.310  16.920  1.7707 -0.4620 -0.3455
 8513TIP3   OH247029   6.034   0.039   0.345 -0.3505  0.6438  0.6292
 8513TIP3    H147030   6.042  -0.056   0.358  1.0270  0.6231 -0.2568
 8513TIP3    H247031   6.054   0.077   0.431  1.1854  0.2078  0.4802
 8514TIP3   OH247032   3.760   4.352   5.289 -0.4066 -0.0050  0.0593
 8514TIP3    H147033   3.774   4.399   5.206  0.1230 -1.4625 -0.6995
 8514TIP3    H247034   3.840   4.300   5.300 -1.7834 -2.2211 -0.1286
 8515TIP3   OH247035   1.564   1.681   1.552  0.4015 -0.2262  0.3072
 8515TIP3    H147036   1.527   1.638   1.475  0.3416 -0.8143  0.6574
 8515TIP3    H247037   1.640   1.627   1.575  0.6875  0.2066  0.3886
 8516TIP3   OH247038   4.611   6.779   5.658 -0.0408  0.2639 -0.4401
 8516TIP3    H147039   4.685   6.817   5.705 -0.4111 -1.5038  1.6878
 8516TIP3    H247040   4.534   6.823   5.695 -0.3074 -0.8751  0.4010
 8517TIP3   OH247041   0.023   1.749  14.888  0.0626  0.3422  0.0598
 8517TIP3    H147042   0.077   1.675  14.861  0.0621 -0.0213  1.0105
 8517TIP3    H247043   0.032   1.813  14.818  1.0457 -0.0641 -0.1926
 8518TIP3   OH247044   4.676   3.618  13.947 -0.1471  0.2883 -0.4906
 8518TIP3    H147045   4.704   3.706  13.974 -0.6890  0.0278  0.9930
 8518TIP3    H247046   4.664   3.624  13.853  0.6204  1.5882 -0.5146
 8519TIP3   OH247047   0.984   6.110  17.112  0.2049  0.8601  0.2431
 8519TIP3    H147048   1.029   6.194  17.114  1.4745  0.2253 -0.5878
 8519TIP3    H247049   0.939   6.109  17.027  1.5962  0.0065 -0.5017
 8520TIP3   OH247050   0.379   3.219  11.188  0.1088 -0.9790 -0.7583
 8520TIP3    H147051   0.430   3.207  11.108  0.9160 -1.6133 -0.1705
 8520TIP3    H247052   0.436   3.185  11.257 -1.3061 -2.1102 -0.1324
 8521TIP3   OH247053   2.644   0.746   3.365  0.2231  0.2208  0.1194
 8521TIP3    H147054   2.590   0.672   3.338 -0.7237  1.4394 -1.4390
 8521TIP3    H247055   2.583   0.804   3.411  0.9408  0.0557  1.2816
 8522TIP3   OH247056   4.362   0.069   3.591  0.3567 -0.3797 -0.3898
 8522TIP3    H147057   4.294   0.074   3.659 -0.1201  0.5693 -0.9194
 8522TIP3    H247058   4.404   0.155   3.593  2.0293 -1.1882  0.4077
 8523TIP3   OH247059   4.779   3.212   4.708  0.2684 -0.5273  0.8352
 8523TIP3    H147060   4.820   3.130   4.736  0.3901  0.0077  2.2419
 8523TIP3    H247061   4.782   3.268   4.786 -0.1701  0.6727 -0.0053
 8524TIP3   OH247062   2.534   3.721  16.647 -0.4058 -0.3684 -0.0410
 8524TIP3    H147063   2.545   3.814  16.669  2.3226 -0.7801  0.5771
 8524TIP3    H247064   2.621   3.683  16.662 -1.5728 -3.0966  0.0439
 8525TIP3   OH247065   1.246   0.412  15.853  0.3507  0.1841 -0.2684
 8525TIP3    H147066   1.155   0.408  15.884  0.4829 -0.8667  0.0013
 8525TIP3    H247067   1.239   0.421  15.758 -0.0483  1.9679 -0.0821
 8526TIP3   OH247068   3.397   5.767   2.068  0.1677 -0.1428  0.2600
 8526TIP3    H147069   3.479   5.726   2.097  0.1429  0.0959  0.6642
 8526TIP3    H247070   3.332   5.698   2.074  0.2288 -0.1827  0.4572
 8527TIP3   OH247071   5.150   0.853  15.945  0.4927 -0.1903  0.2488
 8527TIP3    H147072   5.157   0.831  15.852 -1.4421 -1.6491  0.3930
 8527TIP3    H247073   5.152   0.948  15.948  0.8386 -0.1362 -1.2636
 8528TIP3   OH247074   5.096   0.058   2.562  0.2742  0.5419 -0.4414
 8528TIP3    H147075   5.055   0.012   2.635 -0.8919  1.0263 -0.7820
 8528TIP3    H247076   5.184   0.079   2.593  0.3925 -0.8014  0.1710
 8529TIP3   OH247077   3.843   0.140   0.016 -0.4185 -0.3392  0.0900
 8529TIP3    H147078   3.781   0.122  -0.055 -0.0654  0.2369 -0.3775
 8529TIP3    H247079   3.788   0.172   0.088 -0.6495  0.3655 -0.3930
 8530TIP3   OH247080   6.691   1.663   2.275  0.4879  0.5929 -0.3984
 8530TIP3    H147081   6.605   1.694   2.249 -0.3047 -0.8268  0.4748
 8530TIP3    H247082   6.716   1.601   2.207 -0.7718 -1.7078  1.1755
 8531TIP3   OH247083   0.296   4.424   3.928 -0.2584  0.8499 -0.8881
 8531TIP3    H147084   0.228   4.394   3.868 -2.6040  3.2734  0.4397
 8531TIP3    H247085   0.256   4.417   4.015  1.9403  0.4061  0.1286
 8532TIP3   OH247086   0.808   1.720  14.035 -0.2447 -0.2325  0.0767
 8532TIP3    H147087   0.724   1.688  14.002  0.2906  0.2452 -1.7881
 8532TIP3    H247088   0.786   1.772  14.112 -1.7596  0.7986 -1.0465
 8533TIP3   OH247089   6.201   5.659  14.213 -0.0853 -0.0816 -0.2761
 8533TIP3    H147090   6.263   5.685  14.281  0.1057 -0.2407 -0.3900
 8533TIP3    H247091   6.205   5.730  14.148 -0.7488  0.3906  0.1970
 8534TIP3   OH247092   3.168   3.297  14.797  0.0611 -0.0949  0.1109
 8534TIP3    H147093   3.123   3.372  14.760  0.4877 -0.3691 -0.9737
 8534TIP3    H247094   3.119   3.276  14.876 -0.1055  1.2754  0.3849
 8535TIP3   OH247095   3.534   0.891  11.910  0.0416  0.4739  0.0311
 8535TIP3    H147096   3.538   0.817  11.850  1.4194  1.1186 -0.6906
 8535TIP3    H247097   3.487   0.959  11.860  3.0172  1.7356 -1.1503
 8536TIP3   OH247098   4.715   4.547   2.486  0.0082  0.2841 -0.3139
 8536TIP3    H147099   4.755   4.574   2.568 -1.3437  0.9424  0.1514
 8536TIP3    H247100   4.725   4.451   2.484  2.9636  0.5549 -0.9771
 8537TIP3   OH247101   1.272   4.031   0.016 -0.1823  0.7075  0.3354
 8537TIP3    H147102   1.208   3.981   0.066  1.2627 -0.5384  1.0062
 8537TIP3    H247103   1.254   4.122   0.037 -2.6992  0.4767 -0.6938
 8538TIP3   OH247104   4.243   6.323   0.425 -0.3787 -0.3079  0.3957
 8538TIP3    H147105   4.294   6.254   0.384  0.5582 -0.1072  1.2115
 8538TIP3    H247106   4.229   6.387   0.355 -2.1103 -1.7562 -0.6401
 8539TIP3   OH247107   3.670   3.867  16.891 -0.1143  0.0707  0.1081
 8539TIP3    H147108   3.680   3.804  16.820  3.5696  0.4502  0.2275
 8539TIP3    H247109   3.632   3.816  16.963 -0.9395 -1.0376 -1.0964
 8540TIP3   OH247110   2.653   5.364  17.211 -0.5115  0.1003 -0.8002
 8540TIP3    H147111   2.660   5.321  17.126 -0.5570 -0.9582 -0.2836
 8540TIP3    H247112   2.711   5.313  17.268 -1.6943 -0.1692  0.1834
 8541TIP3   OH247113   6.429   1.965  13.697  0.0207 -0.1820 -0.3286
 8541TIP3    H147114   6.424   1.961  13.601 -0.2716 -1.8867 -0.2520
 8541TIP3    H247115   6.344   2.000  13.724 -0.3274 -0.7784 -0.6379
 8542TIP3   OH247116   5.356   6.454  14.526 -0.5446 -0.0437  0.2256
 8542TIP3    H147117   5.317   6.541  14.524  0.0409  0.2199  0.1784
 8542TIP3    H247118   5.370   6.432  14.434 -0.2929 -0.0090  0.2561
 8543TIP3   OH247119   4.482   4.526   4.615 -0.1690 -0.0585 -0.5917
 8543TIP3    H147120   4.494   4.616   4.586 -0.1247  0.5591  1.2904
 8543TIP3    H247121   4.387   4.517   4.627  0.0406  0.5644  1.7332
 8544TIP3   OH247122   0.127   1.801   4.940 -0.7676  0.1588 -0.3312
 8544TIP3    H147123   0.049   1.784   4.994  0.2532 -0.9576  0.8033
 8544TIP3    H247124   0.194   1.743   4.975  0.1364 -0.0447 -2.3409
 8545TIP3   OH247125   1.041   6.372  16.991 -0.2087  0.6416  0.0783
 8545TIP3    H147126   1.089   6.437  16.941  0.7774  0.1747  0.3942
 8545TIP3    H247127   0.961   6.417  17.020  0.1703  1.5082 -0.2251
 8546TIP3   OH247128   3.102   5.998  14.652 -0.0542  0.9276  0.1176
 8546TIP3    H147129   3.031   6.031  14.597 -0.7092 -2.6687 -1.3610
 8546TIP3    H247130   3.057   5.951  14.723  0.8173 -0.2693 -0.1026
 8547TIP3   OH247131   0.580   2.434  15.392  0.1434  0.3482 -0.4534
 8547TIP3    H147132   0.612   2.498  15.328 -1.7159  0.9299 -0.8308
 8547TIP3    H247133   0.529   2.487  15.454  0.4223 -0.4728  0.4865
 8548TIP3   OH247134   3.842   5.152   1.400  0.7267  0.1916 -0.9787
 8548TIP3    H147135   3.925   5.196   1.381  1.4081 -0.7254 -0.1879
 8548TIP3    H247136   3.792   5.215   1.451  0.8875  0.7948 -1.5669
 8549TIP3   OH247137   4.082   4.728  13.985  0.1096  0.1546  0.5761
 8549TIP3    H147138   4.066   4.822  13.987 -0.8871 -0.0250  2.1061
 8549TIP3    H247139   4.007   4.690  14.032 -1.8776 -1.7395 -3.8014
 8550TIP3   OH247140   2.764   6.162   5.051 -0.1664  0.0911 -0.0558
 8550TIP3    H147141   2.850   6.184   5.087 -0.1177 -2.0539  1.2577
 8550TIP3    H247142   2.728   6.245   5.020  1.2309  1.4439  1.8613
 8551TIP3   OH247143   3.083   4.915   2.716 -0.1019  0.5390 -0.1681
 8551TIP3    H147144   3.131   4.994   2.739 -1.0357  1.0504  0.0494
 8551TIP3    H247145   3.020   4.904   2.787 -1.0554  0.4991 -1.0122
 8552TIP3   OH247146   2.095   3.454   4.316 -0.0928  0.3014 -0.2856
 8552TIP3    H147147   2.054   3.503   4.245 -3.3801 -0.8283  0.7564
 8552TIP3    H247148   2.042   3.375   4.324  1.8585 -0.8587  1.6678
 8553TIP3   OH247149   4.704   4.639  16.106  0.2075  0.2875 -0.1810
 8553TIP3    H147150   4.764   4.565  16.098  0.9173  0.9078 -0.6984
 8553TIP3    H247151   4.725   4.695  16.031 -1.4719  0.1877 -0.7510
 8554TIP3   OH247152   4.717   3.888  15.287  0.2474 -0.0500  0.0862
 8554TIP3    H147153   4.807   3.920  15.281 -0.0104  0.5420 -0.8085
 8554TIP3    H247154   4.664   3.967  15.282 -0.2946 -0.3012  1.7948
 8555TIP3   OH247155   3.456   5.703   1.680  0.5916  0.6905 -0.4014
 8555TIP3    H147156   3.549   5.722   1.694  0.5520  0.5115  0.0732
 8555TIP3    H247157   3.415   5.790   1.674  0.8464  0.7769 -1.0158
 8556TIP3   OH247158   4.782   4.292  14.072  0.2607 -0.2837  0.9590
 8556TIP3    H147159   4.688   4.281  14.055  0.7238 -1.4025 -1.0420
 8556TIP3    H247160   4.798   4.385  14.055 -0.1879 -0.4293 -0.3161
 8557TIP3   OH247161   6.180   2.880  14.182  0.1159 -0.5749  0.0401
 8557TIP3    H147162   6.223   2.962  14.208  0.3295  0.0286 -2.0344
 8557TIP3    H247163   6.243   2.811  14.205 -0.6236 -0.3177  3.0325
 8558TIP3   OH247164   4.311   6.359   4.151 -0.2444 -0.1840  0.3189
 8558TIP3    H147165   4.304   6.303   4.228 -0.8026  1.0790  1.2122
 8558TIP3    H247166   4.249   6.322   4.088 -0.4014 -0.7219  0.7891
 8559TIP3   OH247167   5.713   6.808   1.673 -0.1224  0.4143  0.0545
 8559TIP3    H147168   5.629   6.766   1.689 -0.6834  1.4366 -0.1871
 8559TIP3    H247169   5.777   6.736   1.677 -1.1777 -0.6235 -1.4588
 8560TIP3   OH247170   6.597   3.463  15.937  0.3012  0.2966 -0.2768
 8560TIP3    H147171   6.673   3.466  15.879  0.6415  1.3195  0.2086
 8560TIP3    H247172   6.631   3.431  16.020  0.2454  0.9497  0.0016
 8561TIP3   OH247173   3.144   5.686  15.588 -0.2493  0.5457  0.2327
 8561TIP3    H147174   3.098   5.682  15.672  0.3969  0.9402  0.6063
 8561TIP3    H247175   3.220   5.629  15.600 -0.5087  0.0775 -0.3120
 8562TIP3   OH247176   0.450   1.170  16.556  0.2615 -0.0391  0.1653
 8562TIP3    H147177   0.446   1.261  16.586 -0.2705  0.1299 -0.4359
 8562TIP3    H247178   0.400   1.121  16.621 -0.3699  0.2445 -0.1115
 8563TIP3   OH247179   3.586   6.578   0.624 -0.3292 -0.2406 -0.2307
 8563TIP3    H147180   3.605   6.603   0.533  0.3859 -1.9957 -0.5767
 8563TIP3    H247181   3.501   6.618   0.643  0.6202  2.1695 -0.8643
 8564TIP3   OH247182   3.645   1.259   6.160  0.4353 -0.1491  1.1014
 8564TIP3    H147183   3.695   1.326   6.113 -1.3780  0.0861 -0.5832
 8564TIP3    H247184   3.617   1.302   6.241  2.1038  0.0162  1.6088
 8565TIP3   OH247185   0.086   3.640  11.957 -0.3234  0.5077  0.7173
 8565TIP3    H147186   0.127   3.694  11.889  0.6894 -0.6927  0.3582
 8565TIP3    H247187   0.155   3.581  11.986 -1.0584  0.2602  2.0224
 8566TIP3   OH247188   1.166   5.827  16.324  0.2310 -0.3451  0.5042
 8566TIP3    H147189   1.151   5.773  16.402 -1.7320  0.1666  0.4918
 8566TIP3    H247190   1.211   5.905  16.357 -1.8011  0.4908  1.3392
 8567TIP3   OH247191   5.248   3.247  16.596 -0.1303 -0.4436  0.2670
 8567TIP3    H147192   5.305   3.210  16.529 -0.0592 -0.3724  0.2877
 8567TIP3    H247193   5.197   3.173  16.628 -0.9149 -0.2901 -0.6065
 8568TIP3   OH247194   1.780   6.318  17.047  0.7172  0.5062  0.1198
 8568TIP3    H147195   1.777   6.223  17.040  0.7523  0.5473 -0.4870
 8568TIP3    H247196   1.792   6.348  16.957 -1.6285  1.1755  0.0016
 8569TIP3   OH247197   1.402   5.173   5.211  1.3066  0.3000  0.1150
 8569TIP3    H147198   1.395   5.127   5.295  0.0641  1.8076  0.8655
 8569TIP3    H247199   1.491   5.210   5.211  1.4314 -0.0014  0.6121
 8570TIP3   OH247200   4.675   3.637   1.224 -0.5380  0.3529 -0.6087
 8570TIP3    H147201   4.642   3.579   1.292  0.4422 -0.1990 -0.6006
 8570TIP3    H247202   4.625   3.614   1.146 -1.2763  0.6102 -0.2240
 8571TIP3   OH247203   0.840   3.298  11.695 -0.4970  0.3830  0.2462
 8571TIP3    H147204   0.756   3.334  11.726 -0.6964 -1.3328  1.7848
 8571TIP3    H247205   0.837   3.310  11.600 -1.7338  1.8986  0.4465
 8572TIP3   OH247206   1.344   1.854   4.721 -0.0487  0.0030 -0.0947
 8572TIP3    H147207   1.331   1.762   4.699 -0.8862 -0.1291  0.9331
 8572TIP3    H247208   1.437   1.861   4.742 -0.5561 -1.2250  2.7105
 8573TIP3   OH247209   3.634   0.058  16.885 -0.1043 -0.8542 -0.7647
 8573TIP3    H147210   3.686   0.033  16.961 -0.7315 -0.1659 -0.0887
 8573TIP3    H247211   3.592   0.140  16.911  0.1891 -0.2500 -2.0967
 8574TIP3   OH247212   0.784   0.682   5.039 -0.3893  0.3004  0.0213
 8574TIP3    H147213   0.726   0.655   4.968  1.8801 -1.9190 -1.0517
 8574TIP3    H247214   0.811   0.600   5.080  2.7592  1.2212 -0.1175
 8575TIP3   OH247215   4.411   0.609  11.971 -0.4266  0.3979 -0.0788
 8575TIP3    H147216   4.386   0.581  12.059 -0.0389 -0.0878 -0.1197
 8575TIP3    H247217   4.416   0.528  11.920 -0.3655  0.6473 -0.4768
 8576TIP3   OH247218   0.668   6.321   1.711  0.1234 -0.2424  0.2948
 8576TIP3    H147219   0.666   6.347   1.619 -1.2652 -0.5229  0.2373
 8576TIP3    H247220   0.743   6.263   1.718  1.2708  1.1417 -0.2875
 8577TIP3   OH247221   5.679   0.657   3.618 -0.2797  0.4032  0.6697
 8577TIP3    H147222   5.678   0.658   3.522  0.8228  1.3633  0.6448
 8577TIP3    H247223   5.664   0.749   3.643 -2.3038 -0.1177  1.4623
 8578TIP3   OH247224   5.440   6.363   2.734 -0.1330 -0.4982 -0.1487
 8578TIP3    H147225   5.357   6.329   2.768  0.1373 -1.7763 -0.7399
 8578TIP3    H247226   5.417   6.398   2.648 -0.3024  0.3539  0.2331
 8579TIP3   OH247227   6.227   2.077  16.052  0.2002 -0.1656 -0.0096
 8579TIP3    H147228   6.276   2.147  16.009  0.8843  0.4480  1.7258
 8579TIP3    H247229   6.294   2.017  16.085 -0.3288 -0.8511 -0.1508
 8580TIP3   OH247230   5.724   2.586  13.996 -0.4826  0.0143  0.2366
 8580TIP3    H147231   5.817   2.604  14.005 -0.1920 -1.5327  0.5875
 8580TIP3    H247232   5.689   2.594  14.085 -0.3812 -0.8593  0.3692
 8581TIP3   OH247233   1.607   5.156   1.396 -0.7060  0.3458  0.3728
 8581TIP3    H147234   1.657   5.102   1.458 -0.5618  0.9767  0.8063
 8581TIP3    H247235   1.529   5.183   1.445 -0.9945  0.1655  0.0124
 8582TIP3   OH247236   3.544   5.547   1.177  0.1437  0.1618  0.2919
 8582TIP3    H147237   3.630   5.573   1.145 -0.1861  0.2279 -0.5356
 8582TIP3    H247238   3.511   5.484   1.113 -1.7876  2.5453 -1.1612
 8583TIP3   OH247239   6.299   1.831   5.905  0.0282 -0.5840 -0.2690
 8583TIP3    H147240   6.258   1.750   5.937  0.1675 -0.0788  1.2161
 8583TIP3    H247241   6.311   1.816   5.811 -3.9516 -0.5955 -0.8642
 8584TIP3   OH247242   1.702   5.619   3.563 -0.5069  0.4203  0.8147
 8584TIP3    H147243   1.728   5.607   3.472  2.6546  1.3586  1.5342
 8584TIP3    H247244   1.624   5.674   3.559 -1.3941 -0.9544 -1.3811
 8585TIP3   OH247245   5.697   3.478   1.882  0.0603 -0.3101  0.2274
 8585TIP3    H147246   5.605   3.468   1.908  0.2361 -0.0389  0.9776
 8585TIP3    H247247   5.738   3.520   1.958  0.6520  0.2086 -0.3816
 8586TIP3   OH247248   1.695   3.426   0.444  0.0524 -0.5244  0.3538
 8586TIP3    H147249   1.699   3.501   0.384 -2.5602 -1.1160 -0.6234
 8586TIP3    H247250   1.645   3.457   0.519 -1.2524 -1.3334 -0.1627
 8587TIP3   OH247251   0.369   1.967   3.901  0.3208 -0.1598 -0.1454
 8587TIP3    H147252   0.276   1.980   3.881 -0.7441 -1.4268  3.6157
 8587TIP3    H247253   0.403   2.055   3.918 -0.6873  0.1209  0.4353
 8588TIP3   OH247254   2.296   4.494   1.510  0.5169 -0.2760 -0.1377
 8588TIP3    H147255   2.380   4.448   1.513  1.4207  1.2532 -1.0193
 8588TIP3    H247256   2.259   4.482   1.598  3.0699  1.5581  1.2500
 8589TIP3   OH247257   5.224   3.627   0.558 -0.4599 -0.1307 -0.5964
 8589TIP3    H147258   5.318   3.622   0.545 -0.0271  1.1795  1.6915
 8589TIP3    H247259   5.192   3.682   0.487  0.8718  1.5699  0.1017
 8590TIP3   OH247260   1.067   3.872   2.281  0.3713 -0.0949 -0.2502
 8590TIP3    H147261   1.087   3.949   2.335  1.3062 -0.9358  0.6151
 8590TIP3    H247262   0.978   3.846   2.308 -0.0263  0.7911 -0.6871
 8591TIP3   OH247263   5.508   3.996  15.386  0.0830 -0.4553  0.3774
 8591TIP3    H147264   5.443   3.930  15.364  0.8990 -0.7485 -1.2113
 8591TIP3    H247265   5.527   3.980  15.478 -0.7132 -1.5672  0.3661
 8592TIP3   OH247266   5.285   4.700  17.217 -0.1939  0.3079  0.2072
 8592TIP3    H147267   5.214   4.672  17.160  0.6057 -0.0388 -0.6305
 8592TIP3    H247268   5.248   4.698  17.305 -1.2639  0.2940 -0.2420
 8593TIP3   OH247269   5.555   2.101  13.814 -0.0374  0.3454  0.6921
 8593TIP3    H147270   5.530   2.139  13.730 -0.6106 -1.1296  0.1931
 8593TIP3    H247271   5.646   2.073  13.802 -0.3282 -0.4641  0.3464
 8594TIP3   OH247272   4.054   3.683   0.368  0.5449 -0.1270 -0.4328
 8594TIP3    H147273   4.035   3.603   0.319  0.6474 -0.5506  0.2161
 8594TIP3    H247274   4.071   3.749   0.300 -0.5008 -0.4107 -0.9807
 8595TIP3   OH247275   4.403   5.377   3.874 -0.2643 -0.5107  0.0428
 8595TIP3    H147276   4.427   5.468   3.892  2.3913 -1.0771 -0.4540
 8595TIP3    H247277   4.413   5.368   3.779 -0.1410 -1.4397  0.1433
 8596TIP3   OH247278   5.165   3.797   4.824  0.7560 -0.1996 -0.6082
 8596TIP3    H147279   5.106   3.872   4.815  1.0789 -0.0151 -1.1813
 8596TIP3    H247280   5.122   3.727   4.775  1.8301  0.4104 -2.4499
 8597TIP3   OH247281   1.432   2.253   5.051  0.2507 -0.1210  0.2765
 8597TIP3    H147282   1.385   2.192   4.995 -0.0998  0.5333 -0.1564
 8597TIP3    H247283   1.366   2.317   5.077  1.0177  1.1432 -0.8184
 8598TIP3   OH247284   2.724   5.767  13.726  0.2694  0.1965  0.7381
 8598TIP3    H147285   2.732   5.829  13.798  0.6450  2.7342 -1.4017
 8598TIP3    H247286   2.812   5.757  13.692 -0.0429 -0.2447  0.0356
 8599TIP3   OH247287   2.820   2.851  11.008  0.2247 -0.7850  0.4103
 8599TIP3    H147288   2.766   2.772  11.006 -0.0523 -0.5792 -1.0471
 8599TIP3    H247289   2.910   2.819  10.996  0.2171 -0.9595  0.8176
 8600TIP3   OH247290   5.792   5.493   0.188  0.1795  0.0371 -0.3445
 8600TIP3    H147291   5.864   5.432   0.177 -0.1587 -0.8049  1.7986
 8600TIP3    H247292   5.833   5.580   0.185  1.7925 -0.4635  3.6901
 8601TIP3   OH247293   6.120   3.918   6.404 -0.2413 -0.4250 -0.2477
 8601TIP3    H147294   6.139   3.827   6.381 -0.4827 -0.4308 -0.4317
 8601TIP3    H247295   6.053   3.912   6.472  1.0353 -0.4295  1.0264
 8602TIP3   OH247296   4.312   2.319   2.742 -0.1866 -0.1473  0.3486
 8602TIP3    H147297   4.369   2.242   2.744 -0.7567 -0.5846 -0.0967
 8602TIP3    H247298   4.231   2.289   2.784 -1.4263 -0.6092 -2.3152
 8603TIP3   OH247299   6.146   5.766   3.873 -0.3082  0.2233  0.6518
 8603TIP3    H147300   6.087   5.707   3.827 -0.8206  0.6358  0.7768
 8603TIP3    H247301   6.204   5.800   3.805 -0.1343 -0.2708  0.5487
 8604TIP3   OH247302   6.585   3.908  12.254  0.1900  0.5408 -0.2447
 8604TIP3    H147303   6.575   3.951  12.339 -0.7283  1.6715 -0.9083
 8604TIP3    H247304   6.518   3.839  12.254 -0.4328  1.1342 -0.4003
 8605TIP3   OH247305   1.120   6.235  16.310 -0.2964  0.1196 -0.3708
 8605TIP3    H147306   1.163   6.159  16.349  0.2780 -0.7543 -2.6480
 8605TIP3    H247307   1.115   6.215  16.216  0.4210  3.1696 -1.1067
 8606TIP3   OH247308   1.981   5.232   0.065  0.5097  0.2846  0.3317
 8606TIP3    H147309   2.064   5.218   0.018  0.6501  0.9234  0.3919
 8606TIP3    H247310   1.967   5.326   0.061 -1.0744  0.0128 -1.1477
 8607TIP3   OH247311   6.475   2.518  12.312  0.3621  0.3448  0.3941
 8607TIP3    H147312   6.385   2.534  12.286  0.4581  1.3233  0.6332
 8607TIP3    H247313   6.470   2.496  12.405  0.0341 -3.0154 -0.3410
 8608TIP3   OH247314   6.440   2.790  15.922 -0.3374 -0.1865  0.2393
 8608TIP3    H147315   6.391   2.745  15.991  2.9992  0.4921  3.2424
 8608TIP3    H247316   6.416   2.882  15.932  0.9841  0.0654  1.3254
 8609TIP3   OH247317   1.580   2.368  12.955  0.4381 -0.6087 -0.2971
 8609TIP3    H147318   1.492   2.334  12.943  0.1856  0.1180 -0.5183
 8609TIP3    H247319   1.635   2.313  12.899 -0.2605  0.6525 -2.3125
 8610TIP3   OH247320   1.859   0.625   4.579  0.0757  0.5241  0.1879
 8610TIP3    H147321   1.861   0.556   4.645 -0.9074 -0.1875 -0.5044
 8610TIP3    H247322   1.849   0.578   4.496  1.1087  1.4177 -0.4452
 8611TIP3   OH247323   4.246   2.903   3.364 -0.0931  0.0624 -0.2401
 8611TIP3    H147324   4.208   2.962   3.300 -0.4528 -0.3358 -0.3963
 8611TIP3    H247325   4.245   2.817   3.322 -0.5885 -0.2558  0.3955
 8612TIP3   OH247326   0.949   1.010  10.556 -0.0726  0.4950 -0.1613
 8612TIP3    H147327   0.926   1.043  10.469  1.1899  1.2390 -0.2261
 8612TIP3    H247328   0.944   1.087  10.612 -3.1666 -0.3973  0.9303
 8613TIP3   OH247329   2.730   1.231   5.393 -0.3758  0.0069  0.1047
 8613TIP3    H147330   2.720   1.268   5.306  0.5701  0.8323  0.3379
 8613TIP3    H247331   2.820   1.252   5.418  0.2164 -2.4903  0.2258
 8614TIP3   OH247332   1.791   1.415   1.587 -0.6880 -0.1825  0.0714
 8614TIP3    H147333   1.820   1.397   1.677  0.6192  0.2947 -0.2459
 8614TIP3    H247334   1.722   1.350   1.571  0.1837 -1.3257  0.8558
 8615TIP3   OH247335   1.172   0.116  12.970  0.1674  0.5573 -0.1572
 8615TIP3    H147336   1.192   0.023  12.958 -1.1819  0.0546  1.2828
 8615TIP3    H247337   1.106   0.135  12.903 -0.5699  0.1135  0.4325
 8616TIP3   OH247338   3.527   1.636   4.851  0.0152 -0.0677  0.4288
 8616TIP3    H147339   3.445   1.633   4.802  0.5906 -2.8657 -0.4320
 8616TIP3    H247340   3.524   1.559   4.908  2.1632 -0.3936  0.1508
 8617TIP3   OH247341   3.385   4.161   5.014  0.3129  0.2525  0.2895
 8617TIP3    H147342   3.415   4.091   4.955 -1.0714 -0.5257  0.4717
 8617TIP3    H247343   3.444   4.155   5.089 -0.2239 -1.2204  0.6243
 8618TIP3   OH247344   6.444   0.541  13.974 -0.2184 -0.3179  0.3029
 8618TIP3    H147345   6.422   0.526  13.882 -0.1870  0.4814  0.1586
 8618TIP3    H247346   6.384   0.485  14.023 -1.1888  0.2932 -0.1591
 8619TIP3   OH247347   5.575   6.780  14.710 -0.5457 -0.0532 -0.2938
 8619TIP3    H147348   5.588   6.760  14.802  1.8094 -1.2125 -0.8667
 8619TIP3    H247349   5.610   6.869  14.699  0.5157 -0.4883 -0.3891
 8620TIP3   OH247350   2.741   2.794  14.104 -0.5993  0.2352 -0.1704
 8620TIP3    H147351   2.820   2.755  14.142 -1.9266 -0.0539  2.4212
 8620TIP3    H247352   2.769   2.882  14.076  1.0408 -0.4863 -0.8912
 8621TIP3   OH247353   4.316   6.566  15.871 -0.4077  0.4365 -0.3835
 8621TIP3    H147354   4.250   6.635  15.879  0.9888  1.8395 -0.7629
 8621TIP3    H247355   4.377   6.598  15.804  0.5297 -0.9396 -0.2148
 8622TIP3   OH247356   1.375   6.068  11.442 -0.6911  0.5237 -0.3086
 8622TIP3    H147357   1.402   6.160  11.438  2.1767 -0.1609  1.5378
 8622TIP3    H247358   1.317   6.057  11.367 -0.5809  3.6794 -0.9327
 8623TIP3   OH247359   2.276   2.287   2.067 -0.8463 -0.4410 -0.1419
 8623TIP3    H147360   2.240   2.202   2.038  1.7819 -1.2696 -1.1649
 8623TIP3    H247361   2.277   2.340   1.987  0.7325 -0.6537 -0.2847
 8624TIP3   OH247362   3.102   5.873   0.311 -0.1101 -0.2309  0.4031
 8624TIP3    H147363   3.148   5.844   0.233 -0.2634 -1.0601  0.6140
 8624TIP3    H247364   3.167   5.866   0.381 -0.4710 -1.1147  0.6474
 8625TIP3   OH247365   6.242   1.962  13.476  0.2299 -0.8908  0.4716
 8625TIP3    H147366   6.292   1.922  13.404  1.3938 -1.5990  1.6531
 8625TIP3    H247367   6.188   1.891  13.510  2.1198 -1.4759  2.4141
 8626TIP3   OH247368   1.114   0.069  10.509  0.3392  0.2168  0.1354
 8626TIP3    H147369   1.059   0.017  10.568 -0.0252 -1.9155 -1.9992
 8626TIP3    H247370   1.202   0.060  10.545 -0.0295 -0.1622  0.9646
 8627TIP3   OH247371   6.724   0.509   1.004 -0.1836  0.2926  0.0604
 8627TIP3    H147372   6.709   0.545   0.917  1.5502  0.4048 -0.2153
 8627TIP3    H247373   6.731   0.414   0.991 -1.3300  0.1609  0.2996
 8628TIP3   OH247374   1.500   0.667  11.263  0.6509 -0.0872 -0.3228
 8628TIP3    H147375   1.554   0.648  11.339 -0.5612  1.8701  1.0755
 8628TIP3    H247376   1.471   0.581  11.232 -0.0586 -0.8695  2.3577
 8629TIP3   OH247377   4.031   0.971  16.436 -0.2334  0.2642 -0.0191
 8629TIP3    H147378   4.116   0.928  16.423  0.3217  0.7465  1.9166
 8629TIP3    H247379   4.053   1.052  16.481 -1.5473  1.3505 -1.2885
 8630TIP3   OH247380   4.378   5.655   1.620 -0.5801  0.2845  1.1677
 8630TIP3    H147381   4.292   5.669   1.580 -0.8688  0.7236  1.9232
 8630TIP3    H247382   4.417   5.584   1.570 -2.3474 -1.5576  2.2959
 8631TIP3   OH247383   2.662   6.500   6.028 -0.3605 -0.0800 -0.4418
 8631TIP3    H147384   2.721   6.552   6.082  0.4063 -0.7591 -0.6149
 8631TIP3    H247385   2.719   6.459   5.963 -0.8944 -1.4638 -0.0556
 8632TIP3   OH247386   6.408   2.028   3.089 -0.3227 -0.0099 -0.1210
 8632TIP3    H147387   6.357   2.082   3.028 -0.2779 -0.9093 -0.9760
 8632TIP3    H247388   6.383   1.938   3.067 -1.8583 -0.2903  2.5746
 8633TIP3   OH247389   1.725   3.420  13.427 -0.2832  0.6553  0.2487
 8633TIP3    H147390   1.649   3.405  13.483 -0.1522  2.1594  0.8577
 8633TIP3    H247391   1.801   3.414  13.485 -0.0212  0.4735 -0.1044
 8634TIP3   OH247392   4.310   3.944   2.949 -0.2461  0.3400  0.2352
 8634TIP3    H147393   4.309   4.020   3.007 -0.5552  1.0644 -0.6986
 8634TIP3    H247394   4.228   3.898   2.968 -0.3869  0.6228  0.3036
 8635TIP3   OH247395   1.689   3.741  13.416  0.0424 -0.0602  0.1064
 8635TIP3    H147396   1.694   3.674  13.348 -1.1246 -0.3641  0.3168
 8635TIP3    H247397   1.608   3.789  13.398 -1.4281 -1.5203  2.5296
 8636TIP3   OH247398   2.886   1.292  15.759  0.1965 -0.0373  0.2147
 8636TIP3    H147399   2.829   1.351  15.710  2.8177  1.2074 -1.4946
 8636TIP3    H247400   2.948   1.350  15.803  1.0263 -1.4031  0.8767
 8637TIP3   OH247401   0.412   4.251   0.438 -0.5678  0.1823 -0.0892
 8637TIP3    H147402   0.338   4.251   0.498 -1.8069 -2.8623 -1.5201
 8637TIP3    H247403   0.480   4.200   0.482 -0.2692  0.7258  0.0897
 8638TIP3   OH247404   6.550   5.976  13.529 -0.4842  0.5147  0.1286
 8638TIP3    H147405   6.469   5.979  13.478  0.0157  0.2672 -0.6793
 8638TIP3    H247406   6.521   5.951  13.617 -1.1490 -1.0126 -0.4963
 8639TIP3   OH247407   3.539   2.404  12.952  0.3972 -0.0612  0.1099
 8639TIP3    H147408   3.493   2.449  12.881  0.5296  0.5082  0.3857
 8639TIP3    H247409   3.477   2.405  13.025  0.5871  0.1053  0.2691
 8640TIP3   OH247410   0.750   1.289  11.788  0.1127  0.1498 -0.4675
 8640TIP3    H147411   0.767   1.382  11.798  0.4787  0.1747 -1.3013
 8640TIP3    H247412   0.834   1.251  11.762 -0.0748 -0.3844 -0.3127
 8641TIP3   OH247413   0.906   5.270   0.866 -0.4354  0.3306  0.4595
 8641TIP3    H147414   0.871   5.291   0.779  0.9987  1.1346  0.0519
 8641TIP3    H247415   0.953   5.188   0.855 -2.0944 -0.7060  0.9876
 8642TIP3   OH247416   2.615   4.895   1.669 -0.1176 -0.0421 -0.0290
 8642TIP3    H147417   2.658   4.854   1.594  1.4352 -1.6144  1.6774
 8642TIP3    H247418   2.522   4.885   1.651  0.1730  1.3850 -2.6826
 8643TIP3   OH247419   1.834   3.706   4.894 -0.1094 -0.6917  0.4522
 8643TIP3    H147420   1.799   3.792   4.917  1.4997  0.4566 -1.2672
 8643TIP3    H247421   1.757   3.653   4.874 -0.9992  1.2965 -1.6352
 8644TIP3   OH247422   0.539   3.672   2.307  0.0762 -0.0293 -0.1962
 8644TIP3    H147423   0.498   3.705   2.387  0.6743  1.0787 -0.3316
 8644TIP3    H247424   0.523   3.578   2.309 -0.0021  0.0025  1.1799
 8645TIP3   OH247425   2.674   4.172  13.119 -0.4843 -0.7529  0.4954
 8645TIP3    H147426   2.626   4.240  13.073 -0.1172 -0.9749 -0.2155
 8645TIP3    H247427   2.675   4.201  13.210 -0.1342  0.2979  0.1631
 8646TIP3   OH247428   4.325   0.061   1.327  0.6507 -0.0392  0.4712
 8646TIP3    H147429   4.324   0.132   1.264  0.1360 -0.0984  0.4090
 8646TIP3    H247430   4.401   0.079   1.383  0.9359  0.1689  0.0175
 8647TIP3   OH247431   5.177   4.778   0.620  0.3027  0.2551  0.0310
 8647TIP3    H147432   5.139   4.690   0.625  1.0470 -0.1728 -1.4675
 8647TIP3    H247433   5.103   4.834   0.595 -0.2366  0.1110  1.2826
 8648TIP3   OH247434   1.830   2.699  14.794  0.1348  0.4572  0.1659
 8648TIP3    H147435   1.890   2.716  14.866  0.0403  0.4387  0.2491
 8648TIP3    H247436   1.861   2.755  14.723 -1.5716  2.7905  1.1972
 8649TIP3   OH247437   2.137   2.374   4.101 -0.1963  0.3143  0.5034
 8649TIP3    H147438   2.042   2.381   4.104 -0.2091  0.0419  0.7546
 8649TIP3    H247439   2.169   2.435   4.166 -0.2263 -0.1672  0.9729
 8650TIP3   OH247440   1.195   0.561  11.198 -0.1000  0.2642  0.4737
 8650TIP3    H147441   1.223   0.563  11.106 -0.9566  1.8431  0.2275
 8650TIP3    H247442   1.122   0.622  11.202 -0.1187  0.1554  2.2118
 8651TIP3   OH247443   1.006   2.259  17.247 -0.2111 -0.6180 -0.3096
 8651TIP3    H147444   0.953   2.336  17.227  0.0975 -0.2381  0.3311
 8651TIP3    H247445   1.071   2.255  17.176  0.9922  0.8302  0.6936
 8652TIP3   OH247446   2.893   6.506   0.296  0.1473  0.2362  0.2169
 8652TIP3    H147447   2.826   6.570   0.271 -1.8583 -1.5827  0.8390
 8652TIP3    H247448   2.852   6.421   0.281  1.9257 -0.9161  1.7061
 8653TIP3   OH247449   2.618   6.476   1.251 -1.4323 -0.2228  0.0866
 8653TIP3    H147450   2.640   6.460   1.343 -1.2386  0.2432  0.1209
 8653TIP3    H247451   2.692   6.440   1.202 -0.9890  0.5584  0.1654
 8654TIP3   OH247452   3.768   6.359   0.896  0.3782 -0.1936 -0.5523
 8654TIP3    H147453   3.676   6.335   0.889  0.7721 -1.9943  0.1812
 8654TIP3    H247454   3.773   6.447   0.858 -1.6815  0.0389 -0.3318
 8655TIP3   OH247455   0.525   0.279  12.423 -0.2353  0.0084 -0.4319
 8655TIP3    H147456   0.482   0.222  12.487 -2.6317 -1.2469 -3.0498
 8655TIP3    H247457   0.456   0.303  12.361  1.6642  2.4373 -1.7119
 8656TIP3   OH247458   2.993   4.831  11.979 -0.1357 -0.2920 -0.0931
 8656TIP3    H147459   3.015   4.859  12.067 -0.7713 -0.0573 -0.0051
 8656TIP3    H247460   2.946   4.748  11.990 -0.6225 -0.0305 -0.1756
 8657TIP3   OH247461   4.978   5.097  15.049  0.4844 -0.5086 -0.5119
 8657TIP3    H147462   5.041   5.028  15.027  0.0116 -0.8814 -0.6777
 8657TIP3    H247463   5.033   5.175  15.060  0.9497 -0.7712 -0.9325
 8658TIP3   OH247464   6.761   5.626   1.422 -0.9849  0.2844  0.2002
 8658TIP3    H147465   6.707   5.665   1.490  0.4774  3.0563 -0.1668
 8658TIP3    H247466   6.839   5.594   1.468 -0.1382  1.8771 -0.1131
 8659TIP3   OH247467   5.086   3.399   2.641  0.1711 -0.6665 -0.0514
 8659TIP3    H147468   5.146   3.457   2.595 -0.6555 -0.0627 -0.3751
 8659TIP3    H247469   5.122   3.311   2.628  2.3071 -0.1171  1.7774
 8660TIP3   OH247470   3.024   3.572  16.852  0.2277 -0.1826 -0.0774
 8660TIP3    H147471   3.024   3.550  16.946  1.0344  0.2142  0.0174
 8660TIP3    H247472   3.061   3.494  16.810 -1.0327 -0.7482 -0.1667
 8661TIP3   OH247473   3.409   5.289  16.068  0.1444 -0.1902  0.0082
 8661TIP3    H147474   3.324   5.329  16.046  0.2711 -0.7269 -1.4883
 8661TIP3    H247475   3.453   5.278  15.984  2.3404  1.4745  0.9057
 8662TIP3   OH247476   5.395   2.537  12.451 -0.0294 -0.1731 -0.0617
 8662TIP3    H147477   5.434   2.461  12.407 -1.1475 -1.6039  1.3364
 8662TIP3    H247478   5.358   2.501  12.532 -2.1317  1.5551 -0.2116
 8663TIP3   OH247479   4.117   0.872   3.622 -0.5828  0.4496 -0.0426
 8663TIP3    H147480   4.078   0.959   3.631 -1.7779 -0.0842  0.0253
 8663TIP3    H247481   4.043   0.814   3.607  0.1962 -0.5887  0.0693
 8664TIP3   OH247482   4.190   3.208   6.207  0.2676 -0.2445  0.2516
 8664TIP3    H147483   4.168   3.301   6.207 -1.1069 -0.5468 -0.7207
 8664TIP3    H247484   4.267   3.201   6.263  0.6508  1.5404 -0.0249
 8665TIP3   OH247485   6.741   5.920   4.376 -0.6298 -0.1537  0.1128
 8665TIP3    H147486   6.805   5.893   4.309 -0.4390  0.2621  0.1272
 8665TIP3    H247487   6.786   5.988   4.426 -1.7924  1.5540 -1.1130
 8666TIP3   OH247488   5.458   4.352   0.780  0.6227 -0.6083  0.1086
 8666TIP3    H147489   5.511   4.326   0.705  1.1802 -2.0446  0.9819
 8666TIP3    H247490   5.517   4.343   0.855 -0.1972 -0.0533  0.8249
 8667TIP3   OH247491   2.015   1.006   1.669 -0.3808  0.5665  0.1072
 8667TIP3    H147492   2.102   1.009   1.629  0.4314 -0.2974  1.7523
 8667TIP3    H247493   1.957   1.045   1.604  0.6464 -2.2090 -2.5763
 8668TIP3   OH247494   4.050   6.812   3.736  0.0957 -0.1221 -0.6063
 8668TIP3    H147495   3.992   6.746   3.698 -0.9152  0.7237 -0.5376
 8668TIP3    H247496   3.991   6.875   3.777  1.1305 -0.6846  1.8444
 8669TIP3   OH247497   5.574   6.648  14.382  0.5987 -0.3983 -0.4160
 8669TIP3    H147498   5.527   6.731  14.380 -0.5309 -1.0309 -0.4765
 8669TIP3    H247499   5.516   6.589  14.430  0.1121 -1.9214 -2.7813
 8670TIP3   OH247500   1.486   3.236   4.336 -0.0051  0.2581 -0.1729
 8670TIP3    H147501   1.498   3.194   4.251 -0.3604 -0.0573 -0.0682
 8670TIP3    H247502   1.552   3.195   4.392 -0.6294 -0.4783  0.0409
 8671TIP3   OH247503   5.295   6.619  13.395  0.3569  0.2005 -0.2700
 8671TIP3    H147504   5.216   6.627  13.342 -0.0581 -1.0714  0.1432
 8671TIP3    H247505   5.363   6.662  13.343  0.0044 -1.2175 -1.9342
 8672TIP3   OH247506   4.919   4.180  15.533  0.0016 -0.5786 -0.0303
 8672TIP3    H147507   4.833   4.222  15.541  0.1089 -0.5132  0.8006
 8672TIP3    H247508   4.972   4.245  15.486 -0.3815 -0.5943 -0.4922
 8673TIP3   OH247509   1.963   2.284   0.418 -0.0709 -0.5597 -0.4960
 8673TIP3    H147510   1.974   2.334   0.498  0.7711  0.3189 -1.1464
 8673TIP3    H247511   1.919   2.204   0.445  0.8150 -0.5741  0.9538
 8674TIP3   OH247512   6.072   2.167   1.642 -0.2908 -0.3566 -0.3177
 8674TIP3    H147513   6.100   2.085   1.683  0.6487 -0.1109 -0.4625
 8674TIP3    H247514   6.038   2.220   1.714 -2.4550 -1.5060 -0.4511
 8675TIP3   OH247515   1.873   1.050   4.174  0.4271 -0.3155  0.3290
 8675TIP3    H147516   1.887   0.988   4.245  0.2765  0.0373  0.6711
 8675TIP3    H247517   1.843   1.130   4.217  0.5716 -0.0185 -0.1094
 8676TIP3   OH247518   0.571   6.807   3.728  0.1013 -0.0767  0.2483
 8676TIP3    H147519   0.529   6.868   3.667  3.0693  2.0798  0.2623
 8676TIP3    H247520   0.555   6.847   3.814  1.2309  0.1815  0.3389
 8677TIP3   OH247521   0.162   2.886   4.847 -0.3965  0.4910 -0.3386
 8677TIP3    H147522   0.091   2.899   4.910 -0.7644  0.2887 -0.7125
 8677TIP3    H247523   0.239   2.870   4.901 -0.4973  1.4042  0.0848
 8678TIP3   OH247524   6.247   6.784  11.026 -0.4965 -0.2673 -0.2704
 8678TIP3    H147525   6.273   6.692  11.019 -0.9350 -0.3884 -0.3119
 8678TIP3    H247526   6.155   6.781  11.052 -0.8207  0.1493 -1.3335
 8679TIP3   OH247527   1.423   4.104   2.888  0.0962 -0.1759  0.0604
 8679TIP3    H147528   1.441   4.131   2.978 -1.5644 -0.3567  0.4687
 8679TIP3    H247529   1.443   4.011   2.886  1.3280  0.0896 -0.0927
 8680TIP3   OH247530   3.989   0.528   0.600  0.5214 -0.6774 -0.5260
 8680TIP3    H147531   4.084   0.541   0.593  0.4304 -0.6506 -1.7953
 8680TIP3    H247532   3.965   0.480   0.520 -0.5779 -0.4066 -0.3660
 8681TIP3   OH247533   3.665   5.652   6.082  0.5109  1.3976  0.5198
 8681TIP3    H147534   3.614   5.594   6.139 -0.5807  0.3339 -1.4696
 8681TIP3    H247535   3.720   5.593   6.031 -0.4522  2.1311 -1.3904
 8682TIP3   OH247536   3.232   5.278   3.956  0.1064  0.2704  0.4462
 8682TIP3    H147537   3.189   5.193   3.944  1.3177 -0.2375 -0.4575
 8682TIP3    H247538   3.321   5.264   3.923 -0.1585  2.3440 -1.2592
 8683TIP3   OH247539   4.128   0.009   5.363  0.6400  0.1786 -0.6530
 8683TIP3    H147540   4.067   0.017   5.289 -0.1087 -1.0456 -0.1967
 8683TIP3    H247541   4.204   0.061   5.337  0.1957  0.1518 -2.0896
 8684TIP3   OH247542   3.382   0.999  12.744 -0.7014  0.1863  0.3538
 8684TIP3    H147543   3.427   0.960  12.819 -0.5481  2.9367  1.7590
 8684TIP3    H247544   3.328   0.928  12.709 -0.2351 -1.3606  2.6426
 8685TIP3   OH247545   0.578   5.794   3.852  0.5080 -0.0589  0.0190
 8685TIP3    H147546   0.517   5.867   3.843  1.1526  0.1844 -3.2472
 8685TIP3    H247547   0.643   5.824   3.915  0.4749  2.0224 -0.8914
 8686TIP3   OH247548   2.768   3.877   5.472  0.1519 -0.5433  0.4423
 8686TIP3    H147549   2.785   3.884   5.566 -0.9772  1.0411  0.5445
 8686TIP3    H247550   2.781   3.784   5.453  2.4379 -0.5274  1.7461
 8687TIP3   OH247551   3.801   3.030   2.264 -0.8260 -0.3969 -0.9352
 8687TIP3    H147552   3.780   2.995   2.177 -1.3822 -0.9529 -0.5830
 8687TIP3    H247553   3.884   2.989   2.287 -0.9511 -0.6734 -0.9720
 8688TIP3   OH247554   2.840   2.367  15.850  0.1636 -0.1325  0.2375
 8688TIP3    H147555   2.884   2.291  15.888  0.2740 -0.0702  0.2345
 8688TIP3    H247556   2.759   2.331  15.812  0.6557 -0.3987 -0.5791
 8689TIP3   OH247557   2.096   6.221   5.376  0.1570  0.7988 -0.1133
 8689TIP3    H147558   2.103   6.126   5.387  0.2664  0.4832 -2.5488
 8689TIP3    H247559   2.182   6.248   5.342 -0.0358  1.7042  0.0976
 8690TIP3   OH247560   2.578   1.397   0.651 -0.3565 -0.5930  0.7177
 8690TIP3    H147561   2.586   1.486   0.619 -0.4043 -0.7347  0.3076
 8690TIP3    H247562   2.624   1.344   0.586  0.8525 -0.7239  1.6621
 8691TIP3   OH247563   3.426   5.955   1.867 -0.5722 -0.5363  0.2884
 8691TIP3    H147564   3.416   6.043   1.901  1.5087 -0.2850  0.3654
 8691TIP3    H247565   3.421   5.898   1.944 -0.1539 -0.3267  0.4738
 8692TIP3   OH247566   0.320   6.056   6.490 -0.0040  0.2910 -0.1053
 8692TIP3    H147567   0.275   5.975   6.470  0.5709  0.1510 -0.9038
 8692TIP3    H247568   0.405   6.048   6.445 -0.4310  1.8375 -1.2588
 8693TIP3   OH247569   3.136   3.802  16.357  0.1972  0.3254  0.0329
 8693TIP3    H147570   3.110   3.770  16.271  1.0697  0.8799 -0.4409
 8693TIP3    H247571   3.150   3.896  16.344 -1.9036  0.8551  1.2940
 8694TIP3   OH247572   2.679   4.895   4.557  0.1380 -0.1649  0.3200
 8694TIP3    H147573   2.764   4.932   4.578  0.3721 -0.1361 -0.6327
 8694TIP3    H247574   2.665   4.919   4.465 -1.2388  0.4928  0.6994
 8695TIP3   OH247575   2.394   3.256   2.079  0.3817  0.4333  0.1771
 8695TIP3    H147576   2.331   3.217   2.019  0.8047  0.1129 -0.0597
 8695TIP3    H247577   2.474   3.204   2.067  0.6383  0.7287  0.5984
 8696TIP3   OH247578   6.744   1.392   5.954 -0.1591  0.3883  0.1795
 8696TIP3    H147579   6.772   1.474   5.994 -1.1869  0.0920  1.5466
 8696TIP3    H247580   6.658   1.412   5.915 -1.2135 -0.4599  2.0160
 8697TIP3   OH247581   3.561   1.574  16.824  0.0241  0.5434  0.2563
 8697TIP3    H147582   3.618   1.583  16.900  0.5228  0.2941 -0.0837
 8697TIP3    H247583   3.486   1.629  16.844 -0.2287 -0.1688  1.2848
 8698TIP3   OH247584   2.254   3.638   5.626  0.2135  0.2425  0.0363
 8698TIP3    H147585   2.202   3.710   5.590  0.1170  0.1958  0.0801
 8698TIP3    H247586   2.282   3.588   5.549 -1.4119 -0.8188  0.1038
 8699TIP3   OH247587   5.716   6.715   3.359  0.1333  0.1570 -0.5111
 8699TIP3    H147588   5.771   6.643   3.331  2.3193  1.6774 -0.2506
 8699TIP3    H247589   5.754   6.743   3.443 -1.2685  0.9772 -0.1361
 8700TIP3   OH247590   6.137   4.271  15.888 -0.0631  0.3550 -0.5330
 8700TIP3    H147591   6.111   4.232  15.805 -1.1989 -0.5127  0.2124
 8700TIP3    H247592   6.202   4.210  15.923  1.4498  1.4294 -1.4057
 8701TIP3   OH247593   6.297   3.950   2.328 -0.7325  0.6720  0.5936
 8701TIP3    H147594   6.391   3.940   2.314 -0.7411 -0.6158  1.3264
 8701TIP3    H247595   6.257   3.896   2.259 -0.9632  2.1330 -0.4288
 8702TIP3   OH247596   3.932   2.559   1.856  0.2504  0.0169 -0.2015
 8702TIP3    H147597   3.860   2.511   1.817 -0.4306 -0.8020  1.9735
 8702TIP3    H247598   4.011   2.522   1.816 -0.4613 -0.0533 -1.5572
 8703TIP3   OH247599   3.900   4.045  13.804  0.0684  0.0745 -0.0237
 8703TIP3    H147600   3.821   4.084  13.842 -1.0359 -0.4517 -1.7094
 8703TIP3    H247601   3.868   3.967  13.758  1.4497  0.2785 -1.3735
 8704TIP3   OH247602   6.459   1.384  11.597  0.3548  0.5944 -0.2828
 8704TIP3    H147603   6.454   1.343  11.683  1.3097 -1.4124 -1.1547
 8704TIP3    H247604   6.369   1.384  11.564  0.7867 -4.3360 -1.8272
 8705TIP3   OH247605   1.690   2.711   2.701  0.2414  0.4966  0.3119
 8705TIP3    H147606   1.737   2.661   2.768  2.0802  0.0155 -1.3028
 8705TIP3    H247607   1.721   2.801   2.713 -0.4052  0.6496  0.9127
 8706TIP3   OH247608   3.515   4.380  11.176 -0.2160  0.5395 -0.5843
 8706TIP3    H147609   3.527   4.320  11.102 -0.0162 -0.9221  0.6047
 8706TIP3    H247610   3.421   4.384  11.188 -0.2274  0.3676 -0.6065
 8707TIP3   OH247611   5.730   1.673  13.406 -0.2732 -0.8418  0.2246
 8707TIP3    H147612   5.723   1.579  13.421  1.0144 -0.9675  0.0899
 8707TIP3    H247613   5.785   1.681  13.328 -1.6045 -0.0086 -0.6630
 8708TIP3   OH247614   0.407   5.222  14.056  0.6127  0.2753 -0.4080
 8708TIP3    H147615   0.463   5.289  14.096 -0.9824  1.6766 -0.4670
 8708TIP3    H247616   0.390   5.255  13.968  0.0853 -0.3885 -0.5547
 8709TIP3   OH247617   2.970   1.565   1.602 -0.0683 -0.5983  0.1130
 8709TIP3    H147618   2.954   1.471   1.593  1.3317 -0.7731 -0.7263
 8709TIP3    H247619   3.034   1.571   1.673  0.7183 -0.3698 -0.6128
 8710TIP3   OH247620   1.701   3.317   3.079 -0.9241  0.6517  0.0053
 8710TIP3    H147621   1.612   3.347   3.096 -0.8745 -0.1446  1.8473
 8710TIP3    H247622   1.704   3.230   3.119  0.3107  0.1588 -1.1455
 8711TIP3   OH247623   2.139   5.107   2.204  0.5275  0.4260  0.7076
 8711TIP3    H147624   2.201   5.094   2.276 -0.4465 -0.1862  1.4548
 8711TIP3    H247625   2.054   5.119   2.248 -0.1070 -0.1143 -0.3528
 8712TIP3   OH247626   0.066   4.754   0.622  0.2137 -0.1302 -0.1452
 8712TIP3    H147627   0.158   4.775   0.603  0.0262 -0.8949 -2.0786
 8712TIP3    H247628   0.016   4.811   0.563 -0.5345 -0.1756  0.4431
 8713TIP3   OH247629   2.545   4.515   3.907 -0.1482 -0.0161 -0.1602
 8713TIP3    H147630   2.575   4.588   3.853 -0.4645  0.9669  0.9841
 8713TIP3    H247631   2.619   4.455   3.911  0.4086  0.6646 -0.3604
 8714TIP3   OH247632   0.868   1.310   3.625 -0.1016  0.1166 -0.2352
 8714TIP3    H147633   0.884   1.291   3.718 -1.5703 -2.6118 -0.4847
 8714TIP3    H247634   0.896   1.230   3.580 -1.1736  0.6946 -1.9542
 8715TIP3   OH247635   0.898   0.790   5.298  0.0939 -0.1097 -0.0657
 8715TIP3    H147636   0.881   0.758   5.209 -0.7231 -1.1019  0.4394
 8715TIP3    H247637   0.917   0.711   5.348 -2.0287  0.1625  1.2340
 8716TIP3   OH247638   3.708   5.468   4.836  0.0426  0.0828  0.0783
 8716TIP3    H147639   3.739   5.403   4.773  0.1299  0.8851 -0.7112
 8716TIP3    H247640   3.649   5.524   4.786  1.3256  1.6725  0.3154
 8717TIP3   OH247641   0.078   5.457   5.077  0.1874  0.2827 -0.6659
 8717TIP3    H147642   0.102   5.371   5.042  0.9022  0.2511 -0.1189
 8717TIP3    H247643   0.144   5.474   5.145 -0.0991  1.1487 -0.6011
 8718TIP3   OH247644   3.058   1.945   2.609  0.5843  0.2175  0.7764
 8718TIP3    H147645   3.108   1.913   2.534  0.9462 -0.1866  1.1892
 8718TIP3    H247646   2.967   1.935   2.583  0.7169  1.3502 -0.1471
 8719TIP3   OH247647   4.667   0.650  17.067 -0.4612  0.7262  0.7704
 8719TIP3    H147648   4.596   0.689  17.014 -1.4194  0.2132  1.6756
 8719TIP3    H247649   4.655   0.688  17.154 -1.1016 -1.2170  1.5403
 8720TIP3   OH247650   4.789   3.694   2.835 -0.4174  0.6464 -0.1429
 8720TIP3    H147651   4.865   3.700   2.893 -0.6182  0.5545  0.1281
 8720TIP3    H247652   4.724   3.753   2.873 -1.9196 -2.1840  1.8089
 8721TIP3   OH247653   4.695   0.919  11.649 -0.2332 -0.5210  0.2767
 8721TIP3    H147654   4.741   0.918  11.733 -0.6593 -1.5793  0.5172
 8721TIP3    H247655   4.621   0.860  11.663 -0.2548 -0.7710 -0.8710
 8722TIP3   OH247656   1.315   1.794  12.649 -0.0911 -0.0307 -0.2240
 8722TIP3    H147657   1.368   1.868  12.677  1.0436 -0.8980 -0.0428
 8722TIP3    H247658   1.236   1.834  12.611 -0.8421  1.2014  2.5198
 8723TIP3   OH247659   6.302   3.115   3.507 -0.2127 -0.2981 -0.2062
 8723TIP3    H147660   6.384   3.090   3.463  0.9584  2.3841  0.3941
 8723TIP3    H247661   6.258   3.173   3.444 -0.0184  1.0195  0.8575
 8724TIP3   OH247662   2.164   3.713   2.142 -0.0282  0.0393 -0.3286
 8724TIP3    H147663   2.236   3.653   2.122 -0.5164 -0.5960 -0.1969
 8724TIP3    H247664   2.140   3.693   2.232 -0.5874  0.0211 -0.4797
 8725TIP3   OH247665   4.193   1.285   0.109 -0.2470 -0.1595 -0.2660
 8725TIP3    H147666   4.193   1.330   0.193  0.6849  2.2609 -1.5133
 8725TIP3    H247667   4.251   1.210   0.121  0.4068  0.5534  1.0362
 8726TIP3   OH247668   1.180   4.361  14.371 -0.1080  0.1274 -0.9440
 8726TIP3    H147669   1.214   4.394  14.288 -1.3864 -0.8665 -1.8726
 8726TIP3    H247670   1.105   4.307  14.347 -0.0383 -0.7839  0.8021
 8727TIP3   OH247671   3.845   2.148   4.333 -0.2792 -0.2068  0.0305
 8727TIP3    H147672   3.784   2.214   4.364 -0.9746 -0.8346  0.0060
 8727TIP3    H247673   3.919   2.153   4.394 -0.5811  0.1933  0.3610
 8728TIP3   OH247674   6.577   6.250   5.645 -0.3657  0.0697  0.0665
 8728TIP3    H147675   6.494   6.208   5.667 -0.8469  0.6198 -0.6759
 8728TIP3    H247676   6.575   6.260   5.550  0.3772  0.4479  0.0841
 8729TIP3   OH247677   5.452   4.690  15.541  0.0837  0.1117  0.4156
 8729TIP3    H147678   5.500   4.638  15.477  1.8112  1.2357  0.7500
 8729TIP3    H247679   5.474   4.781  15.520 -1.5944  0.6388  0.8365
 8730TIP3   OH247680   2.360   2.895  11.650  0.6810  0.4096 -0.6228
 8730TIP3    H147681   2.453   2.900  11.673  0.3607 -1.3214  1.1961
 8730TIP3    H247682   2.315   2.891  11.734 -0.7708 -2.7478 -1.4789
 8731TIP3   OH247683   3.286   1.574   4.756  0.0189  0.3529  0.0783
 8731TIP3    H147684   3.210   1.630   4.775  0.4981  1.3174 -0.8018
 8731TIP3    H247685   3.291   1.573   4.661 -0.2964 -1.6277  0.0717
 8732TIP3   OH247686   4.982   4.254  13.674 -0.6417 -0.7154  0.2841
 8732TIP3    H147687   4.968   4.254  13.579 -0.3504 -1.2077  0.2373
 8732TIP3    H247688   5.074   4.276  13.685 -0.9210  0.3717  0.4992
 8733TIP3   OH247689   2.013   2.124   3.914  0.3110  0.2049  0.0602
 8733TIP3    H147690   2.012   2.168   3.830  2.6943 -1.8614 -1.1303
 8733TIP3    H247691   1.949   2.053   3.905  1.0625 -0.4357 -0.2611
 8734TIP3   OH247692   5.744   6.638   0.840 -0.4275  0.6831 -0.3278
 8734TIP3    H147693   5.782   6.693   0.772  0.2725  0.2690 -0.2773
 8734TIP3    H247694   5.819   6.592   0.878 -0.6856  1.6641  1.3958
 8735TIP3   OH247695   4.298   3.705  14.498 -0.1478  0.0803 -0.3156
 8735TIP3    H147696   4.280   3.684  14.407  1.1568  0.7210 -0.7155
 8735TIP3    H247697   4.391   3.724  14.502  0.0788 -1.1701  1.3814
 8736TIP3   OH247698   3.353   0.128  15.323 -0.5556 -0.2606  0.4983
 8736TIP3    H147699   3.412   0.054  15.307 -0.8948 -0.1131 -1.5175
 8736TIP3    H247700   3.272   0.089  15.356 -0.3638 -0.6811  0.4680
 8737TIP3   OH247701   5.368   2.548  17.116 -0.0403 -0.1575  0.7973
 8737TIP3    H147702   5.353   2.462  17.076 -2.6212  0.8415 -0.4778
 8737TIP3    H247703   5.313   2.608  17.066  0.0980  1.9007  3.0131
 8738TIP3   OH247704   4.428   3.418   1.577  0.3955  0.0141 -0.0463
 8738TIP3    H147705   4.514   3.413   1.534 -0.4869 -0.3200 -1.8030
 8738TIP3    H247706   4.395   3.328   1.574 -0.6144  0.4070 -0.6212
 8739TIP3   OH247707   6.682   5.693   5.234  0.1326  0.6072  0.1905
 8739TIP3    H147708   6.712   5.625   5.294 -0.3600 -0.5188 -0.8344
 8739TIP3    H247709   6.692   5.775   5.284  0.7908 -0.1961  1.3950
 8740TIP3   OH247710   2.679   4.933   0.947 -0.2098 -0.6366  0.1400
 8740TIP3    H147711   2.691   4.970   1.034 -0.0647  0.2428 -0.2469
 8740TIP3    H247712   2.584   4.939   0.931 -0.4037 -2.0495  0.7843
 8741TIP3   OH247713   6.616   2.532  10.853 -0.0682  0.1612 -0.2156
 8741TIP3    H147714   6.609   2.536  10.758 -2.1677  1.6926 -0.0291
 8741TIP3    H247715   6.547   2.470  10.880 -1.6989  2.2093  0.4898
 8742TIP3   OH247716   5.497   2.773   1.434 -0.1419 -0.5870  0.2512
 8742TIP3    H147717   5.465   2.703   1.491  0.7903 -1.0450  0.2247
 8742TIP3    H247718   5.592   2.759   1.429  0.0441  0.6130  0.1578
 8743TIP3   OH247719   2.254   2.102   4.573 -1.0341 -0.7766  0.6975
 8743TIP3    H147720   2.262   2.012   4.541  1.5760 -0.1547 -0.6057
 8743TIP3    H247721   2.281   2.097   4.665  0.2545 -1.1799  0.3187
 8744TIP3   OH247722   2.525   6.133   3.330  0.0866 -0.3589 -0.4675
 8744TIP3    H147723   2.535   6.228   3.321 -1.4928 -0.2533 -1.3012
 8744TIP3    H247724   2.609   6.103   3.362  0.0232  1.5715  1.6212
 8745TIP3   OH247725   3.086   2.006  13.511 -0.5327 -0.3071  0.7715
 8745TIP3    H147726   3.138   1.933  13.477  0.0196  0.5085 -0.1585
 8745TIP3    H247727   3.064   2.058  13.434 -0.2025  0.9707  1.5184
 8746TIP3   OH247728   6.433   0.729   0.859  0.0547 -0.1412  0.0440
 8746TIP3    H147729   6.509   0.676   0.832 -0.2188  0.0624 -1.1422
 8746TIP3    H247730   6.379   0.669   0.910  0.7292 -0.4536  0.3950
 8747TIP3   OH247731   4.854   4.141  10.533  0.2309 -0.4315  0.2856
 8747TIP3    H147732   4.794   4.067  10.529  0.3976 -0.5295 -0.5841
 8747TIP3    H247733   4.934   4.105  10.572 -0.8155  0.0947  3.0311
 8748TIP3   OH247734   5.950   4.269  15.146  0.2765 -0.6089  0.0536
 8748TIP3    H147735   5.907   4.248  15.064  1.2263 -0.6598 -0.4392
 8748TIP3    H247736   6.022   4.328  15.121 -0.1333  0.3090  0.9831
 8749TIP3   OH247737   1.787   3.433   6.079  0.4590 -0.0293 -0.5862
 8749TIP3    H147738   1.702   3.394   6.061 -0.2399  1.5647 -0.8403
 8749TIP3    H247739   1.821   3.385   6.154 -0.6282 -0.7349 -0.5466
 8750TIP3   OH247740   2.861   3.964   6.623 -0.4454 -0.6137  0.1908
 8750TIP3    H147741   2.867   3.910   6.702 -1.8922 -0.5581  0.3509
 8750TIP3    H247742   2.878   3.903   6.551  1.7702 -0.4938  0.5541
 8751TIP3   OH247743   4.980   1.222   1.135  0.5705  0.4711 -0.6792
 8751TIP3    H147744   4.988   1.219   1.230 -0.5502  1.4977 -0.5445
 8751TIP3    H247745   4.937   1.139   1.112  1.5790 -0.1483 -0.3851
 8752TIP3   OH247746   4.801   3.137   1.495  0.3319  0.7287  0.2488
 8752TIP3    H147747   4.875   3.157   1.437  0.8544 -0.6502  0.4265
 8752TIP3    H247748   4.836   3.149   1.583  0.4540 -0.2505  0.3408
 8753TIP3   OH247749   4.380   0.640   3.843 -0.4818 -0.1934 -0.0636
 8753TIP3    H147750   4.427   0.559   3.863 -0.2345 -0.6102 -2.1895
 8753TIP3    H247751   4.349   0.628   3.753 -1.5756  1.5418  0.0592
 8754TIP3   OH247752   5.574   1.144  16.472 -0.0860 -0.4123 -0.5282
 8754TIP3    H147753   5.608   1.210  16.411  0.3128  0.6264  0.8007
 8754TIP3    H247754   5.651   1.092  16.495  0.3442  1.0212  1.3413
 8755TIP3   OH247755   2.723   5.991  14.311 -0.1143  0.1128  0.1777
 8755TIP3    H147756   2.669   6.066  14.287 -1.7704 -0.9485  0.5078
 8755TIP3    H247757   2.779   6.023  14.382 -1.8465  0.6619  1.3437
 8756TIP3   OH247758   6.315   0.332   3.662  0.7409  0.3379  0.2935
 8756TIP3    H147759   6.240   0.322   3.721  0.9289  1.4158  0.7288
 8756TIP3    H247760   6.346   0.243   3.648 -0.6496 -0.1187  0.0720
 8757TIP3   OH247761   3.722   0.397  11.440  0.5456 -0.4298 -0.4403
 8757TIP3    H147762   3.629   0.408  11.460  0.6192 -0.3200 -0.1391
 8757TIP3    H247763   3.733   0.304  11.421  0.6414 -0.7255  0.9874
 8758TIP3   OH247764   0.516   5.938  11.026 -0.9154  0.5075 -0.2339
 8758TIP3    H147765   0.444   5.905  10.972 -0.1849  0.9463 -1.4831
 8758TIP3    H247766   0.564   5.997  10.969  2.2254 -2.0639 -0.3985
 8759TIP3   OH247767   1.485   2.006   4.054 -0.3659 -0.3955 -0.1053
 8759TIP3    H147768   1.420   2.018   3.984  1.4428  2.7363 -1.3669
 8759TIP3    H247769   1.540   1.934   4.024 -2.8585 -2.7433  0.7426
 8760TIP3   OH247770   2.702   3.369   3.062  0.1716 -0.9453  0.2959
 8760TIP3    H147771   2.660   3.320   3.132  0.0689 -0.4836  0.5591
 8760TIP3    H247772   2.761   3.430   3.107  0.6950 -1.1940 -0.0491
 8761TIP3   OH247773   2.505   1.228  15.354 -0.1589 -0.0557  0.0530
 8761TIP3    H147774   2.498   1.295  15.286 -1.9422  0.0209  0.2843
 8761TIP3    H247775   2.530   1.149  15.307 -0.9508  0.1004 -0.6408
 8762TIP3   OH247776   0.952   5.979  11.397  0.3164 -0.2626  0.3023
 8762TIP3    H147777   0.956   6.066  11.435 -1.0444  0.2991 -0.7745
 8762TIP3    H247778   0.878   5.937  11.441  1.6367 -1.2831  1.6007
 8763TIP3   OH247779   3.513   0.461  10.796  0.5856  0.2448  0.1201
 8763TIP3    H147780   3.455   0.515  10.742 -1.2980 -2.3682 -0.5833
 8763TIP3    H247781   3.482   0.474  10.885  0.3651  0.5921 -0.0071
 8764TIP3   OH247782   4.695   4.371   4.068  0.4469  0.2106  0.5249
 8764TIP3    H147783   4.633   4.390   3.997  1.1678  1.7678  0.2857
 8764TIP3    H247784   4.660   4.292   4.109 -0.5979 -0.0825 -0.8627
 8765TIP3   OH247785   3.668   2.851   1.430  0.4501  0.6344  0.0143
 8765TIP3    H147786   3.715   2.768   1.425 -1.3280 -0.6045  2.7634
 8765TIP3    H247787   3.581   2.831   1.394 -0.2152  1.1195  1.3395
 8766TIP3   OH247788   5.682   2.338   3.711 -0.1337 -0.0528  0.1455
 8766TIP3    H147789   5.602   2.295   3.681 -0.5620 -0.2800  1.5705
 8766TIP3    H247790   5.652   2.399   3.779  0.6444  1.4558 -0.8490
 8767TIP3   OH247791   0.867   4.642   3.006 -0.2370  0.1383  0.3507
 8767TIP3    H147792   0.861   4.734   2.983  0.4640  0.3720  1.0799
 8767TIP3    H247793   0.833   4.596   2.929 -3.5449  1.0845  1.2029
 8768TIP3   OH247794   4.655   2.576   2.679 -0.0913 -0.4743  0.3511
 8768TIP3    H147795   4.561   2.563   2.690  0.0767 -1.3737  0.7802
 8768TIP3    H247796   4.677   2.530   2.598  0.3863 -2.3454  1.5122
 8769TIP3   OH247797   5.740   2.923  14.160  0.1678 -0.1508  0.6228
 8769TIP3    H147798   5.767   2.837  14.192 -0.7248 -1.4169 -1.9161
 8769TIP3    H247799   5.654   2.937  14.200  0.7664  0.0304  1.8606
 8770TIP3   OH247800   4.439   3.327   0.723 -0.3917  0.6550 -0.1476
 8770TIP3    H147801   4.523   3.302   0.687 -0.9922  0.7812 -1.6722
 8770TIP3    H247802   4.450   3.419   0.750 -0.3992  1.0525 -1.4786
 8771TIP3   OH247803   2.259   1.573   1.232 -0.4036  0.1130  0.0279
 8771TIP3    H147804   2.225   1.651   1.275 -1.1669  0.4471 -1.1695
 8771TIP3    H247805   2.187   1.542   1.178  0.3174 -0.7066 -0.4780
 8772TIP3   OH247806   0.333   4.855   5.292 -0.3269 -0.2849 -0.6178
 8772TIP3    H147807   0.239   4.855   5.307 -0.4673  1.6450 -1.3111
 8772TIP3    H247808   0.370   4.904   5.366 -0.1188  0.9743 -1.5288
 8773TIP3   OH247809   2.121   2.700   2.088 -0.4136  0.3491  0.2817
 8773TIP3    H147810   2.085   2.682   2.001  0.6818  0.7739 -0.2707
 8773TIP3    H247811   2.045   2.722   2.142 -0.9891  1.2139 -0.8692
 8774TIP3   OH247812   6.166   4.412  13.078 -0.4377  0.1328  0.5608
 8774TIP3    H147813   6.135   4.361  13.153  0.6063  1.4331  1.9082
 8774TIP3    H247814   6.261   4.413  13.087 -0.3548  0.9622 -0.3374
 8775TIP3   OH247815   1.086   2.622  14.023  0.5746 -0.0860  0.0383
 8775TIP3    H147816   1.125   2.546  13.982  0.3364 -1.0610  1.5779
 8775TIP3    H247817   1.150   2.651  14.087 -0.0538 -0.0464  0.6621
 8776TIP3   OH247818   2.754   1.251   6.621 -0.3096 -0.1092 -0.5262
 8776TIP3    H147819   2.820   1.258   6.552  0.9675 -0.1539  0.6928
 8776TIP3    H247820   2.694   1.323   6.604  0.1247  0.0158 -1.5451
 8777TIP3   OH247821   2.484   4.525   4.950 -0.6593 -1.4732  0.4131
 8777TIP3    H147822   2.507   4.547   5.040 -1.9499  1.1501  0.1468
 8777TIP3    H247823   2.389   4.531   4.947 -0.5075  0.3421 -1.5763
 8778TIP3   OH247824   2.761   6.015  17.162 -0.0910 -0.5012 -0.4779
 8778TIP3    H147825   2.705   6.088  17.189  3.3244  2.3436 -0.6452
 8778TIP3    H247826   2.759   6.017  17.066  0.1445 -0.4652 -0.4827
 8779TIP3   OH247827   0.780   4.621  12.240  0.2634  0.4072 -0.4359
 8779TIP3    H147828   0.835   4.579  12.306  0.6495  0.0239 -0.9922
 8779TIP3    H247829   0.799   4.714  12.248  1.9189  0.1720 -1.4466
 8780TIP3   OH247830   6.433   3.552  11.912  0.3940  0.0472 -0.3602
 8780TIP3    H147831   6.430   3.614  11.839 -0.4581 -0.8797 -1.1276
 8780TIP3    H247832   6.485   3.478  11.878 -1.2116 -1.0176 -0.5352
 8781TIP3   OH247833   3.855   3.031   5.479  0.4646  0.4080  0.4934
 8781TIP3    H147834   3.806   3.098   5.431  0.4081 -0.0433 -0.1047
 8781TIP3    H247835   3.936   3.020   5.429 -0.4700 -1.5057 -0.7099
 8782TIP3   OH247836   5.865   2.057  13.582 -0.0190  0.1443  0.4697
 8782TIP3    H147837   5.819   2.140  13.570  0.1511  0.0977 -0.5548
 8782TIP3    H247838   5.815   2.011  13.650 -1.4660  0.1164 -0.6032
 8783TIP3   OH247839   5.961   5.007  15.054 -0.2104 -0.0366 -0.1916
 8783TIP3    H147840   5.910   4.957  15.117 -0.9992 -1.3389 -1.8352
 8783TIP3    H247841   6.048   4.967  15.055 -0.0930  0.2276  0.3736
 8784TIP3   OH247842   1.660   1.280  16.160  0.3991  0.0462 -0.0572
 8784TIP3    H147843   1.661   1.260  16.254 -0.9610 -0.4911 -0.1436
 8784TIP3    H247844   1.702   1.366  16.154  0.0358  0.3191  1.1173
 8785TIP3   OH247845   1.670   3.069   1.100  0.1133 -0.1411 -0.0682
 8785TIP3    H147846   1.739   3.125   1.135  0.1522 -0.5108  0.4455
 8785TIP3    H247847   1.716   3.004   1.047  0.0421  0.5121 -0.9355
 8786TIP3   OH247848   0.584   1.944  14.950  0.0197 -0.3068  0.4618
 8786TIP3    H147849   0.617   1.866  14.907  1.7742  0.0969  1.0412
 8786TIP3    H247850   0.502   1.916  14.991  0.1810 -1.5999 -0.0874
 8787TIP3   OH247851   2.853   0.344   2.796 -0.0153 -0.1896  0.2388
 8787TIP3    H147852   2.899   0.284   2.855  1.1547  0.1895 -0.2656
 8787TIP3    H247853   2.889   0.324   2.709 -0.2379  0.6640 -0.0546
 8788TIP3   OH247854   5.289   3.824  12.590  0.0671 -0.4448  0.1726
 8788TIP3    H147855   5.344   3.831  12.513  1.5984  2.2102  1.4477
 8788TIP3    H247856   5.211   3.876  12.570  0.2231 -0.1942  0.2210
 8789TIP3   OH247857   6.257   1.103  17.012 -0.0780  0.3591 -0.4598
 8789TIP3    H147858   6.176   1.154  17.007 -0.5111 -0.2455  0.3159
 8789TIP3    H247859   6.320   1.154  16.962 -0.3567  1.9866  0.7946
 8790TIP3   OH247860   5.718   3.014  16.545 -0.0018 -0.0145  0.2884
 8790TIP3    H147861   5.768   3.012  16.626  0.4095 -0.7819  0.0190
 8790TIP3    H247862   5.727   3.104  16.514  1.7411 -0.2994 -0.0791
 8791TIP3   OH247863   3.733   2.451  15.533 -0.2498 -0.2396 -0.2891
 8791TIP3    H147864   3.770   2.503  15.462  0.2365  0.2575  0.3366
 8791TIP3    H247865   3.638   2.456  15.519 -0.1693  0.1674 -0.6818
 8792TIP3   OH247866   3.920   5.475  14.208  0.1476  0.3587  0.2116
 8792TIP3    H147867   3.842   5.462  14.261 -0.5746 -0.0202 -0.9147
 8792TIP3    H247868   3.887   5.509  14.125  0.9235 -2.1769 -1.1967
 8793TIP3   OH247869   1.973   4.237   2.023 -0.0676 -0.2785  0.1758
 8793TIP3    H147870   1.925   4.207   2.100 -0.9580  1.6841  0.4129
 8793TIP3    H247871   1.933   4.189   1.950 -1.8580  0.7028  0.4791
 8794TIP3   OH247872   3.518   2.426   6.166  0.1662  0.5175 -0.4135
 8794TIP3    H147873   3.536   2.343   6.122  1.7122  0.4431  0.2973
 8794TIP3    H247874   3.441   2.409   6.220  1.0796 -0.7993  0.5393
 8795TIP3   OH247875   6.282   1.476  13.985  0.6922  0.5562 -0.1199
 8795TIP3    H147876   6.235   1.511  13.910 -1.7811 -0.3072  0.9673
 8795TIP3    H247877   6.312   1.390  13.956 -0.4383  0.1372 -0.0698
 8796TIP3   OH247878   2.843   0.989   1.310 -0.3419  0.1230 -0.6770
 8796TIP3    H147879   2.892   0.930   1.253  0.4344  1.1791 -1.1192
 8796TIP3    H247880   2.789   1.042   1.251 -0.3082  0.5171 -0.3589
 8797TIP3   OH247881   1.843   2.771   3.160 -0.0117 -0.2383 -0.0889
 8797TIP3    H147882   1.830   2.748   3.252  1.9189  0.7487  0.4409
 8797TIP3    H247883   1.936   2.791   3.153 -0.4101  1.0622 -1.9554
 8798TIP3   OH247884   4.434   1.506   5.658 -0.1180 -0.0159  0.3877
 8798TIP3    H147885   4.414   1.600   5.657 -0.7212 -0.1444  0.3964
 8798TIP3    H247886   4.422   1.480   5.750  0.3114 -0.0489  0.4363
 8799TIP3   OH247887   4.412   2.813   2.439  0.2826  0.6945 -0.5910
 8799TIP3    H147888   4.408   2.823   2.534  3.1332 -1.4616 -0.1569
 8799TIP3    H247889   4.422   2.902   2.405  0.2241  1.3953  1.1846
 8800TIP3   OH247890   5.159   5.094   4.264 -0.2869 -0.5157 -0.2268
 8800TIP3    H147891   5.117   5.009   4.271  0.2848 -0.7353  0.6752
 8800TIP3    H247892   5.101   5.154   4.311 -0.6866 -0.4032 -0.8571
 8801TIP3   OH247893   4.047   5.970   5.035  0.4258  0.1010  0.3850
 8801TIP3    H147894   4.104   5.912   5.085  1.1999 -0.1748 -0.7830
 8801TIP3    H247895   3.958   5.946   5.062  0.7860 -0.8649  0.7295
 8802TIP3   OH247896   5.913   0.936  13.638 -0.3086  0.0391 -0.0413
 8802TIP3    H147897   5.861   0.955  13.561  0.1216 -1.7457 -0.8184
 8802TIP3    H247898   5.849   0.916  13.706 -0.6875  1.2458 -0.0492
 8803TIP3   OH247899   3.986   3.861  14.271  0.0498  0.0517  0.5144
 8803TIP3    H147900   4.045   3.894  14.338  0.5394  0.6530 -0.1966
 8803TIP3    H247901   3.902   3.904  14.288 -0.6285 -1.9438  2.4412
 8804TIP3   OH247902   4.935   4.502   6.083  0.5443 -0.7468  0.2035
 8804TIP3    H147903   4.879   4.448   6.138  0.2732 -1.1531 -0.4779
 8804TIP3    H247904   4.886   4.584   6.074  0.8398 -0.4724  1.0212
 8805TIP3   OH247905   3.337   6.234  11.340  0.2067  0.3442  0.3161
 8805TIP3    H147906   3.258   6.284  11.319  0.0709  0.0536  0.1316
 8805TIP3    H247907   3.361   6.192  11.258 -1.7335 -2.7784  1.2486
 8806TIP3   OH247908   6.695   3.722  11.415  0.3699  0.4168  0.2631
 8806TIP3    H147909   6.770   3.665  11.399 -0.8369 -1.3827  0.9619
 8806TIP3    H247910   6.715   3.765  11.498  0.9774  0.5254  0.0632
 8807TIP3   OH247911   3.060   2.421   1.089 -0.2293  0.4037  0.4778
 8807TIP3    H147912   3.117   2.414   1.165  1.5519 -0.2046 -0.8919
 8807TIP3    H247913   3.119   2.420   1.014 -2.1573 -2.3001 -1.0690
 8808TIP3   OH247914   4.918   5.681  10.625 -0.7161  0.0302 -0.1907
 8808TIP3    H147915   4.982   5.708  10.691 -2.2321  1.8988  0.5608
 8808TIP3    H247916   4.894   5.592  10.650  1.3615 -0.5973 -0.3247
 8809TIP3   OH247917   0.167   4.855  14.246  0.2165  0.6604  0.2188
 8809TIP3    H147918   0.160   4.940  14.202 -1.9538  0.3841 -0.0060
 8809TIP3    H247919   0.134   4.792  14.183  1.3187 -0.3092  0.5901
 8810TIP3   OH247920   6.392   5.459   4.726 -0.1666  0.1772 -0.0525
 8810TIP3    H147921   6.436   5.420   4.651  0.8546 -0.4304  0.8520
 8810TIP3    H247922   6.328   5.519   4.688  0.4070 -0.0562 -1.4004
 8811TIP3   OH247923   3.498   2.434   3.456  0.2809  0.0937  0.2707
 8811TIP3    H147924   3.465   2.418   3.544 -0.7733  1.9215  0.2382
 8811TIP3    H247925   3.452   2.371   3.400  0.7420 -0.8731  0.9762
 8812TIP3   OH247926   4.091   4.310   0.099  0.3374 -0.2553  0.4280
 8812TIP3    H147927   4.160   4.289   0.036 -0.4963  1.2517 -1.0370
 8812TIP3    H247928   4.014   4.264   0.066 -0.8042  2.7141 -1.2864
 8813TIP3   OH247929   6.122   2.590  12.694 -0.0442  0.6305  0.0486
 8813TIP3    H147930   6.037   2.617  12.729 -0.5332 -1.8790  0.9177
 8813TIP3    H247931   6.102   2.515  12.638  1.5088  0.5942 -0.4801
 8814TIP3   OH247932   4.979   3.826   1.567  0.0537  0.8981 -0.4138
 8814TIP3    H147933   4.890   3.830   1.532  0.5637 -1.2024 -2.0803
 8814TIP3    H247934   5.035   3.847   1.492  1.0014  1.3800  0.4155
 8815TIP3   OH247935   5.560   3.088   2.415 -0.2661 -0.3853 -0.1939
 8815TIP3    H147936   5.476   3.044   2.429  0.4667 -2.3490 -1.7008
 8815TIP3    H247937   5.569   3.146   2.490 -2.4089 -1.0413  0.6159
 8816TIP3   OH247938   1.514   5.485   1.506 -0.5662 -0.0060  0.0131
 8816TIP3    H147939   1.471   5.407   1.541 -1.3834  0.3521 -0.1810
 8816TIP3    H247940   1.583   5.505   1.569 -0.4401 -0.8041  0.1364
 8817TIP3   OH247941   2.400   3.226  11.555 -0.7456  0.0887  0.3130
 8817TIP3    H147942   2.348   3.146  11.564  0.4503 -0.8661 -0.9444
 8817TIP3    H247943   2.463   3.205  11.486  0.0283  1.8893  0.4577
 8818TIP3   OH247944   3.656   3.063   0.362  0.6313 -0.0818 -0.0301
 8818TIP3    H147945   3.608   2.992   0.320  1.2264 -0.1861 -0.5335
 8818TIP3    H247946   3.589   3.111   0.411 -0.1406  0.2657 -1.3959
 8819TIP3   OH247947   3.565   0.930   5.835  0.3372  0.4092 -0.4671
 8819TIP3    H147948   3.523   0.867   5.893  0.6382 -0.3315 -1.0431
 8819TIP3    H247949   3.502   1.003   5.829  0.9107  1.1394  1.8889
 8820TIP3   OH247950   0.501   5.862   4.887 -0.1337 -0.0845  0.1022
 8820TIP3    H147951   0.479   5.806   4.961  0.6046 -1.5086 -0.7410
 8820TIP3    H247952   0.590   5.893   4.906  1.1462 -2.6282 -1.4476
 8821TIP3   OH247953   5.483   6.369   1.713 -0.5400  0.4295 -0.5635
 8821TIP3    H147954   5.567   6.341   1.678 -0.6830 -0.5980 -0.1051
 8821TIP3    H247955   5.426   6.293   1.702 -0.9852  0.5996  0.5305
 8822TIP3   OH247956   1.118   2.919   0.975 -0.1968  0.0213  0.1471
 8822TIP3    H147957   1.135   2.972   1.052 -0.0815  0.1193  0.0556
 8822TIP3    H247958   1.167   2.838   0.990 -1.5212 -0.6383  0.9233
 8823TIP3   OH247959   5.563   2.732  13.239 -0.6586  0.5849  0.7130
 8823TIP3    H147960   5.553   2.662  13.303  1.2287 -1.5848 -1.3107
 8823TIP3    H247961   5.652   2.723  13.205 -1.2578  2.3006 -1.5017
 8824TIP3   OH247962   5.032   2.017  16.881 -0.6760  0.2753  0.1294
 8824TIP3    H147963   5.103   1.956  16.902  0.7672  0.8258 -2.7791
 8824TIP3    H247964   4.990   1.979  16.804 -2.4374  0.8396  0.8056
 8825TIP3   OH247965   3.147   2.769   0.182 -0.0446  0.0607 -0.2899
 8825TIP3    H147966   3.150   2.685   0.228 -0.8549 -0.5613 -1.3468
 8825TIP3    H247967   3.238   2.800   0.182 -0.0808  0.2599  2.0326
 8826TIP3   OH247968   3.288   3.238  16.129  0.0781  0.3349  0.6697
 8826TIP3    H147969   3.237   3.164  16.162 -0.1081  0.4174  0.5701
 8826TIP3    H247970   3.348   3.259  16.200  0.1608  0.0601  0.6819
 8827TIP3   OH247971   2.256   0.259  11.866  0.0748 -0.2926 -0.0422
 8827TIP3    H147972   2.336   0.281  11.914 -0.0122 -1.7058  0.7912
 8827TIP3    H247973   2.287   0.207  11.792  0.0651  0.5301 -0.6273
 8828TIP3   OH247974   2.512   5.992  15.733  0.0429  0.2373 -0.1019
 8828TIP3    H147975   2.505   5.964  15.641  1.0423 -1.4699  0.3151
 8828TIP3    H247976   2.434   5.955  15.774 -0.2405  0.7294 -0.1980
 8829TIP3   OH247977   3.674   5.845   0.074 -0.3452 -0.0303  0.0297
 8829TIP3    H147978   3.663   5.939   0.086 -1.1175 -0.2447  1.0075
 8829TIP3    H247979   3.741   5.838   0.005  1.6371  1.2158  1.7412
 8830TIP3   OH247980   5.675   2.428   4.144  0.2267  0.0779  0.0760
 8830TIP3    H147981   5.764   2.398   4.164  0.4364 -0.2306 -1.2257
 8830TIP3    H247982   5.625   2.348   4.130  0.5789  0.2546 -2.5537
 8831TIP3   OH247983   3.253   5.041  13.865 -0.3943 -0.1727  0.4548
 8831TIP3    H147984   3.264   5.125  13.909  0.9282 -0.5502  0.8631
 8831TIP3    H247985   3.158   5.029  13.861 -0.5682  0.6142  1.7723
 8832TIP3   OH247986   2.874   6.795   3.968  0.4039 -0.2111  0.1489
 8832TIP3    H147987   2.951   6.842   3.936  1.9885 -2.0127  1.1912
 8832TIP3    H247988   2.820   6.782   3.891  1.3508  0.6995 -0.6820
 8833TIP3   OH247989   0.315   2.783  15.723 -0.2172  0.2106 -0.5327
 8833TIP3    H147990   0.411   2.783  15.729 -0.3634 -0.0167  1.9026
 8833TIP3    H247991   0.287   2.845  15.789 -1.7684  0.6413 -1.5689
 8834TIP3   OH247992   3.617   4.117  12.742  0.0896 -0.9210  0.1680
 8834TIP3    H147993   3.593   4.171  12.667  0.3594 -0.2654  0.5485
 8834TIP3    H247994   3.600   4.173  12.818  2.1833 -0.6803  0.4888
 8835TIP3   OH247995   4.016   1.988   1.974  0.2360  0.2273 -0.3088
 8835TIP3    H147996   4.082   2.057   1.978  0.6748 -0.2781  2.1241
 8835TIP3    H247997   4.023   1.953   1.885  1.3180  2.0307 -0.9577
 8836TIP3   OH247998   3.799   4.633   0.414 -0.3605 -0.0030  0.2254
 8836TIP3    H147999   3.741   4.623   0.490  0.6941 -0.1840  1.0208
 8836TIP3    H248000   3.740   4.654   0.342 -1.3426  0.6162  1.1836
 8837TIP3   OH248001   2.657   1.865   3.163 -0.3817 -0.1501  0.0190
 8837TIP3    H148002   2.609   1.823   3.092  1.2534 -0.5358 -0.8810
 8837TIP3    H248003   2.633   1.815   3.241  0.4759 -1.8924 -0.8134
 8838TIP3   OH248004   1.745   1.923  16.292  0.2361 -0.0485 -0.1880
 8838TIP3    H148005   1.806   1.934  16.364  0.0895 -0.9910  0.0871
 8838TIP3    H248006   1.669   1.879  16.331  0.8721 -2.1476 -1.2677
 8839TIP3   OH248007   4.984   2.890   2.466 -0.3359  0.0587  0.7997
 8839TIP3    H148008   5.057   2.862   2.522 -0.1364  1.4897  1.2604
 8839TIP3    H248009   4.958   2.810   2.420  1.0884 -0.6128  1.1219
 8840TIP3   OH248010   2.106   1.292  14.355  0.1042  0.4009 -0.3942
 8840TIP3    H148011   2.027   1.282  14.302 -0.7861 -0.6553  1.0989
 8840TIP3    H248012   2.147   1.372  14.321 -1.3673  0.7266 -1.4751
 8841TIP3   OH248013   0.740   6.809  14.429 -0.4981 -0.8592 -0.3811
 8841TIP3    H148014   0.796   6.754  14.485 -1.4423  1.1151  2.6444
 8841TIP3    H248015   0.797   6.837  14.358  1.5742 -1.1971  1.0856
 8842TIP3   OH248016   5.104   6.185   4.071  0.5631 -0.1815 -0.7052
 8842TIP3    H148017   5.020   6.160   4.111 -0.9655 -0.3380 -3.9134
 8842TIP3    H248018   5.128   6.266   4.116 -0.4027 -1.0341  1.4462
 8843TIP3   OH248019   3.056   5.030  14.296 -0.1840  0.2861 -0.0808
 8843TIP3    H148020   2.963   5.048  14.313  0.1411  2.1244 -0.1582
 8843TIP3    H248021   3.103   5.082  14.362  0.7703 -1.9049  1.0176
 8844TIP3   OH248022   4.103   6.632   3.331 -0.5261  0.0381  0.4579
 8844TIP3    H148023   4.046   6.689   3.280 -1.4004 -1.1675  0.0773
 8844TIP3    H248024   4.103   6.549   3.283 -0.5050 -0.7674  1.8454
 8845TIP3   OH248025   3.338   6.235   3.887  0.0217 -0.1285 -0.2141
 8845TIP3    H148026   3.289   6.194   3.816 -0.8330  0.6602 -0.0953
 8845TIP3    H248027   3.327   6.177   3.962  0.2492 -0.5490 -0.5072
 8846TIP3   OH248028   2.978   1.556  14.206 -0.0618 -0.1383  0.1523
 8846TIP3    H148029   2.995   1.639  14.250  1.1365 -0.7636  0.8994
 8846TIP3    H248030   2.981   1.490  14.276  0.4376 -0.9779 -0.6433
 8847TIP3   OH248031   3.242   0.889   5.697  0.0659  0.0206 -0.1269
 8847TIP3    H148032   3.296   0.940   5.638  0.4312  0.5517  0.6550
 8847TIP3    H248033   3.284   0.803   5.701 -0.5441 -0.3605 -1.4337
 8848TIP3   OH248034   2.438   2.898   2.677  0.0734  0.0570 -0.2646
 8848TIP3    H148035   2.380   2.842   2.729 -1.9934  0.5639 -1.9708
 8848TIP3    H248036   2.495   2.837   2.631 -0.6796 -0.5718 -0.3791
 8849TIP3   OH248037   0.658   6.430   6.255 -0.2216 -0.0351 -0.2345
 8849TIP3    H148038   0.627   6.375   6.328 -2.3974 -2.2909 -2.7370
 8849TIP3    H248039   0.581   6.441   6.199  1.5041  1.2408 -2.4622
 8850TIP3   OH248040   6.403   1.409  11.893 -1.2321 -0.3748  0.0224
 8850TIP3    H148041   6.384   1.346  11.963 -2.4844  0.9483  0.9132
 8850TIP3    H248042   6.355   1.488  11.918 -2.1468 -0.0310 -2.5921
 8851TIP3   OH248043   5.211   0.531   1.108 -0.0984  0.6798 -0.3468
 8851TIP3    H148044   5.151   0.497   1.041  1.0253 -0.3005 -0.8678
 8851TIP3    H248045   5.184   0.487   1.189  0.7759 -0.8228 -0.8465
 8852TIP3   OH248046   1.874   2.272   2.623  0.1503 -0.4097  0.2392
 8852TIP3    H148047   1.805   2.333   2.651 -1.0488 -1.4871 -0.3073
 8852TIP3    H248048   1.951   2.328   2.610 -0.5072  0.7628  1.2257
 8853TIP3   OH248049   0.267   5.643   4.772 -0.1625 -0.1542 -0.1816
 8853TIP3    H148050   0.338   5.690   4.727  0.5540 -1.6763 -0.6783
 8853TIP3    H248051   0.281   5.551   4.749 -1.7144 -0.5864  0.5424
 8854TIP3   OH248052   2.819   1.859  16.358  0.1474  0.1586  0.3896
 8854TIP3    H148053   2.790   1.944  16.389  0.4537  0.0627  0.9426
 8854TIP3    H248054   2.756   1.835  16.289 -0.2598  0.5767  0.6182
 8855TIP3   OH248055   1.490   5.709  16.002 -0.5491 -0.2283 -0.1850
 8855TIP3    H148056   1.548   5.784  15.989 -0.1640  0.1947  3.5516
 8855TIP3    H248057   1.529   5.639  15.949  1.8868  0.8016  0.2124
 8856TIP3   OH248058   0.801   4.819  11.324  0.2894 -0.3224 -0.4183
 8856TIP3    H148059   0.781   4.901  11.369  0.0808 -1.0765  0.9210
 8856TIP3    H248060   0.716   4.778  11.311  0.5686 -1.6177  1.5118
 8857TIP3   OH248061   5.233   3.766   1.213 -0.4650  0.6228 -0.0571
 8857TIP3    H148062   5.213   3.820   1.136 -1.8870 -0.1753 -0.2576
 8857TIP3    H248063   5.148   3.735   1.243  0.2719 -0.7691  0.6096
 8858TIP3   OH248064   0.162   1.431   0.424  0.0856 -0.2761 -0.8858
 8858TIP3    H148065   0.085   1.403   0.474  1.3374 -1.3162  0.5176
 8858TIP3    H248066   0.144   1.402   0.334 -1.6955  0.6003 -0.8399
 8859TIP3   OH248067   1.803   1.069  11.384  0.1598  0.0954 -0.1753
 8859TIP3    H148068   1.868   1.137  11.402  0.3261  0.1289 -0.8829
 8859TIP3    H248069   1.846   1.012  11.320 -0.2917 -0.2188 -0.1969
 8860TIP3   OH248070   6.671   0.686   6.307  0.5467 -0.0771  0.5674
 8860TIP3    H148071   6.672   0.666   6.213  1.1344 -1.4349  0.8565
 8860TIP3    H248072   6.584   0.722   6.323  1.0960  1.9830 -0.8628
 8861TIP3   OH248073   3.623   5.279  16.236  0.2381 -0.0193  0.2610
 8861TIP3    H148074   3.660   5.357  16.196  0.5650 -1.6309 -2.7489
 8861TIP3    H248075   3.543   5.261  16.186 -0.9920 -0.4101  2.3116
 8862TIP3   OH248076   1.599   1.698  16.914 -0.2769  0.5786  0.3011
 8862TIP3    H148077   1.626   1.768  16.855 -1.1532  2.3202  1.9210
 8862TIP3    H248078   1.664   1.699  16.984 -0.0152 -0.5730  0.0868
 8863TIP3   OH248079   1.790   1.164  13.133  0.1335 -0.2453 -0.3621
 8863TIP3    H148080   1.699   1.193  13.142 -0.3451 -1.6691 -0.3750
 8863TIP3    H248081   1.841   1.231  13.178 -0.9722  0.2895  0.1292
 8864TIP3   OH248082   3.431   4.842   1.692  0.4867  0.3654  0.5396
 8864TIP3    H148083   3.376   4.763   1.691  0.2097  0.5281 -1.7817
 8864TIP3    H248084   3.374   4.910   1.728  0.1135 -0.1106  0.8509
 8865TIP3   OH248085   2.561   5.318   3.546 -0.9027  0.4058 -0.3728
 8865TIP3    H148086   2.565   5.356   3.634 -1.2852 -1.2241  0.3659
 8865TIP3    H248087   2.650   5.328   3.512 -0.6805  0.8093  0.3152
 8866TIP3   OH248088   0.110   5.420   0.227 -0.3852 -0.2596 -0.4359
 8866TIP3    H148089   0.182   5.359   0.242 -0.3914 -0.1251  0.1648
 8866TIP3    H248090   0.114   5.480   0.301 -0.5279  0.3245 -0.8970
 8867TIP3   OH248091   5.786   0.358   2.725 -0.4005 -0.1288  1.1825
 8867TIP3    H148092   5.843   0.410   2.670  0.3840 -0.4372  1.6960
 8867TIP3    H248093   5.844   0.321   2.791 -1.1439 -0.6884  1.5260
 8868TIP3   OH248094   3.268   4.565   4.682 -0.6103  0.1727 -0.1924
 8868TIP3    H148095   3.209   4.512   4.735  0.1953  1.3475  1.9378
 8868TIP3    H248096   3.239   4.551   4.592 -2.4757 -1.2857  0.6096
 8869TIP3   OH248097   5.319   0.058  15.647  0.2712  0.2798  0.2099
 8869TIP3    H148098   5.403   0.022  15.676  1.2773  1.0159 -1.6723
 8869TIP3    H248099   5.311   0.141  15.694 -0.0327 -0.3812  1.3532
 8870TIP3   OH248100   6.104   4.621  16.061 -0.1348 -0.1908  0.3830
 8870TIP3    H148101   6.067   4.686  16.120 -0.1402 -0.9598  1.2300
 8870TIP3    H248102   6.121   4.669  15.980  0.9161  1.1049  1.3673
 8871TIP3   OH248103   5.816   3.674   2.889  0.2089  0.2597 -0.4441
 8871TIP3    H148104   5.771   3.629   2.961 -1.6929 -2.1096 -3.0180
 8871TIP3    H248105   5.817   3.766   2.915 -2.5473 -0.2127  1.5492
 8872TIP3   OH248106   5.526   0.788  16.874  0.3637  0.3262 -0.5603
 8872TIP3    H148107   5.484   0.844  16.809 -0.0007 -0.7998 -1.3166
 8872TIP3    H248108   5.463   0.781  16.945  0.2654  0.5812 -0.6227
 8873TIP3   OH248109   1.153   3.087  11.928 -0.1379  0.8722 -0.3488
 8873TIP3    H148110   1.235   3.040  11.946 -0.1921  0.7014 -0.5434
 8873TIP3    H248111   1.112   3.036  11.858 -0.8623  0.4077  0.4002
 8874TIP3   OH248112   1.875   1.083  16.806 -0.3465 -0.2762 -0.1873
 8874TIP3    H148113   1.901   1.108  16.894 -1.9464 -4.0063  1.4430
 8874TIP3    H248114   1.948   1.032  16.772 -0.2302  0.1446 -0.5869
 8875TIP3   OH248115   5.284   6.777   5.496  0.2969 -0.7883 -0.4452
 8875TIP3    H148116   5.304   6.868   5.513  0.9503 -0.7116 -1.5851
 8875TIP3    H248117   5.206   6.759   5.549 -0.3637  0.6763 -0.9027
 8876TIP3   OH248118   0.505   2.527  15.651  0.3803  0.3374  0.3391
 8876TIP3    H148119   0.561   2.599  15.622 -1.2280  0.7196 -1.9451
 8876TIP3    H248120   0.416   2.562  15.649 -0.1971 -0.9717  1.6492
 8877TIP3   OH248121   5.485   4.674   6.053 -0.0565 -0.3124 -0.4220
 8877TIP3    H148122   5.442   4.707   5.974 -0.1826 -1.8687 -1.0075
 8877TIP3    H248123   5.413   4.648   6.111  0.0638 -0.8688 -0.5228
 8878TIP3   OH248124   0.845   6.095   5.325 -0.5465 -0.4238 -0.0605
 8878TIP3    H148125   0.862   6.100   5.231  3.9431  0.1449  0.6583
 8878TIP3    H248126   0.889   6.015   5.354 -2.1864 -0.7930  1.5261
 8879TIP3   OH248127   4.511   2.007   2.905 -0.4102  0.5758  0.2138
 8879TIP3    H148128   4.557   1.959   2.974 -0.7532 -1.4277 -0.9218
 8879TIP3    H248129   4.453   2.067   2.952 -2.2922 -2.3172  1.7390
 8880TIP3   OH248130   0.646   1.574   0.231  0.1207  0.0236  0.1242
 8880TIP3    H148131   0.634   1.629   0.308  0.5636  1.6133 -0.8988
 8880TIP3    H248132   0.569   1.517   0.229  0.1412 -0.0806  1.7562
 8881TIP3   OH248133   6.765   1.469  12.299 -0.1789  0.0524  0.6434
 8881TIP3    H148134   6.699   1.471  12.369 -1.6454 -2.0454 -0.6125
 8881TIP3    H248135   6.718   1.500  12.221  0.5404 -0.6533 -0.0791
 8882TIP3   OH248136   0.016   2.858  11.888 -0.3423 -0.3234 -0.2404
 8882TIP3    H148137  -0.035   2.939  11.890 -1.0041 -0.7382  0.0432
 8882TIP3    H248138   0.082   2.872  11.820  0.6134  1.0681  0.9602
 8883TIP3   OH248139   2.210   1.284   1.783 -0.6029  0.2359  0.1254
 8883TIP3    H148140   2.238   1.266   1.693 -0.2908  0.3012  0.2080
 8883TIP3    H248141   2.287   1.322   1.824 -0.8214  0.4271  0.3542
 8884TIP3   OH248142   1.279   5.820  13.364 -0.5737  0.1551 -0.0892
 8884TIP3    H148143   1.358   5.854  13.405  0.5010 -0.6333 -1.4294
 8884TIP3    H248144   1.210   5.829  13.430  0.5295  1.3017  0.9150
 8885TIP3   OH248145   2.410   3.540  13.297  0.2466  0.0044  0.7204
 8885TIP3    H148146   2.324   3.570  13.266  0.9303  0.5133 -0.7585
 8885TIP3    H248147   2.397   3.448  13.319 -0.3686 -0.2970 -0.8065
 8886TIP3   OH248148   5.715   3.722  11.643 -0.3539  0.3405  0.1824
 8886TIP3    H148149   5.674   3.784  11.582  0.9766  3.0912  1.9431
 8886TIP3    H248150   5.662   3.729  11.723  0.5500  0.1724  0.8042
 8887TIP3   OH248151   3.241   5.814   1.132  0.0395  0.0044  0.1086
 8887TIP3    H148152   3.194   5.868   1.069  1.4573 -0.0694 -1.0156
 8887TIP3    H248153   3.323   5.791   1.089  0.2253 -1.5793  1.2606
 8888TIP3   OH248154   3.566   0.956   0.563  0.8083  0.0057 -0.0658
 8888TIP3    H148155   3.529   0.916   0.484 -1.2709 -0.6416  1.1995
 8888TIP3    H248156   3.625   0.889   0.599  1.8928  0.3679 -1.1372
 8889TIP3   OH248157   0.088   3.012   4.106  0.0399 -0.2415 -0.3270
 8889TIP3    H148158   0.163   3.049   4.152 -1.7703  0.1172  2.4353
 8889TIP3    H248159   0.087   2.920   4.131 -0.2170 -0.3331 -0.6690
 8890TIP3   OH248160   3.890   0.395   3.844  0.1447  0.0682 -0.1927
 8890TIP3    H148161   3.969   0.420   3.892 -2.3087  0.7968  3.6622
 8890TIP3    H248162   3.818   0.438   3.891 -2.5375  0.1591 -4.0923
 8891TIP3   OH248163   6.148   2.794   1.571  0.3904  0.1323 -0.0235
 8891TIP3    H148164   6.085   2.823   1.636 -0.8053 -2.2859 -0.0513
 8891TIP3    H248165   6.121   2.836   1.490  1.1126  2.1163  0.7313
 8892TIP3   OH248166   1.539   5.822  11.541 -0.4385 -0.1479  0.2374
 8892TIP3    H148167   1.544   5.914  11.513  1.6026 -0.0444  0.8425
 8892TIP3    H248168   1.585   5.821  11.625 -2.1090 -1.3906  1.1434
 8893TIP3   OH248169   1.931   1.634   4.282 -0.3707  0.3078  0.7992
 8893TIP3    H148170   2.011   1.671   4.245  0.2820 -0.4538  1.4350
 8893TIP3    H248171   1.878   1.610   4.205  0.1203  0.5706  0.3770
 8894TIP3   OH248172   1.715   4.338   1.453  1.1963  0.7197  0.6604
 8894TIP3    H148173   1.749   4.248   1.453  0.0261  0.2671  1.3574
 8894TIP3    H248174   1.781   4.388   1.500  0.8608 -0.1758  2.1212
 8895TIP3   OH248175   0.823   4.840  16.635 -0.7019 -0.1779  0.1475
 8895TIP3    H148176   0.839   4.784  16.559 -0.6329  0.0421  0.0013
 8895TIP3    H248177   0.767   4.911  16.602 -0.0864  0.3044  0.1430
 8896TIP3   OH248178   1.443   6.188  11.155 -0.7545 -0.3142  0.7260
 8896TIP3    H148179   1.505   6.168  11.085 -0.3222 -2.2987  1.6460
 8896TIP3    H248180   1.498   6.200  11.233 -1.4797 -2.0200  1.5359
 8897TIP3   OH248181   1.816   5.564  16.545 -0.3594 -0.0286  0.5991
 8897TIP3    H148182   1.721   5.561  16.560 -0.0668  0.0910  2.6648
 8897TIP3    H248183   1.848   5.479  16.576  0.2332 -0.0299  0.0037
 8898TIP3   OH248184   1.911   6.629  17.145 -0.4301 -0.2594  0.3152
 8898TIP3    H148185   1.921   6.653  17.053  1.8125 -0.2677  0.5287
 8898TIP3    H248186   1.820   6.651  17.166 -1.1290 -0.8184 -2.0488
 8899TIP3   OH248187   3.482   5.257  17.206 -0.6657 -0.9944 -0.1164
 8899TIP3    H148188   3.470   5.349  17.181  1.8968 -1.4112 -3.1572
 8899TIP3    H248189   3.393   5.221  17.206 -1.4904  0.9759 -0.9652
 8900TIP3   OH248190   2.620   5.811  11.800 -0.2291  0.4801 -0.2411
 8900TIP3    H148191   2.696   5.820  11.742  0.5209  0.5006  0.7331
 8900TIP3    H248192   2.654   5.833  11.887 -1.4503  0.8949  0.1389
 8901TIP3   OH248193   2.006   1.284  11.720 -0.5522  0.1895  0.3032
 8901TIP3    H148194   2.066   1.232  11.667 -2.4541 -0.4492 -1.2998
 8901TIP3    H248195   2.037   1.272  11.810 -0.6561 -3.4101 -0.0509
 8902TIP3   OH248196   5.763   0.167   4.699 -0.1550  0.5098 -0.6189
 8902TIP3    H148197   5.788   0.254   4.670  3.0112  0.0762  0.6002
 8902TIP3    H248198   5.723   0.180   4.784  0.2096  0.7919 -0.4908
 8903TIP3   OH248199   0.019   0.637  16.505 -0.5212  0.0078  0.5248
 8903TIP3    H148200  -0.033   0.623  16.426 -2.3045 -0.7346  1.7948
 8903TIP3    H248201   0.075   0.560  16.510 -1.4640 -0.6818  0.7601
 8904TIP3   OH248202   6.387   0.698   1.981  0.5394  0.0496  0.0929
 8904TIP3    H148203   6.403   0.642   2.057  1.2915 -0.5297 -0.4795
 8904TIP3    H248204   6.475   0.721   1.949  0.2490  2.0311  0.6577
 8905TIP3   OH248205   3.114   2.677  16.207  0.1737 -0.2790  0.4046
 8905TIP3    H148206   3.026   2.671  16.170  0.0326  1.7626  0.3726
 8905TIP3    H248207   3.165   2.611  16.159 -0.9828 -0.4482 -0.6015
 8906TIP3   OH248208   1.103   4.095   2.441 -0.1757  0.0589  0.0144
 8906TIP3    H148209   1.100   4.190   2.441 -0.2737  0.0643 -1.8553
 8906TIP3    H248210   1.086   4.070   2.532 -2.5598  1.7312  0.0409
 8907TIP3   OH248211   2.149   3.214  10.402 -0.0252  0.5745 -0.7300
 8907TIP3    H148212   2.108   3.270  10.468  0.2161 -1.4180  1.1589
 8907TIP3    H248213   2.239   3.204  10.431  0.2088  0.0599 -1.6089
 8908TIP3   OH248214   6.688   2.835  11.522 -0.2570  0.2293 -0.0474
 8908TIP3    H148215   6.611   2.845  11.466  0.7912  0.1394 -1.5581
 8908TIP3    H248216   6.699   2.740  11.531 -0.3605  0.2421  0.1864
 8909TIP3   OH248217   3.626   3.724   0.857  0.2535 -0.5395  0.4506
 8909TIP3    H148218   3.670   3.741   0.941  1.7582 -1.9838 -0.0153
 8909TIP3    H248219   3.600   3.632   0.863 -1.3621 -0.1166  0.0877
 8910TIP3   OH248220   4.794   6.286   0.785 -0.3633 -0.7384  0.7902
 8910TIP3    H148221   4.773   6.355   0.849 -1.1215 -1.0786  0.9230
 8910TIP3    H248222   4.748   6.312   0.706  1.7386  0.4207 -0.0700
 8911TIP3   OH248223   1.928   3.464  13.623  0.3836 -0.5682  0.3984
 8911TIP3    H148224   1.926   3.559  13.620 -1.4855 -0.5864  0.1216
 8911TIP3    H248225   2.019   3.442  13.641  1.1375  1.2202 -1.0666
 8912TIP3   OH248226   0.558   4.133  14.352  0.2616  0.3562  0.4470
 8912TIP3    H148227   0.602   4.050  14.336 -0.5416  0.2658 -1.3926
 8912TIP3    H248228   0.483   4.110  14.407 -1.0460 -0.4590 -1.6191
 8913TIP3   OH248229   2.776   2.982  17.067 -0.4337 -0.4866  0.7508
 8913TIP3    H148230   2.706   3.046  17.080 -1.1478 -1.3710  1.3417
 8913TIP3    H248231   2.756   2.912  17.130 -0.7629 -2.2118 -1.2229
 8914TIP3   OH248232   4.126   0.810  11.601 -0.1398 -0.8571 -0.4227
 8914TIP3    H148233   4.068   0.886  11.606  1.4436  0.3040  0.8185
 8914TIP3    H248234   4.109   0.773  11.514 -0.9715  0.8703 -1.0244
 8915TIP3   OH248235   5.773   2.102  15.173 -0.0050  0.3493  0.0914
 8915TIP3    H148236   5.728   2.185  15.163 -1.2235 -0.3831 -0.6530
 8915TIP3    H248237   5.746   2.050  15.097  1.7847 -0.2551 -0.1651
 8916TIP3   OH248238   3.704   2.748  10.926 -0.2078 -0.0935 -0.1249
 8916TIP3    H148239   3.720   2.695  10.847  0.5125 -0.8995  0.5520
 8916TIP3    H248240   3.778   2.808  10.929 -0.4128  0.1643 -0.2471
 8917TIP3   OH248241   1.278   6.197   4.701 -0.8134  0.1919  0.1882
 8917TIP3    H148242   1.264   6.290   4.685  0.6363  0.5038  0.6475
 8917TIP3    H248243   1.256   6.185   4.793  3.5569  1.0863  1.4773
 8918TIP3   OH248244   3.461   5.349   0.979 -0.0675  0.3125  0.2443
 8918TIP3    H148245   3.500   5.322   0.897 -0.4724  0.4085  0.0193
 8918TIP3    H248246   3.372   5.314   0.977  0.0215  0.0512  0.7752
 8919TIP3   OH248247   2.750   2.231   2.615 -0.2786 -0.2050  0.5380
 8919TIP3    H148248   2.729   2.169   2.685 -0.3018 -0.4685  0.2967
 8919TIP3    H248249   2.712   2.192   2.536  0.4234 -0.2901  0.2390
 8920TIP3   OH248250   4.378   6.295   6.561 -0.2838  0.3771 -0.2663
 8920TIP3    H148251   4.461   6.343   6.554  0.4458 -0.6413  1.2258
 8920TIP3    H248252   4.323   6.350   6.616  0.1720  0.0441  0.5346
 8921TIP3   OH248253   2.081   3.906   4.276  0.0697 -0.2393  0.1446
 8921TIP3    H148254   2.127   3.836   4.321  0.3172  0.4466  0.9650
 8921TIP3    H248255   2.091   3.982   4.333 -1.8847 -0.0198  0.2326
 8922TIP3   OH248256   2.176   3.425   3.301 -1.0179  0.0656 -0.4315
 8922TIP3    H148257   2.174   3.460   3.212 -1.1778 -0.4593 -0.6372
 8922TIP3    H248258   2.214   3.495   3.354 -1.4028  0.5798 -0.8265
 8923TIP3   OH248259   1.987   1.482  16.024  0.3689 -0.1537  0.4400
 8923TIP3    H148260   1.945   1.486  16.110  0.1053 -0.7568  0.3414
 8923TIP3    H248261   2.049   1.409  16.031  0.0250 -0.4975 -0.0168
 8924TIP3   OH248262   3.082   6.276   6.104  0.0936  0.2938 -0.1161
 8924TIP3    H148263   3.029   6.329   6.164 -1.7435 -0.7929 -0.7334
 8924TIP3    H248264   3.079   6.188   6.141 -1.9464 -0.6162 -2.2909
 8925TIP3   OH248265   4.974   4.768   3.434 -0.3022  0.1568  0.1163
 8925TIP3    H148266   5.004   4.842   3.487 -0.0296  0.9882 -1.1984
 8925TIP3    H248267   4.901   4.802   3.383 -0.6848 -0.6990  0.0674
 8926TIP3   OH248268   2.128   2.966   4.871 -0.4032  0.4251  0.3113
 8926TIP3    H148269   2.093   2.882   4.902  0.6759 -0.5208 -0.9781
 8926TIP3    H248270   2.129   2.957   4.776 -1.3036  2.3306  0.1052
 8927TIP3   OH248271   2.285   5.375   5.838 -0.2192  0.0135 -0.0834
 8927TIP3    H148272   2.359   5.342   5.787 -0.7216 -1.7368  0.3056
 8927TIP3    H248273   2.220   5.305   5.835 -1.4525  1.1116  0.4658
 8928TIP3   OH248274   3.871   5.886  13.710  0.0820 -0.1554 -0.6306
 8928TIP3    H148275   3.859   5.874  13.804  1.2390  0.1469 -0.4454
 8928TIP3    H248276   3.783   5.905  13.678  0.0033  1.8265  0.6951
 8929TIP3   OH248277   5.613   0.213   4.377  0.0497  0.1232 -0.1486
 8929TIP3    H148278   5.518   0.219   4.391  0.0195 -1.8763  0.6450
 8929TIP3    H248279   5.646   0.176   4.458  1.1514 -1.9554 -1.5213
 8930TIP3   OH248280   6.017   6.056  12.193 -0.6898  0.0867  0.0241
 8930TIP3    H148281   6.062   5.996  12.133  0.0059  0.4772  0.1438
 8930TIP3    H248282   6.067   6.138  12.186 -3.0467  1.4394 -1.9494
 8931TIP3   OH248283   2.739   0.195  13.453 -0.5748  0.0719  0.2040
 8931TIP3    H148284   2.704   0.132  13.390  0.6446  1.7996 -2.2850
 8931TIP3    H248285   2.806   0.146  13.501 -0.2845 -0.7857 -1.0492
 8932TIP3   OH248286   2.216   5.756   5.256  0.2824 -0.1563  0.1764
 8932TIP3    H148287   2.203   5.684   5.317 -0.1513 -1.5914 -1.5638
 8932TIP3    H248288   2.307   5.749   5.228  0.7309  1.0167  1.2496
 8933TIP3   OH248289   4.120   6.186  15.735 -0.6869 -0.1281 -0.5747
 8933TIP3    H148290   4.065   6.248  15.687 -0.8309  0.8369  0.7874
 8933TIP3    H248291   4.202   6.233  15.748 -0.2315 -0.8272 -0.9004
 8934TIP3   OH248292   3.263   5.523  13.712 -0.0040  0.4524 -0.0851
 8934TIP3    H148293   3.343   5.472  13.727  1.5772  2.8185 -0.1586
 8934TIP3    H248294   3.212   5.512  13.791  0.8851 -0.2211  0.4091
 8935TIP3   OH248295   0.265   6.406   1.667  0.0472 -0.6741  0.4260
 8935TIP3    H148296   0.271   6.311   1.670  2.2447 -0.5749  0.1493
 8935TIP3    H248297   0.317   6.436   1.741 -0.4359  0.3119  0.3737
 8936TIP3   OH248298   1.354   3.949  12.349 -0.1777 -0.2940 -0.2214
 8936TIP3    H148299   1.317   4.012  12.410 -0.8616 -0.2547 -0.6588
 8936TIP3    H248300   1.279   3.896  12.322  0.3217 -1.0426 -0.1521
 8937TIP3   OH248301   1.768   1.738   4.459  0.1305  0.3779 -0.4158
 8937TIP3    H148302   1.831   1.805   4.485 -0.5329 -0.0465  2.3950
 8937TIP3    H248303   1.818   1.679   4.403  1.3872  1.8010 -0.8333
 8938TIP3   OH248304   4.243   1.491   1.060 -0.2394  0.3070  0.2435
 8938TIP3    H148305   4.174   1.503   1.125 -1.1720 -0.5560 -0.5713
 8938TIP3    H248306   4.318   1.540   1.095 -0.5764 -0.5015  2.1678
 8939TIP3   OH248307   5.194   3.167   4.489  0.5444  0.7591 -0.2572
 8939TIP3    H148308   5.245   3.248   4.481  0.9709  0.3734 -1.7095
 8939TIP3    H248309   5.231   3.110   4.422 -0.7942 -0.0815 -0.2864
 8940TIP3   OH248310   6.625   4.861   3.055 -0.1323 -0.0999  0.0710
 8940TIP3    H148311   6.708   4.845   3.010 -0.0072  0.8346 -0.0427
 8940TIP3    H248312   6.648   4.865   3.148 -0.2369 -1.0124  0.1448
 8941TIP3   OH248313   0.352   4.386  12.945 -0.0385 -0.2230  0.1359
 8941TIP3    H148314   0.326   4.412  13.034 -0.0921 -0.1969  0.1143
 8941TIP3    H248315   0.442   4.417  12.937  0.0782 -0.5267  0.3023
 8942TIP3   OH248316   5.542   5.016  16.785 -0.1402 -0.1042  0.4034
 8942TIP3    H148317   5.557   4.922  16.792  0.3948  0.0224  0.9566
 8942TIP3    H248318   5.474   5.024  16.717  0.4845 -0.8275 -0.3196
 8943TIP3   OH248319   6.540   1.225   2.380  0.5177 -0.4123 -0.2257
 8943TIP3    H148320   6.515   1.311   2.347  0.9580 -1.0681 -2.3734
 8943TIP3    H248321   6.628   1.211   2.345  0.5834 -1.5760  0.3913
 8944TIP3   OH248322   5.704   0.069   2.210 -0.1949 -0.4278  0.2576
 8944TIP3    H148323   5.617   0.048   2.176  0.0709 -2.1088  0.5908
 8944TIP3    H248324   5.762   0.056   2.135 -0.0902 -0.3625  0.3286
 8945TIP3   OH248325   1.988   6.750  14.608 -0.2521  0.3652  0.0844
 8945TIP3    H148326   2.083   6.746  14.599 -0.1781  0.2259  0.9630
 8945TIP3    H248327   1.958   6.662  14.584 -0.1114  0.2234  0.4277
 8946TIP3   OH248328   6.818   2.712   3.886  0.5372  0.4952 -0.0094
 8946TIP3    H148329   6.825   2.803   3.860 -0.4839  0.3391 -0.8567
 8946TIP3    H248330   6.774   2.714   3.971 -2.2498  0.6328 -1.4232
 8947TIP3   OH248331   4.106   3.396  14.478  0.2332  0.0393  0.1096
 8947TIP3    H148332   4.059   3.470  14.439  1.6637  0.5838 -0.6092
 8947TIP3    H248333   4.042   3.325  14.478 -1.0681  1.1846  0.5402
 8948TIP3   OH248334   4.827   5.724   0.444  0.1128  0.6088  0.4754
 8948TIP3    H148335   4.858   5.655   0.502 -1.9565 -0.5639  0.2432
 8948TIP3    H248336   4.795   5.792   0.502 -2.1576 -0.6542  0.8025
 8949TIP3   OH248337   5.526   3.945   2.706 -0.2519  0.1036 -0.2147
 8949TIP3    H148338   5.618   3.929   2.686  0.1222  1.7566  0.0770
 8949TIP3    H248339   5.515   3.911   2.795 -0.7172 -2.8887 -1.3714
 8950TIP3   OH248340   6.779   3.161   4.810  0.1570  0.3917  0.0204
 8950TIP3    H148341   6.716   3.159   4.882 -0.4716  1.1499 -0.5038
 8950TIP3    H248342   6.860   3.193   4.849 -0.1411  0.6452  0.4271
 8951TIP3   OH248343   0.743   5.644   0.734 -0.3305 -0.0953  0.0980
 8951TIP3    H148344   0.778   5.644   0.823 -2.2449  0.7414  0.8806
 8951TIP3    H248345   0.790   5.716   0.690 -1.3126  1.2976  1.2579
 8952TIP3   OH248346   3.418   3.971  12.939  0.3556  0.3421  0.5059
 8952TIP3    H148347   3.493   3.934  12.986  1.1339 -0.3562 -1.2401
 8952TIP3    H248348   3.436   4.065  12.936  1.9645  0.0139 -1.2346
 8953TIP3   OH248349   0.077   3.562   1.273 -0.3744 -0.8355  0.4776
 8953TIP3    H148350  -0.015   3.572   1.247  0.0840  0.2345 -0.7966
 8953TIP3    H248351   0.102   3.648   1.305  0.1157 -1.1979  1.0808
 8954TIP3   OH248352   1.026   5.825  11.907  0.4559 -0.2512 -0.7780
 8954TIP3    H148353   1.072   5.767  11.847  0.0885 -2.0391  0.6036
 8954TIP3    H248354   0.936   5.791  11.908  0.4437 -0.2096  0.7134
 8955TIP3   OH248355   4.892   6.088   3.605 -0.3038 -0.0285  0.6527
 8955TIP3    H148356   4.797   6.084   3.609 -0.3046  0.6254  1.3272
 8955TIP3    H248357   4.914   6.177   3.630  0.4440  0.0990 -0.4429
 8956TIP3   OH248358   1.061   3.535   6.289 -0.3147  0.4252 -0.3825
 8956TIP3    H148359   1.114   3.571   6.360 -2.6344  1.2629  0.9889
 8956TIP3    H248360   1.030   3.611   6.241  0.0544 -0.0804 -1.4312
 8957TIP3   OH248361   0.621   0.263  10.838 -0.0572  0.0379 -0.9494
 8957TIP3    H148362   0.605   0.342  10.786  1.5008  0.8520 -0.2166
 8957TIP3    H248363   0.672   0.207  10.780  0.5313  0.3947 -0.7833
 8958TIP3   OH248364   4.102   1.160   6.557 -0.2428 -0.0529 -0.3677
 8958TIP3    H148365   4.013   1.194   6.569  0.8067  1.9089  2.2684
 8958TIP3    H248366   4.147   1.228   6.507  0.5699  0.3485  0.8825
 8959TIP3   OH248367   5.418   2.808  13.919  0.4600  0.3961 -0.0583
 8959TIP3    H148368   5.406   2.719  13.885  1.8339  0.5760 -1.0483
 8959TIP3    H248369   5.512   2.823  13.914  0.4148  1.2958  1.7021
 8960TIP3   OH248370   6.606   0.694  16.306 -0.1537  0.8395  0.7747
 8960TIP3    H148371   6.640   0.611  16.272 -0.4687  0.1499  2.1497
 8960TIP3    H248372   6.511   0.685  16.302 -0.2293  2.0213 -1.2057
 8961TIP3   OH248373   2.520   0.562  11.952  0.5965  0.1945 -0.3370
 8961TIP3    H148374   2.428   0.588  11.941  0.5936 -0.5225 -2.0542
 8961TIP3    H248375   2.543   0.519  11.870  2.1322 -0.6745  0.5322
 8962TIP3   OH248376   5.299   6.706   1.647 -0.3888  0.5567 -0.1779
 8962TIP3    H148377   5.257   6.621   1.629 -2.0400  1.3633 -0.2692
 8962TIP3    H248378   5.293   6.754   1.564  1.0575  0.5569 -0.2867
 8963TIP3   OH248379   4.968   6.095   0.565  0.1574  0.2565 -0.0077
 8963TIP3    H148380   4.998   6.016   0.610  1.1590  0.0968 -0.9166
 8963TIP3    H248381   4.875   6.100   0.585 -0.0577 -1.5016 -0.4079
 8964TIP3   OH248382   5.114   4.268  14.450 -0.4278 -0.0515  0.1037
 8964TIP3    H148383   5.121   4.293  14.542 -0.0211  0.7744 -0.1489
 8964TIP3    H248384   5.077   4.344  14.407  1.3382  0.3310 -0.7599
 8965TIP3   OH248385   3.081   3.544   3.357  0.6114 -0.0498 -0.0525
 8965TIP3    H148386   3.172   3.516   3.362  0.9960  1.2512  0.6108
 8965TIP3    H248387   3.086   3.639   3.348 -0.6909  0.2019  1.5603
 8966TIP3   OH248388   0.863   5.145   4.279 -0.7769  0.0187  0.4630
 8966TIP3    H148389   0.861   5.240   4.294  0.5550  0.3065 -1.1153
 8966TIP3    H248390   0.941   5.115   4.326 -2.1497 -0.5752  2.4137
 8967TIP3   OH248391   3.801   1.615  12.756 -0.7424 -0.2970  0.2428
 8967TIP3    H148392   3.776   1.593  12.846  1.7641 -1.6541  0.6793
 8967TIP3    H248393   3.779   1.537  12.705 -2.8810  0.7605 -0.5040
 8968TIP3   OH248394   0.147   6.566  12.442 -0.0083 -0.5047 -0.5147
 8968TIP3    H148395   0.211   6.508  12.483  1.2855  0.4483 -1.1294
 8968TIP3    H248396   0.186   6.587  12.356 -0.1795  1.6860 -0.0971
 8969TIP3   OH248397   4.307   4.411  15.582  0.3071 -0.2035  0.7160
 8969TIP3    H148398   4.264   4.355  15.518  1.1215 -2.2455  1.8929
 8969TIP3    H248399   4.321   4.354  15.658  1.3469  1.5524  1.8815
 8970TIP3   OH248400   2.792   4.477   6.223 -0.4359 -0.0402 -0.2663
 8970TIP3    H148401   2.822   4.396   6.265  0.9452  1.1939  1.1881
 8970TIP3    H248402   2.729   4.515   6.284 -1.0322  0.0362 -0.9142
 8971TIP3   OH248403   3.557   0.422   0.406  0.0273 -0.4266 -0.0011
 8971TIP3    H148404   3.501   0.387   0.476  1.0803 -1.4443  0.3509
 8971TIP3    H248405   3.506   0.493   0.368 -0.7464 -0.1409  1.5144
 8972TIP3   OH248406   4.710   2.346  10.924  0.1862 -0.2170 -0.1895
 8972TIP3    H148407   4.746   2.343  10.835 -0.3031 -1.9016 -0.3470
 8972TIP3    H248408   4.787   2.341  10.980  0.5341  1.3416 -0.4945
 8973TIP3   OH248409   4.800   2.706   4.294  0.5160  0.2381  0.3486
 8973TIP3    H148410   4.724   2.654   4.321  1.1843  0.4422  2.7059
 8973TIP3    H248411   4.821   2.674   4.206 -0.9716 -1.3319  0.5400
 8974TIP3   OH248412   5.002   3.622  12.250 -0.3402 -0.8213 -0.0472
 8974TIP3    H148413   4.979   3.606  12.342 -1.2621 -0.2624 -0.1700
 8974TIP3    H248414   4.925   3.593  12.201  0.1740 -1.1763 -0.6567
 8975TIP3   OH248415   6.560   5.859  16.483  0.0078  0.8383 -0.1662
 8975TIP3    H148416   6.485   5.915  16.503 -1.4544 -0.0304 -2.8555
 8975TIP3    H248417   6.546   5.781  16.537 -0.2290  1.3169  0.4635
 8976TIP3   OH248418   2.183   5.318  14.265 -0.2833  0.5792  0.0716
 8976TIP3    H148419   2.235   5.306  14.345 -1.0879  1.8796  0.8120
 8976TIP3    H248420   2.186   5.412  14.248 -0.9167  0.4310 -0.8928
 8977TIP3   OH248421   5.838   3.998  16.203 -0.3103 -0.0194 -0.0108
 8977TIP3    H148422   5.744   3.985  16.214 -0.2261 -1.0204 -0.4425
 8977TIP3    H248423   5.860   4.068  16.265 -1.0856 -0.7585  1.0972
 8978TIP3   OH248424   6.599   2.954   1.074  0.1062 -0.0137  0.1668
 8978TIP3    H148425   6.667   2.887   1.066 -0.0402 -0.1462  0.0312
 8978TIP3    H248426   6.645   3.037   1.063  0.2480 -0.1030  0.0906
 8979TIP3   OH248427   0.746   5.141   0.326 -0.2112  0.5497  0.0894
 8979TIP3    H148428   0.822   5.198   0.341 -1.6309  1.9538  2.2884
 8979TIP3    H248429   0.672   5.190   0.363 -1.6876 -2.1183  0.7486
 8980TIP3   OH248430   0.085   4.108  14.628 -0.0455 -0.2336  0.0024
 8980TIP3    H148431   0.023   4.058  14.575 -0.5226 -0.1824  0.5059
 8980TIP3    H248432   0.126   4.043  14.684 -0.7411 -0.0520  0.7303
 8981TIP3   OH248433   1.909   4.387  12.110  0.1668 -0.1087  0.3725
 8981TIP3    H148434   1.959   4.404  12.190 -0.6002 -3.7306  1.7000
 8981TIP3    H248435   1.974   4.383  12.041  1.0111  1.5047  1.0454
 8982TIP3   OH248436   4.293   0.655  10.686 -0.1609 -0.2745 -0.2373
 8982TIP3    H148437   4.337   0.642  10.602  1.4010  1.9913  0.1883
 8982TIP3    H248438   4.254   0.742  10.680 -0.2562 -0.1956  1.2823
 8983TIP3   OH248439   4.404   2.833  15.536  0.5984 -0.1863 -0.6672
 8983TIP3    H148440   4.458   2.799  15.607 -0.4241  0.2723  0.3541
 8983TIP3    H248441   4.448   2.913  15.509 -2.1505  2.9890  3.6079
 8984TIP3   OH248442   1.255   4.397  12.936  0.8234 -0.5275 -0.7476
 8984TIP3    H148443   1.321   4.349  12.886  1.7294 -0.9015  0.7682
 8984TIP3    H248444   1.243   4.345  13.016  0.3007  0.6899 -0.0156
 8985TIP3   OH248445   5.990   0.906   7.112 -0.5326 -0.2387  0.2682
 8985TIP3    H148446   5.985   0.830   7.055 -1.2997 -0.6157  0.8386
 8985TIP3    H248447   5.915   0.959   7.087 -0.0713  0.2829 -0.0415
 8986TIP3   OH248448   1.971   3.199   0.009 -0.4363  0.2047  0.0999
 8986TIP3    H148449   1.877   3.212  -0.000 -0.5838 -2.1253 -2.3035
 8986TIP3    H248450   1.980   3.140   0.084 -0.7746  1.6634  1.2984
 8987TIP3   OH248451   5.267   2.624   6.583 -0.0060  0.1851 -0.5752
 8987TIP3    H148452   5.240   2.692   6.645  0.3072 -0.5474  0.3953
 8987TIP3    H248453   5.328   2.668   6.524  0.4331  0.6705  0.2297
 8988TIP3   OH248454   1.470   1.888  11.408 -0.1530 -0.0067 -0.7683
 8988TIP3    H148455   1.496   1.823  11.343  2.4407 -1.7431  1.8553
 8988TIP3    H248456   1.519   1.967  11.384  0.8162 -0.6510 -0.9634
 8989TIP3   OH248457   2.584   1.966  14.639  0.2303  0.2438 -0.0275
 8989TIP3    H148458   2.542   1.975  14.724  0.0106  0.9539 -0.2053
 8989TIP3    H248459   2.669   1.926  14.658 -0.6024 -1.4290  0.3114
 8990TIP3   OH248460   3.947   3.012   4.876 -0.3328  0.0600  0.2115
 8990TIP3    H148461   3.904   3.037   4.794  0.2658  0.4981  0.0290
 8990TIP3    H248462   3.917   3.077   4.939 -1.2036 -0.5850  0.4625
 8991TIP3   OH248463   3.462   1.321  15.756  0.4743  0.5957 -0.2963
 8991TIP3    H148464   3.540   1.279  15.791  0.0735 -0.6892 -0.8930
 8991TIP3    H248465   3.441   1.270  15.678 -1.9435 -0.1652  0.7992
 8992TIP3   OH248466   4.784   4.128   1.606  0.2369  0.6493 -0.6716
 8992TIP3    H148467   4.763   4.038   1.631 -0.8019  0.9447 -0.4392
 8992TIP3    H248468   4.734   4.182   1.667 -0.0970  1.3782 -1.5691
 8993TIP3   OH248469   5.821   2.728   4.465  0.1187  0.2030 -0.3301
 8993TIP3    H148470   5.732   2.714   4.496  0.6730 -0.8563  0.8208
 8993TIP3    H248471   5.820   2.817   4.429 -0.9695  0.8126  1.1712
 8994TIP3   OH248472   5.496   2.916   1.905 -0.1053 -0.8308  0.4315
 8994TIP3    H148473   5.493   2.882   1.994 -0.0916 -0.6099  0.5156
 8994TIP3    H248474   5.457   3.003   1.911 -0.8011 -1.1132  0.0880
 8995TIP3   OH248475   5.702   4.402  16.432  0.0695  0.1102  0.0713
 8995TIP3    H148476   5.766   4.332  16.438  1.9840  1.8638  0.5878
 8995TIP3    H248477   5.632   4.377  16.493  1.1240 -0.9265  0.8642
 8996TIP3   OH248478   2.030   3.789   2.572  0.3472  0.0326  0.4485
 8996TIP3    H148479   1.993   3.803   2.485 -0.4839  0.6141  0.8836
 8996TIP3    H248480   2.010   3.698   2.593  0.2718 -0.0177  0.1607
 8997TIP3   OH248481   5.394   3.026  13.020  0.1905 -0.0019  0.4409
 8997TIP3    H148482   5.474   2.990  12.981 -0.2426 -1.2516  0.6718
 8997TIP3    H248483   5.325   2.966  12.991 -0.4556  0.3050  1.3420
 8998TIP3   OH248484   3.896   0.265   2.197 -0.1361  0.0434  0.0621
 8998TIP3    H148485   3.922   0.173   2.191 -0.1854  0.0637 -0.5087
 8998TIP3    H248486   3.815   0.264   2.248  1.1107  0.0056  2.0712
 8999TIP3   OH248487   1.916   1.145   1.463  0.4042 -0.2831 -0.1768
 8999TIP3    H148488   1.904   1.239   1.456  0.8652 -0.2998 -1.1562
 8999TIP3    H248489   1.949   1.117   1.377 -0.9672 -1.5123 -0.3334
 9000TIP3   OH248490   0.479   5.517  15.749 -1.4373  0.2168  0.4321
 9000TIP3    H148491   0.420   5.583  15.786  0.3453 -0.0920  3.9800
 9000TIP3    H248492   0.567   5.544  15.775 -0.4383 -2.1499 -0.2551
 9001TIP3   OH248493   2.753   4.099  12.616  0.1770  0.3762 -0.2943
 9001TIP3    H148494   2.814   4.153  12.666 -1.7096  0.6615  1.7423
 9001TIP3    H248495   2.742   4.020  12.669 -0.9995  0.1947 -0.8094
 9002TIP3   OH248496   2.347   2.321  13.421  0.8846 -0.3875  0.3272
 9002TIP3    H148497   2.335   2.413  13.399  1.5029  0.0755  1.8586
 9002TIP3    H248498   2.266   2.297  13.467 -0.1688 -1.2053 -1.8353
 9003TIP3   OH248499   0.379   2.335  15.900 -0.1421  0.3051 -0.2685
 9003TIP3    H148500   0.466   2.315  15.865 -0.9939  0.7511 -2.6953
 9003TIP3    H248501   0.328   2.256  15.884 -0.5448  0.5165 -0.0316
 9004TIP3   OH248502   3.244   4.968   5.787 -0.4232 -0.2844  0.3558
 9004TIP3    H148503   3.307   4.924   5.844 -0.5057  0.7667  1.2624
 9004TIP3    H248504   3.177   5.002   5.846 -0.1725  1.3971 -0.2911
 9005TIP3   OH248505   1.967   1.013   5.558  0.2613 -0.6558 -0.6521
 9005TIP3    H148506   2.008   0.975   5.636 -0.1146 -0.4777 -0.3666
 9005TIP3    H248507   1.887   0.962   5.546 -0.0374 -0.2197 -0.5102
 9006TIP3   OH248508   0.647   0.488  12.312 -0.7318  0.2318  0.2201
 9006TIP3    H148509   0.683   0.466  12.226 -1.2843 -0.0676  0.0609
 9006TIP3    H248510   0.634   0.403  12.355  0.1448  0.4020  0.8567
 9007TIP3   OH248511   0.056   3.086  16.329  0.2939 -0.1356 -0.1453
 9007TIP3    H148512   0.105   3.016  16.372  0.0441  0.8038  1.7123
 9007TIP3    H248513   0.122   3.152  16.308  0.6229 -1.1289 -2.4074
 9008TIP3   OH248514   5.550   6.336   1.966 -0.2321 -0.1266 -0.1418
 9008TIP3    H148515   5.535   6.339   1.872 -0.5487  0.8304 -0.0677
 9008TIP3    H248516   5.584   6.423   1.988  2.9467 -1.3767  0.1115
 9009TIP3   OH248517   5.025   5.189   5.755 -0.1489  0.5538  0.2483
 9009TIP3    H148518   5.062   5.204   5.842 -0.6053 -0.9644  0.7101
 9009TIP3    H248519   5.082   5.239   5.696  1.5385 -0.2420  1.1642
 9010TIP3   OH248520   3.222   6.275  15.303  0.3861  0.3747 -0.0401
 9010TIP3    H148521   3.140   6.229  15.323  0.5107 -1.2957 -3.0450
 9010TIP3    H248522   3.289   6.221  15.344  0.1918  0.1837  0.0337
 9011TIP3   OH248523   1.348   3.289  13.027  0.1238 -0.6149  0.0299
 9011TIP3    H148524   1.412   3.337  12.975 -0.3751 -0.3243 -0.3172
 9011TIP3    H248525   1.335   3.343  13.105  0.3899 -0.7358  0.1606
 9012TIP3   OH248526   5.697   5.082  14.275  0.3061 -0.4116  0.1192
 9012TIP3    H148527   5.768   5.043  14.224  1.6416  0.8932  0.9154
 9012TIP3    H248528   5.723   5.070  14.366 -0.1470  0.6865  0.4045
 9013TIP3   OH248529   2.563   1.527  16.319  0.1515 -0.3954  0.3212
 9013TIP3    H148530   2.486   1.472  16.325 -0.7048  0.4931 -1.8762
 9013TIP3    H248531   2.529   1.617  16.320  0.9566 -0.0039 -2.3209
 9014TIP3   OH248532   4.118   2.130  17.250 -0.0897 -0.2497  0.1619
 9014TIP3    H148533   4.167   2.195  17.199 -1.4006 -1.0388 -2.1613
 9014TIP3    H248534   4.076   2.180  17.320 -0.0623  1.1947 -0.8508
 9015TIP3   OH248535   3.624   6.375   2.679  0.3468  0.7661  0.3366
 9015TIP3    H148536   3.638   6.351   2.770  0.1784  1.1114  0.4558
 9015TIP3    H248537   3.537   6.415   2.678  0.7016  1.5587  0.1898
 9016TIP3   OH248538   5.629   3.229  14.193  0.1078  0.2257 -0.5085
 9016TIP3    H148539   5.539   3.232  14.227 -0.3157 -1.2945 -1.4382
 9016TIP3    H248540   5.673   3.164  14.247  0.3839  0.2774 -0.6692
 9017TIP3   OH248541   6.817   4.323   1.154 -0.1809  0.3349  0.2404
 9017TIP3    H148542   6.813   4.334   1.059  0.5506  0.2005  0.1916
 9017TIP3    H248543   6.752   4.255   1.172 -0.6136  0.6527 -0.1172
 9018TIP3   OH248544   1.904   0.878  17.166 -0.3226 -0.6771 -0.2813
 9018TIP3    H148545   1.847   0.948  17.199  1.8620  0.9237  0.1615
 9018TIP3    H248546   1.862   0.851  17.084 -1.0498  1.3650 -0.6257
 9019TIP3   OH248547   5.866   2.508   3.498  0.2804 -0.1408  0.1679
 9019TIP3    H148548   5.915   2.464   3.428  0.0180 -1.5847  0.8536
 9019TIP3    H248549   5.896   2.464   3.578  0.9390  1.8101  1.0234
 9020TIP3   OH248550   1.044   4.733  15.253  0.1494 -0.0198  0.0253
 9020TIP3    H148551   1.126   4.771  15.221  0.5637 -1.9034 -1.2807
 9020TIP3    H248552   1.019   4.671  15.184 -0.9204 -1.4584  1.6727
 9021TIP3   OH248553   4.134   4.174   2.428 -0.6042  0.0533 -0.4727
 9021TIP3    H148554   4.064   4.124   2.470  0.1045 -0.1988  0.4358
 9021TIP3    H248555   4.152   4.246   2.489  1.2934 -1.0284  0.3003
 9022TIP3   OH248556   2.332   1.568  11.723  0.1526  0.8413 -0.4724
 9022TIP3    H148557   2.270   1.526  11.664 -0.1276  1.0851 -0.3492
 9022TIP3    H248558   2.316   1.662  11.712  1.1637  0.9434 -1.1642
 9023TIP3   OH248559   6.417   4.187   1.485 -0.3836 -0.3076  0.2062
 9023TIP3    H148560   6.400   4.156   1.396 -0.2091 -1.1016  0.4509
 9023TIP3    H248561   6.458   4.273   1.473  0.2980 -0.7261 -0.4932
 9024TIP3   OH248562   2.899   5.085   1.833  0.0036 -0.3052  0.6905
 9024TIP3    H148563   2.936   5.036   1.760  0.6154  0.9674  0.1327
 9024TIP3    H248564   2.804   5.072   1.825  0.1270 -0.9318  0.2257
 9025TIP3   OH248565   5.706   4.372  12.623  0.4020 -0.0649 -0.0682
 9025TIP3    H148566   5.783   4.428  12.615 -0.7350  1.5663  0.0622
 9025TIP3    H248567   5.741   4.285  12.642  2.1801  0.8139  0.8562
 9026TIP3   OH248568   2.205   1.052   3.840 -0.6010 -0.1740  0.7431
 9026TIP3    H148569   2.300   1.060   3.850 -0.6214 -0.7887  1.4476
 9026TIP3    H248570   2.188   1.080   3.750  0.1875  0.4166  0.7729
 9027TIP3   OH248571   6.036   5.355  12.950 -0.4049  0.2942 -0.0309
 9027TIP3    H148572   6.079   5.356  13.036  0.2476 -1.0112 -0.3185
 9027TIP3    H248573   5.943   5.355  12.970 -0.2676  1.8223  0.6371
 9028TIP3   OH248574   3.336   4.006   4.260  0.1486  0.3056 -0.4892
 9028TIP3    H148575   3.391   4.085   4.261  2.5710 -1.3308  2.4170
 9028TIP3    H248576   3.394   3.937   4.228 -0.0815 -1.4812  2.7281
 9029TIP3   OH248577   6.582   5.284   4.880  0.1282 -0.4368  0.0605
 9029TIP3    H148578   6.531   5.359   4.849  0.2650 -0.3838 -0.0347
 9029TIP3    H248579   6.663   5.287   4.829  0.1555 -0.6210  0.0902
 9030TIP3   OH248580   2.940   1.446  12.272 -0.3591  0.0950 -0.0111
 9030TIP3    H148581   2.895   1.402  12.199  1.4469  0.5409 -1.4322
 9030TIP3    H248582   3.007   1.383  12.299  0.9395  1.1412 -0.7464
 9031TIP3   OH248583   1.878   5.532  17.034  0.2684 -0.2677  0.1267
 9031TIP3    H148584   1.955   5.476  17.026  1.0935  0.5989  1.8376
 9031TIP3    H248585   1.859   5.560  16.944  2.3469  0.0473 -0.2330
 9032TIP3   OH248586   3.132   5.161   0.288  0.5561  0.5166 -0.3114
 9032TIP3    H148587   3.223   5.175   0.312  0.6197  1.4342 -1.0726
 9032TIP3    H248588   3.108   5.239   0.237 -0.2153 -0.3775 -1.3433
 9033TIP3   OH248589   4.767   4.419   3.699  0.0142  0.4302 -0.7123
 9033TIP3    H148590   4.797   4.506   3.726  1.8533 -0.4874  0.2437
 9033TIP3    H248591   4.845   4.365   3.701 -0.9692 -1.0764 -2.1105
 9034TIP3   OH248592   4.334   4.525   5.636  0.2466 -0.7626  0.6108
 9034TIP3    H148593   4.408   4.467   5.617  0.8279  0.2092 -0.1346
 9034TIP3    H248594   4.291   4.536   5.551  1.5479  1.8181  0.2309
 9035TIP3   OH248595   6.252   3.460  14.190 -0.1649 -0.6191 -0.0486
 9035TIP3    H148596   6.302   3.404  14.249  0.8678 -0.5569 -0.8306
 9035TIP3    H248597   6.300   3.455  14.107  0.7452  2.4587  0.2226
 9036TIP3   OH248598   2.552   4.947   0.271 -0.3948 -0.3543  0.3983
 9036TIP3    H148599   2.580   4.896   0.195 -2.4274 -1.8190  0.5966
 9036TIP3    H248600   2.592   4.902   0.346 -0.7725 -0.6303  0.4337
 9037TIP3   OH248601   1.433   6.816   3.447 -0.3717 -0.1720 -0.1356
 9037TIP3    H148602   1.364   6.749   3.438 -1.0120  0.3271  0.9127
 9037TIP3    H248603   1.470   6.800   3.534 -0.8517  1.1276  0.3230
 9038TIP3   OH248604   5.451   1.184  16.078  0.1988  0.8466 -0.6949
 9038TIP3    H148605   5.518   1.136  16.028  0.9305  0.0857  0.9832
 9038TIP3    H248606   5.494   1.267  16.101  0.4950  0.4480  0.1979
 9039TIP3   OH248607   4.102   4.848   2.979  0.2516 -0.2834  0.2990
 9039TIP3    H148608   4.182   4.897   2.963 -0.9770  1.3364 -1.1205
 9039TIP3    H248609   4.073   4.821   2.892 -0.7875 -0.7452  0.7794
 9040TIP3   OH248610   0.933   3.477  14.305 -0.3346 -0.1324  0.1717
 9040TIP3    H148611   0.880   3.550  14.334 -1.6175 -0.4745 -1.2764
 9040TIP3    H248612   0.982   3.510  14.230 -0.9771 -0.7826 -0.5367
 9041TIP3   OH248613   5.379   1.897   6.075  0.6377 -0.4647  0.0167
 9041TIP3    H148614   5.388   1.833   6.146  0.1444 -0.0215  0.4850
 9041TIP3    H248615   5.301   1.947   6.098  0.3878 -0.4113 -0.9187
 9042TIP3   OH248616   0.222   0.288   3.759 -0.2247 -0.2437 -0.3654
 9042TIP3    H148617   0.246   0.380   3.762  1.6583 -0.6923 -1.2371
 9042TIP3    H248618   0.189   0.274   3.670 -0.2822 -0.4715 -0.3093
 9043TIP3   OH248619   6.300   4.677   4.000 -0.6666 -0.5498  0.1676
 9043TIP3    H148620   6.263   4.745   3.945  2.0299  0.6654 -0.2190
 9043TIP3    H248621   6.319   4.605   3.940  1.6010  0.5012 -0.4164
 9044TIP3   OH248622   6.626   6.561  15.933 -0.0736  0.6606 -0.1917
 9044TIP3    H148623   6.554   6.624  15.927 -0.8850 -0.2987 -0.8303
 9044TIP3    H248624   6.616   6.521  16.020 -1.9079 -1.2867 -1.2327
 9045TIP3   OH248625   2.896   4.400   0.193  0.5345 -0.1554  0.1295
 9045TIP3    H148626   2.829   4.379   0.259  0.1849  1.2374  0.2384
 9045TIP3    H248627   2.846   4.419   0.114  0.8303  0.3819  0.0715
 9046TIP3   OH248628   5.723   0.991  15.155 -0.3575 -0.1583  0.6644
 9046TIP3    H148629   5.717   1.083  15.180 -0.0707  0.1725 -0.4429
 9046TIP3    H248630   5.812   0.965  15.178  0.2693  0.4528 -0.9734
 9047TIP3   OH248631   0.180   6.521   4.036 -0.6326 -0.1315 -0.0952
 9047TIP3    H148632   0.240   6.549   4.106 -1.9514  0.3440  0.8549
 9047TIP3    H248633   0.183   6.593   3.973  0.7659 -0.6790 -0.6774
 9048TIP3   OH248634   5.083   2.235  13.915  0.0331 -0.5416  0.5158
 9048TIP3    H148635   5.017   2.304  13.918 -0.3191 -0.9272  1.9049
 9048TIP3    H248636   5.041   2.164  13.867  0.0578 -0.1571 -0.0844
 9049TIP3   OH248637   0.553   1.783   5.754 -0.1933 -0.0829  0.3684
 9049TIP3    H148638   0.596   1.697   5.757  1.5109  0.7553  0.2840
 9049TIP3    H248639   0.584   1.822   5.673  0.5289  1.3882  1.3422
 9050TIP3   OH248640   1.766   5.423   6.677  0.2672  0.4434 -0.2862
 9050TIP3    H148641   1.774   5.330   6.657 -2.9802  0.1433 -0.3319
 9050TIP3    H248642   1.768   5.428   6.773 -3.1552 -0.0856 -0.1467
 9051TIP3   OH248643   0.705   6.763   3.285 -0.0950  0.4596 -0.2811
 9051TIP3    H148644   0.764   6.806   3.222 -0.8553  0.4560 -1.0033
 9051TIP3    H248645   0.647   6.833   3.315 -0.4856  0.2152 -0.4665
 9052TIP3   OH248646   5.695   5.976  14.787 -0.5998  0.6477 -0.7720
 9052TIP3    H148647   5.725   6.046  14.846  0.5867  0.1064 -0.7251
 9052TIP3    H248648   5.659   5.909  14.846  2.1964 -0.6847 -0.4940
 9053TIP3   OH248649   5.091   5.203   4.638  0.2428 -0.1976  0.3393
 9053TIP3    H148650   5.065   5.216   4.729 -3.0240 -0.0540 -0.5755
 9053TIP3    H248651   5.134   5.117   4.638 -2.1335 -1.4113  1.5518
 9054TIP3   OH248652   2.074   1.516  15.570  0.2265  0.2395  0.2960
 9054TIP3    H148653   2.081   1.431  15.528  0.2251  0.2118  0.3525
 9054TIP3    H248654   2.145   1.568  15.531 -0.9472  0.8094 -1.1476
 9055TIP3   OH248655   6.140   1.956  15.686 -0.2545  0.0909  0.4186
 9055TIP3    H148656   6.062   1.905  15.707 -0.9062  0.8954 -0.0567
 9055TIP3    H248657   6.200   1.938  15.759 -1.4040  0.5549  1.5019
 9056TIP3   OH248658   2.520   6.649  14.072 -0.7821 -0.6513 -1.0043
 9056TIP3    H148659   2.462   6.723  14.092 -0.6913 -1.1160  1.1419
 9056TIP3    H248660   2.565   6.675  13.992 -0.8758  1.5738 -0.3845
 9057TIP3   OH248661   4.438   2.091   2.102 -0.1889 -0.4437  0.0420
 9057TIP3    H148662   4.478   2.123   2.021 -0.4689 -0.5467 -0.1388
 9057TIP3    H248663   4.454   1.996   2.100  0.9773 -0.2632  0.7659
 9058TIP3   OH248664   3.405   2.469   0.361  0.2202 -0.7098 -0.6559
 9058TIP3    H148665   3.445   2.482   0.275  2.1504 -0.6113  0.2366
 9058TIP3    H248666   3.452   2.395   0.398 -0.0170 -0.2146  0.6613
 9059TIP3   OH248667   2.488   4.781  12.917 -0.0597 -0.5414 -0.5677
 9059TIP3    H148668   2.410   4.780  12.973  1.1386 -2.2438  1.1311
 9059TIP3    H248669   2.526   4.694  12.927  2.8616  0.7135 -0.2338
 9060TIP3   OH248670   4.072   6.762  13.920 -0.0702 -0.1563 -0.5362
 9060TIP3    H148671   4.149   6.801  13.878  0.6002 -1.2403 -0.3372
 9060TIP3    H248672   3.999   6.785  13.863  0.8421 -1.6702 -2.3434
 9061TIP3   OH248673   3.653   3.594   6.177  0.8107  0.1655  0.3512
 9061TIP3    H148674   3.566   3.590   6.138  0.6815 -0.4693  0.6927
 9061TIP3    H248675   3.656   3.678   6.222  0.4996  0.3337  0.0600
 9062TIP3   OH248676   2.387   4.119   5.675 -0.2205  0.6555  0.5466
 9062TIP3    H148677   2.425   4.169   5.747  0.6637  0.1449  0.4410
 9062TIP3    H248678   2.295   4.145   5.674 -0.0410  1.3414  1.2847
 9063TIP3   OH248679   2.036   4.167   4.417 -0.3042  0.4863 -0.3029
 9063TIP3    H148680   1.990   4.109   4.478 -0.8486  1.4652  0.2196
 9063TIP3    H248681   1.981   4.245   4.413 -0.9045 -0.0176 -2.9543
 9064TIP3   OH248682   6.671   2.703  12.846  0.2161  0.2371  0.5167
 9064TIP3    H148683   6.680   2.790  12.809  1.5608  0.0808  0.4547
 9064TIP3    H248684   6.733   2.700  12.919  1.5493 -1.2544 -0.6205
 9065TIP3   OH248685   2.862   6.330   5.942 -0.6189 -0.3012 -0.0867
 9065TIP3    H148686   2.850   6.279   5.862  2.9800  2.1990 -2.3803
 9065TIP3    H248687   2.942   6.296   5.981 -1.4071 -0.3220  1.5392
 9066TIP3   OH248688   1.511   0.848  12.567 -0.0950  0.2254  0.2829
 9066TIP3    H148689   1.600   0.843  12.532 -0.9565 -0.3486 -1.9511
 9066TIP3    H248690   1.456   0.810  12.498 -2.0640  0.5317  1.6346
 9067TIP3   OH248691   3.884   0.486  12.550 -0.4277 -0.0387 -0.6559
 9067TIP3    H148692   3.852   0.447  12.469 -2.5256  2.5404 -1.1585
 9067TIP3    H248693   3.877   0.417  12.615 -1.4859 -1.2826 -2.0630
 9068TIP3   OH248694   3.270   2.771   6.035 -0.4516  0.3933 -0.2224
 9068TIP3    H148695   3.360   2.787   6.006 -0.6122 -1.1160 -1.6276
 9068TIP3    H248696   3.276   2.764   6.130  1.0536 -0.5366 -0.3748
 9069TIP3   OH248697   1.090   0.370   3.467  0.0650 -0.4249 -0.0307
 9069TIP3    H148698   1.030   0.304   3.503 -1.2086  0.2917 -0.8019
 9069TIP3    H248699   1.088   0.442   3.530 -1.0118  0.2014 -0.7627
 9070TIP3   OH248700   0.060   3.392   0.956  0.4173 -0.0136 -0.2510
 9070TIP3    H148701   0.073   3.467   0.899  1.1520 -1.5046 -2.1003
 9070TIP3    H248702  -0.034   3.382   0.963  0.3249  0.3757 -0.9336
 9071TIP3   OH248703   4.259   2.066  12.717 -0.0714  0.2542  0.1708
 9071TIP3    H148704   4.164   2.071  12.712 -0.2186  0.7034  2.6522
 9071TIP3    H248705   4.290   2.095  12.631 -2.2125 -2.4879 -1.5998
 9072TIP3   OH248706   1.470   3.282   1.641 -0.2591 -0.0117 -0.3382
 9072TIP3    H148707   1.556   3.294   1.600  0.3513  2.3107  1.4895
 9072TIP3    H248708   1.421   3.359   1.616 -0.3771  0.7088  2.0097
 9073TIP3   OH248709   4.653   0.321   4.994 -0.4018  0.0600  0.4140
 9073TIP3    H148710   4.649   0.413   4.969  1.0106 -0.2681 -1.0916
 9073TIP3    H248711   4.733   0.313   5.045  1.3915 -0.9793 -2.4275
 9074TIP3   OH248712   3.763   0.633  14.828 -0.1976 -0.0399  0.0845
 9074TIP3    H148713   3.710   0.645  14.750  0.5089  0.3046 -0.3558
 9074TIP3    H248714   3.839   0.582  14.798  1.1057  1.8470  0.0786
 9075TIP3   OH248715   1.194   6.049   3.116 -0.1188  0.6642 -0.3209
 9075TIP3    H148716   1.279   6.032   3.157 -0.2289  1.7131  0.3529
 9075TIP3    H248717   1.213   6.110   3.045 -0.2141  0.3534 -0.6160
 9076TIP3   OH248718   6.569   4.984  14.772  0.3469  0.1484  0.2417
 9076TIP3    H148719   6.639   4.971  14.835  1.1991 -1.0662 -0.9339
 9076TIP3    H248720   6.583   5.073  14.738  1.3241 -0.0906  0.0110
 9077TIP3   OH248721   2.748   4.807  16.929 -0.7404 -0.1696  0.0096
 9077TIP3    H148722   2.793   4.889  16.909 -1.3127  0.1420 -0.0275
 9077TIP3    H248723   2.769   4.749  16.856 -1.7479  0.5235 -0.8491
 9078TIP3   OH248724   2.447   5.113   0.576 -0.2680  0.2833 -0.2940
 9078TIP3    H148725   2.478   5.127   0.486  0.1795  1.2308  0.0017
 9078TIP3    H248726   2.407   5.197   0.601 -2.6536 -0.7490 -0.4822
 9079TIP3   OH248727   2.374   3.632  12.003 -0.2787 -0.2206 -0.1958
 9079TIP3    H148728   2.373   3.549  12.051 -3.2874 -0.8552 -1.2179
 9079TIP3    H248729   2.446   3.682  12.041  0.8496 -2.8389  1.2300
 9080TIP3   OH248730   3.865   2.748   4.639 -0.0806 -0.2972  0.5379
 9080TIP3    H148731   3.781   2.787   4.664  0.1929  0.8056 -0.2467
 9080TIP3    H248732   3.854   2.723   4.548 -0.3781 -2.4386  1.1213
 9081TIP3   OH248733   0.761   2.806   2.819  1.0260 -0.5902  0.4855
 9081TIP3    H148734   0.680   2.807   2.870  0.3898 -1.9433 -0.4805
 9081TIP3    H248735   0.808   2.729   2.852  1.1443 -0.7898 -0.1524
 9082TIP3   OH248736   1.801   0.649  16.656 -0.3260  0.1109  0.0185
 9082TIP3    H148737   1.877   0.645  16.600  0.4338  0.6812  0.9859
 9082TIP3    H248738   1.769   0.559  16.661  1.1194 -0.3706  0.7367
 9083TIP3   OH248739   5.041   3.900  15.863  0.1360 -0.3207 -0.2605
 9083TIP3    H148740   5.106   3.936  15.924  0.3102  0.8191 -1.1132
 9083TIP3    H248741   5.091   3.876  15.785  0.0043 -2.3370  0.2408
 9084TIP3   OH248742   4.480   5.191  14.465  0.2918 -0.0224 -1.0424
 9084TIP3    H148743   4.511   5.101  14.472 -1.7572 -0.6589  0.5131
 9084TIP3    H248744   4.553   5.239  14.427  1.7650 -2.1569 -0.9886
 9085TIP3   OH248745   4.950   1.119   2.850 -0.3797 -0.3058  0.0699
 9085TIP3    H148746   4.973   1.195   2.904 -1.6724 -0.8365  1.3873
 9085TIP3    H248747   4.923   1.157   2.766  2.5976  0.4804 -0.6178
 9086TIP3   OH248748   0.157   0.871  16.383  0.2650 -0.6442 -0.2336
 9086TIP3    H148749   0.139   0.954  16.428  1.1545 -1.1380  1.0695
 9086TIP3    H248750   0.101   0.807  16.428  0.7911 -1.0494 -0.1564
 9087TIP3   OH248751   2.227   3.448  14.817  0.1247  0.1479  0.1372
 9087TIP3    H148752   2.309   3.493  14.795  1.2296 -1.4886  0.8577
 9087TIP3    H248753   2.165   3.480  14.752  1.3955  1.2263 -0.5746
 9088TIP3   OH248754   3.570   3.475  14.058  0.7091  0.1631 -0.0808
 9088TIP3    H148755   3.539   3.465  13.968 -0.8635  0.9823  0.3479
 9088TIP3    H248756   3.602   3.565  14.063 -1.3511  0.8857  0.7746
 9089TIP3   OH248757   4.537   6.469   0.392 -0.0484  0.1006 -0.5062
 9089TIP3    H148758   4.575   6.477   0.305  0.6075  3.0426 -0.0030
 9089TIP3    H248759   4.570   6.386   0.425  1.2510 -0.1233 -2.3013
 9090TIP3   OH248760   5.036   3.808   1.843 -0.4293 -0.1887 -0.1175
 9090TIP3    H148761   5.011   3.802   1.751 -0.4133 -0.8139 -0.0851
 9090TIP3    H248762   4.963   3.768   1.890 -1.5628  2.3165  0.3237
 9091TIP3   OH248763   5.178   6.258   1.011  0.4031 -0.2964  0.1755
 9091TIP3    H148764   5.140   6.340   0.978  1.8828  0.6691  0.7965
 9091TIP3    H248765   5.105   6.198   1.016 -0.6076  0.8150 -0.8752
 9092TIP3   OH248766   0.014   1.641   1.650  0.3689 -0.1012  0.1102
 9092TIP3    H148767   0.058   1.691   1.582 -1.7801  0.9832 -0.5490
 9092TIP3    H248768  -0.070   1.617   1.611  0.3313 -2.0707  1.3190
 9093TIP3   OH248769   4.299   5.756   5.192  0.6621  0.4428  0.1389
 9093TIP3    H148770   4.273   5.845   5.215  0.4580 -0.0612  1.9792
 9093TIP3    H248771   4.394   5.759   5.188  0.6458  0.7908  0.0301
 9094TIP3   OH248772   5.751   5.736  17.220 -0.4707 -0.4321  0.9542
 9094TIP3    H148773   5.817   5.685  17.174 -0.2421  0.0598  0.7326
 9094TIP3    H248774   5.796   5.770  17.298 -0.5454 -0.3392  0.9560
 9095TIP3   OH248775   5.760   3.556  16.165  0.0055  0.0488  0.4694
 9095TIP3    H148776   5.774   3.461  16.164  2.2586  0.3566  0.6571
 9095TIP3    H248777   5.742   3.576  16.257  0.7115 -0.0233  0.6207
 9096TIP3   OH248778   5.472   0.763   2.125 -0.0209 -0.2268  0.3360
 9096TIP3    H148779   5.449   0.763   2.218 -1.5933 -1.9382 -0.0242
 9096TIP3    H248780   5.472   0.856   2.100  0.4104  0.2461  2.0169
 9097TIP3   OH248781   3.332   3.490  15.329  0.0824 -0.1643  0.2341
 9097TIP3    H148782   3.304   3.409  15.287 -1.2431 -0.5500  1.8117
 9097TIP3    H248783   3.320   3.557  15.262 -0.8647 -0.9434 -0.3867
 9098TIP3   OH248784   4.240   1.469   0.311 -0.7733 -0.2195  0.5550
 9098TIP3    H148785   4.190   1.542   0.348 -0.0444  0.3073  0.5130
 9098TIP3    H248786   4.303   1.511   0.253 -0.8608 -0.9415 -0.0654
 9099TIP3   OH248787   6.680   6.615   5.503 -0.4601  0.4964  0.4852
 9099TIP3    H148788   6.684   6.709   5.520 -2.4032  0.5330  0.8688
 9099TIP3    H248789   6.732   6.603   5.424 -0.7560  2.0134  0.0408
 9100TIP3   OH248790   4.465   1.359  14.540 -0.1932 -0.2221  0.0821
 9100TIP3    H148791   4.550   1.401  14.549  0.4244 -1.2940 -0.6180
 9100TIP3    H248792   4.471   1.311  14.457 -0.4516 -2.6451  1.4442
 9101TIP3   OH248793   1.045   3.140  16.322  0.2317 -0.4054 -0.2277
 9101TIP3    H148794   0.999   3.159  16.404 -1.0573 -1.5552 -0.6654
 9101TIP3    H248795   1.001   3.194  16.257 -0.0828 -1.0193 -0.5268
 9102TIP3   OH248796   1.226   5.995   4.511  0.4434 -0.1844 -0.4252
 9102TIP3    H148797   1.314   5.978   4.478  0.7493  0.2926  0.1254
 9102TIP3    H248798   1.237   6.069   4.571 -0.1984 -0.6452  0.2709
 9103TIP3   OH248799   2.594   4.215   1.215  0.5312  0.2628  0.2868
 9103TIP3    H148800   2.525   4.152   1.237 -0.4460  0.9217 -0.8118
 9103TIP3    H248801   2.604   4.208   1.121  2.4653 -0.2981  0.5234
 9104TIP3   OH248802   4.249   1.541  10.626 -0.4347  0.1917  0.4371
 9104TIP3    H148803   4.228   1.615  10.683 -2.1108  2.7389 -3.2571
 9104TIP3    H248804   4.164   1.502  10.605  0.0227  0.0739 -1.2804
 9105TIP3   OH248805   2.201   4.862   2.462 -0.5180  0.1078  0.1895
 9105TIP3    H148806   2.118   4.864   2.415 -0.4597  0.3066  0.0952
 9105TIP3    H248807   2.232   4.772   2.453  0.2941  0.5529 -1.5302
 9106TIP3   OH248808   5.168   0.312   2.878  0.0820  0.4293 -0.8961
 9106TIP3    H148809   5.130   0.231   2.842  0.3363 -0.7954  1.5088
 9106TIP3    H248810   5.094   0.369   2.893 -0.4341 -0.5617  0.3474
 9107TIP3   OH248811   1.041   2.540  16.617  0.3057 -0.0514  0.1767
 9107TIP3    H148812   1.087   2.464  16.652 -0.1804 -0.0326  0.8738
 9107TIP3    H248813   1.101   2.613  16.631  0.8754 -0.3286 -0.7112
 9108TIP3   OH248814   1.161   4.113   4.246  0.0199  0.6424 -0.4153
 9108TIP3    H148815   1.135   4.125   4.337 -1.0142  2.4621 -0.9419
 9108TIP3    H248816   1.147   4.198   4.205  1.5477  0.1597 -2.0248
 9109TIP3   OH248817   6.319   4.484   0.583  0.1269 -0.1668 -0.0637
 9109TIP3    H148818   6.371   4.547   0.633 -1.0551  0.3985  0.4805
 9109TIP3    H248819   6.343   4.399   0.620 -0.2423  0.1917  1.0125
 9110TIP3   OH248820   2.907   2.886   4.934 -0.5332 -1.1314  0.2223
 9110TIP3    H148821   2.869   2.957   4.882 -0.8373 -1.1015  0.4805
 9110TIP3    H248822   3.002   2.896   4.923 -0.5588 -0.4501  0.5687
 9111TIP3   OH248823   3.310   0.546  11.313  0.2552  0.2968  0.1245
 9111TIP3    H148824   3.356   0.516  11.391 -0.5386 -0.1234  0.4415
 9111TIP3    H248825   3.323   0.641  11.312 -1.8839  0.6517  2.1953
 9112TIP3   OH248826   5.319   5.259  11.969  0.0896 -0.4540  0.0959
 9112TIP3    H148827   5.252   5.311  11.924 -0.9620 -0.3914  1.6994
 9112TIP3    H248828   5.399   5.311  11.961 -0.4682  0.3524 -0.2438
 9113TIP3   OH248829   2.654   1.824  17.056  0.0846  0.5227  0.7894
 9113TIP3    H148830   2.668   1.918  17.043 -1.7948  0.7179  0.0429
 9113TIP3    H248831   2.711   1.783  16.991  0.9875  1.1178  1.1770
 9114TIP3   OH248832   3.089   6.744   4.801  0.6429  0.2752  0.4415
 9114TIP3    H148833   3.044   6.673   4.846 -0.7524 -0.2905 -1.7352
 9114TIP3    H248834   3.131   6.702   4.726  0.1501  1.6317 -0.6323
 9115TIP3   OH248835   2.628   5.475   4.953  0.0311 -0.0047  0.0236
 9115TIP3    H148836   2.687   5.450   5.024  0.5862  1.8064  0.2257
 9115TIP3    H248837   2.654   5.564   4.930 -2.0011  0.4762 -0.5408
 9116TIP3   OH248838   5.175   5.193   3.150 -0.3861 -1.0114 -0.2005
 9116TIP3    H148839   5.248   5.142   3.186  1.4557  1.3564 -0.4238
 9116TIP3    H248840   5.159   5.260   3.216 -0.0090  0.6103 -1.7280
 9117TIP3   OH248841   5.483   3.074  17.090 -0.0112  0.2263  0.6659
 9117TIP3    H148842   5.575   3.055  17.102 -0.4116 -0.6556  2.5027
 9117TIP3    H248843   5.470   3.075  16.995  1.2990 -2.5150  0.4227
 9118TIP3   OH248844   2.902   3.423  11.369 -0.0045 -0.7606  0.2401
 9118TIP3    H148845   2.864   3.508  11.348  0.9970 -0.5421 -0.7218
 9118TIP3    H248846   2.836   3.380  11.423  0.1819  1.2954  2.2166
 9119TIP3   OH248847   0.742   1.421  13.015  0.3860  0.7908  0.6983
 9119TIP3    H148848   0.661   1.464  13.040  0.1645  0.2326  0.9532
 9119TIP3    H248849   0.808   1.456  13.075  0.6406  2.3660 -0.4883
 9120TIP3   OH248850   1.170   0.245   1.702  0.3351  0.6771  0.6848
 9120TIP3    H148851   1.093   0.190   1.710 -0.3652  1.5490 -0.0238
 9120TIP3    H248852   1.227   0.217   1.774  0.3233 -1.4687 -0.0943
 9121TIP3   OH248853   5.463   6.752  11.113 -0.0612  0.3793  0.3928
 9121TIP3    H148854   5.499   6.677  11.065  0.4963  0.0839  1.2563
 9121TIP3    H248855   5.534   6.815  11.116 -0.2296  0.5645  0.4763
 9122TIP3   OH248856   6.532   2.977   3.322 -0.1330 -0.3168  0.5167
 9122TIP3    H148857   6.489   3.021   3.249  1.4026 -0.8987 -0.7663
 9122TIP3    H248858   6.582   3.045   3.366  0.2686 -0.2960  0.0233
 9123TIP3   OH248859   2.728   5.508  11.434  0.0711  0.2004  0.6718
 9123TIP3    H148860   2.783   5.523  11.511 -0.6024  0.2217  1.1516
 9123TIP3    H248861   2.648   5.469  11.469 -0.4672  0.7382  0.0486
 9124TIP3   OH248862   2.229   5.989   4.230  0.0328  0.3163  0.1509
 9124TIP3    H148863   2.259   5.900   4.248  1.3825  0.4541 -1.3177
 9124TIP3    H248864   2.269   6.043   4.298  0.2803 -0.0074  0.2585
 9125TIP3   OH248865   1.898   4.154   1.153  0.6223 -0.4877  0.3312
 9125TIP3    H148866   1.840   4.083   1.127 -0.0831 -0.7249  2.4432
 9125TIP3    H248867   1.841   4.230   1.162  1.0118 -0.1844  0.2443
 9126TIP3   OH248868   5.323   4.485   5.650  0.2551 -0.2831  0.2405
 9126TIP3    H148869   5.346   4.556   5.709 -1.8151  1.1753 -0.6658
 9126TIP3    H248870   5.308   4.410   5.708  0.2686  0.5805  1.3833
 9127TIP3   OH248871   1.490   2.946   2.780 -0.2501 -0.3909  0.0603
 9127TIP3    H148872   1.456   2.951   2.690 -0.9727 -0.1858  0.3414
 9127TIP3    H248873   1.585   2.952   2.769 -0.3696  0.4447 -0.6389
 9128TIP3   OH248874   4.677   5.432  16.901 -0.2223 -0.2290 -0.2503
 9128TIP3    H148875   4.740   5.478  16.845 -0.8744  0.7298 -0.2141
 9128TIP3    H248876   4.612   5.397  16.840 -0.9917  0.9073 -0.1006
 9129TIP3   OH248877   6.692   1.516  15.740 -0.3363  0.1074 -0.1848
 9129TIP3    H148878   6.715   1.580  15.808 -2.0370 -0.9819  1.4691
 9129TIP3    H248879   6.617   1.556  15.695 -1.8498 -0.9808  1.3067
 9130TIP3   OH248880   6.604   5.124   3.824 -0.2778 -0.3003 -0.3447
 9130TIP3    H148881   6.509   5.134   3.814 -0.3541  0.3683  1.0153
 9130TIP3    H248882   6.618   5.029   3.819 -1.0773 -0.4429 -0.0256
 9131TIP3   OH248883   6.358   3.479   2.325  0.5530  0.5148  0.4471
 9131TIP3    H148884   6.310   3.478   2.242 -2.4605  0.9728  2.1236
 9131TIP3    H248885   6.407   3.561   2.324 -1.4894  1.7610  0.1903
 9132TIP3   OH248886   5.086   4.430  12.066  0.2061  0.2433 -0.5885
 9132TIP3    H148887   5.009   4.380  12.091 -0.9941  2.1750 -0.2963
 9132TIP3    H248888   5.069   4.458  11.976  0.2218  1.2639 -0.2901
 9133TIP3   OH248889   2.218   1.179   4.524  0.4652 -0.5207 -0.6482
 9133TIP3    H148890   2.273   1.236   4.578  2.0019 -1.2173 -1.4347
 9133TIP3    H248891   2.244   1.090   4.549 -1.0327 -0.8669 -0.3071
 9134TIP3   OH248892   3.596   1.147  12.415 -0.8788  0.0129  0.0239
 9134TIP3    H148893   3.661   1.081  12.389 -1.0825 -0.3665  0.4703
 9134TIP3    H248894   3.629   1.229  12.380 -1.3131 -0.5465 -1.7385
 9135TIP3   OH248895   1.430   4.280   0.748 -0.3268  0.1351 -0.0683
 9135TIP3    H148896   1.399   4.358   0.702 -1.2782  0.4751  1.1343
 9135TIP3    H248897   1.496   4.313   0.810 -1.7187  0.1805  1.4068
 9136TIP3   OH248898   2.826   1.560   5.073 -0.1838  0.2646 -0.6284
 9136TIP3    H148899   2.805   1.651   5.091 -2.9570 -0.6083  0.8785
 9136TIP3    H248900   2.754   1.530   5.018 -0.4452 -1.5789  0.6761
 9137TIP3   OH248901   4.735   5.702   6.405  0.5173  0.1127 -0.3049
 9137TIP3    H148902   4.702   5.687   6.494  0.4434  1.1122 -0.1543
 9137TIP3    H248903   4.737   5.797   6.396 -0.2130  0.0090 -1.6604
 9138TIP3   OH248904   0.418   3.464  12.257  0.2363 -0.3222  0.3729
 9138TIP3    H148905   0.487   3.398  12.253 -0.5946 -1.1647 -0.6351
 9138TIP3    H248906   0.461   3.543  12.289  1.7599 -0.6851 -0.7230
 9139TIP3   OH248907   1.835   1.074  11.978  0.3235  0.1724  0.1410
 9139TIP3    H148908   1.753   1.061  12.026  0.0486 -0.1237 -0.4103
 9139TIP3    H248909   1.851   1.168  11.984 -0.9407  0.4867 -1.1850
 9140TIP3   OH248910   0.154   1.789  11.141 -0.0974  0.0370  0.1442
 9140TIP3    H148911   0.238   1.757  11.107  0.2735  2.5404 -1.4147
 9140TIP3    H248912   0.097   1.712  11.140  1.2755 -0.9915 -1.7706
 9141TIP3   OH248913   4.085   4.786   1.797  0.4034 -0.0885 -0.5027
 9141TIP3    H148914   4.163   4.734   1.815  0.5019  0.4586  0.6795
 9141TIP3    H248915   4.080   4.848   1.869  1.7882  3.3655 -3.2441
 9142TIP3   OH248916   4.539   6.704   5.384  0.2743  0.4506  0.4178
 9142TIP3    H148917   4.550   6.761   5.461  0.5813 -0.9857  1.4678
 9142TIP3    H248918   4.619   6.718   5.333 -0.4862  2.3483 -0.2926
 9143TIP3   OH248919   1.596   5.865   5.055  0.3213 -0.5660  0.1919
 9143TIP3    H148920   1.657   5.807   5.008  0.0584 -0.7620  0.0893
 9143TIP3    H248921   1.591   5.943   5.001  0.9130 -0.3236  0.4854
 9144TIP3   OH248922   3.064   6.314   2.138 -0.3167  0.4970  0.1530
 9144TIP3    H148923   3.095   6.287   2.051 -0.3322 -1.4394  0.7266
 9144TIP3    H248924   3.124   6.384   2.164  2.0387 -1.4673  0.1650
 9145TIP3   OH248925   1.764   0.182  16.340 -0.0917 -0.2430  0.3108
 9145TIP3    H148926   1.739   0.235  16.264  2.4171 -0.0314 -0.4104
 9145TIP3    H248927   1.839   0.131  16.310  1.3839  0.3541  2.8644
 9146TIP3   OH248928   6.123   0.972   1.290 -0.4996 -0.3437  0.9003
 9146TIP3    H148929   6.162   0.921   1.361  0.7720  0.9611  1.1458
 9146TIP3    H248930   6.067   1.036   1.333  0.3391  0.5048  0.7209
 9147TIP3   OH248931   4.748   0.406  15.553  0.1603 -0.1727  0.2400
 9147TIP3    H148932   4.665   0.411  15.506 -0.1335 -0.6269  0.7076
 9147TIP3    H248933   4.723   0.410  15.645  0.8938  2.9756  0.3358
 9148TIP3   OH248934   4.863   4.586  15.491  0.0513  0.6916  0.2938
 9148TIP3    H148935   4.792   4.590  15.555  0.6606  1.9420  0.9216
 9148TIP3    H248936   4.919   4.661  15.513  1.0029  0.3311 -0.8430
 9149TIP3   OH248937   4.559   1.660   1.843  0.2704  0.3249 -0.0476
 9149TIP3    H148938   4.536   1.574   1.811 -0.8460  0.8629 -0.6985
 9149TIP3    H248939   4.501   1.676   1.918 -1.0464  1.4047 -1.2796
 9150TIP3   OH248940   0.920   6.287   2.041  0.5060  0.0369 -0.1482
 9150TIP3    H148941   0.856   6.349   2.076  0.8611  0.6693 -0.6130
 9150TIP3    H248942   0.964   6.335   1.970  0.4983 -0.8708 -0.7840
 9151TIP3   OH248943   3.551   3.545   3.198 -0.2472  0.1272 -0.4436
 9151TIP3    H148944   3.481   3.607   3.177  0.1552  0.5267 -0.6150
 9151TIP3    H248945   3.628   3.600   3.213  0.1115 -0.3296 -0.5886
 9152TIP3   OH248946   2.903   4.243   6.319 -0.0681  0.2895  0.5019
 9152TIP3    H148947   2.894   4.153   6.287 -0.4402  0.5265 -0.0867
 9152TIP3    H248948   2.968   4.238   6.388 -0.3573 -0.4952  0.7233
 9153TIP3   OH248949   3.900   1.425  16.497  0.1208  0.1722 -0.1002
 9153TIP3    H148950   3.815   1.387  16.521  0.0893 -0.5333 -1.2703
 9153TIP3    H248951   3.899   1.513  16.535 -1.4640  0.4620 -0.7679
 9154TIP3   OH248952   4.453   0.308  16.459  0.4731 -0.6573 -0.0018
 9154TIP3    H148953   4.425   0.261  16.380 -0.2260  1.5113 -1.1094
 9154TIP3    H248954   4.479   0.240  16.520  0.0991 -2.4341 -1.7716
 9155TIP3   OH248955   2.171   5.286   1.202 -0.2510  0.5511 -0.6281
 9155TIP3    H148956   2.086   5.243   1.188  0.1878 -0.3370 -0.6293
 9155TIP3    H248957   2.161   5.330   1.287  0.0316 -1.4481  0.4664
 9156TIP3   OH248958   5.541   6.270   1.180  0.3304  0.2663  0.0577
 9156TIP3    H148959   5.569   6.319   1.103  0.3290 -1.7640 -1.2744
 9156TIP3    H248960   5.491   6.197   1.144 -0.5406 -0.1515  2.0569
 9157TIP3   OH248961   2.956   0.814  15.430  0.0197  0.1179 -0.2400
 9157TIP3    H148962   2.868   0.851  15.435  0.7069  1.5789  1.2481
 9157TIP3    H248963   2.950   0.730  15.476 -0.4009  0.5840  0.5462
 9158TIP3   OH248964   1.500   2.823   5.179  1.1749  0.0498  0.5880
 9158TIP3    H148965   1.574   2.784   5.132  1.8902  0.0872  1.6717
 9158TIP3    H248966   1.506   2.787   5.267  2.6491  3.6008  2.0321
 9159TIP3   OH248967   3.726   1.914  15.003  1.2227 -0.4293  0.1148
 9159TIP3    H148968   3.770   1.899  14.919  0.3241 -0.3351 -0.3833
 9159TIP3    H248969   3.701   1.826  15.032  0.3354 -0.3467 -0.3835
 9160TIP3   OH248970   1.851   0.543   2.297 -0.4065  0.6187 -0.4018
 9160TIP3    H148971   1.785   0.532   2.228  2.1460 -0.0666 -2.8092
 9160TIP3    H248972   1.886   0.455   2.311  1.0508  1.2094 -0.2310
 9161TIP3   OH248973   1.246   4.095  11.610  0.1470 -0.1503  0.2678
 9161TIP3    H148974   1.278   4.183  11.631 -0.0828  0.1952 -0.7872
 9161TIP3    H248975   1.315   4.036  11.641  0.0647  0.3612  1.4616
 9162TIP3   OH248976   3.209   4.021  13.956  0.0604 -0.0178 -0.6126
 9162TIP3    H148977   3.159   3.943  13.980 -0.7636  0.3425 -1.1628
 9162TIP3    H248978   3.194   4.082  14.028 -0.3248  0.1064 -0.7984
 9163TIP3   OH248979   4.190   1.242  11.470 -0.1198  0.2112  0.1094
 9163TIP3    H148980   4.142   1.324  11.461 -0.9671 -0.0482  2.0479
 9163TIP3    H248981   4.280   1.269  11.489 -0.3747  0.6899  0.6366
 9164TIP3   OH248982   2.609   0.448   5.147  0.3371 -0.6149 -0.2021
 9164TIP3    H148983   2.570   0.533   5.166 -0.6316 -1.5258  1.9739
 9164TIP3    H248984   2.566   0.419   5.066  0.8696  1.0500 -1.1099
 9165TIP3   OH248985   4.818   0.761   0.024  0.1219  0.5077  0.3393
 9165TIP3    H148986   4.867   0.775   0.105 -0.0408  2.2024  0.1539
 9165TIP3    H248987   4.730   0.794   0.043 -0.2535 -0.1873 -0.1517
 9166TIP3   OH248988   3.615   5.399  15.150 -0.5222  0.1094  0.6215
 9166TIP3    H148989   3.519   5.389  15.147 -0.6291  1.2206  0.0761
 9166TIP3    H248990   3.644   5.377  15.062 -0.6054  2.8455 -0.1313
 9167TIP3   OH248991   4.823   1.633   0.227 -0.7882 -0.1303 -0.1164
 9167TIP3    H148992   4.918   1.646   0.239 -1.0265  0.0890  1.6080
 9167TIP3    H248993   4.784   1.663   0.309 -2.3317 -0.6626 -0.6420
 9168TIP3   OH248994   5.446   3.054  12.394  0.1620  0.2785 -0.3328
 9168TIP3    H148995   5.542   3.063  12.396  0.1318  0.8512 -0.9722
 9168TIP3    H248996   5.431   2.962  12.373  0.6138  0.6646 -2.5646
 9169TIP3   OH248997   3.007   4.764   1.856 -0.6497  0.6122 -0.1130
 9169TIP3    H148998   3.052   4.726   1.931 -0.8752 -0.4894 -0.5128
 9169TIP3    H248999   3.067   4.830   1.822  0.3288 -0.3058 -0.1870
 9170TIP3   OH249000   3.281   5.742   2.544 -0.2658  0.2739  0.2642
 9170TIP3    H149001   3.305   5.801   2.616 -0.4102 -0.2196  0.7239
 9170TIP3    H249002   3.214   5.789   2.495  0.5799  1.0483 -0.1653
 9171TIP3   OH249003   0.801   3.246  14.936 -0.5794  0.4212  0.0628
 9171TIP3    H149004   0.848   3.326  14.962  3.4647 -1.9698  0.6517
 9171TIP3    H249005   0.734   3.234  15.002 -0.0208  2.3694  1.0091
 9172TIP3   OH249006   2.979   4.720  15.407  0.4976 -0.3209 -0.4615
 9172TIP3    H149007   3.058   4.748  15.361 -0.2144  0.8121 -1.0129
 9172TIP3    H249008   2.917   4.791  15.394 -0.6208 -1.1980 -0.0226
 9173TIP3   OH249009   3.439   2.202   5.403  0.0642 -0.3183 -0.0809
 9173TIP3    H149010   3.526   2.229   5.434 -0.5154  0.5859  0.7884
 9173TIP3    H249011   3.407   2.278   5.354 -0.7022 -0.2162  0.5700
 9174TIP3   OH249012   5.818   0.469   5.924 -1.2185 -0.6006  0.2253
 9174TIP3    H149013   5.829   0.530   5.997 -2.3881 -1.4570  1.1428
 9174TIP3    H249014   5.879   0.398   5.942  0.0403  0.2025 -0.7691
 9175TIP3   OH249015   5.028   0.951  12.481  0.3592 -0.3544  1.0820
 9175TIP3    H149016   5.012   1.042  12.506 -1.1494 -0.1779 -0.3942
 9175TIP3    H249017   5.121   0.947  12.460  0.7914  0.4180  2.8408
 9176TIP3   OH249018   0.005   2.790   3.310  0.5274 -0.5857 -0.1406
 9176TIP3    H149019  -0.010   2.735   3.387 -0.4245  1.8318  1.4791
 9176TIP3    H249020   0.060   2.862   3.343 -0.2165  0.6958 -1.6257
 9177TIP3   OH249021   5.526   1.502   2.891 -0.0802  0.1920 -0.1216
 9177TIP3    H149022   5.586   1.472   2.960 -0.3883  1.8333  0.8757
 9177TIP3    H249023   5.439   1.478   2.923 -0.1622  0.2108 -0.3342
 9178TIP3   OH249024   3.495   1.361  14.147 -0.2730  0.1472 -0.3318
 9178TIP3    H149025   3.582   1.390  14.176 -0.6971  0.6412  0.4526
 9178TIP3    H249026   3.441   1.440  14.151 -0.6216 -0.0242 -1.3881
 9179TIP3   OH249027   5.742   5.631   2.545  0.1459  0.1870  0.0502
 9179TIP3    H149028   5.773   5.616   2.634 -2.2012 -0.9256  0.7129
 9179TIP3    H249029   5.671   5.694   2.554 -0.4159 -0.2794 -0.9588
 9180TIP3   OH249030   0.138   1.077   4.848  0.0854  0.7198  0.7814
 9180TIP3    H149031   0.186   1.152   4.814  1.1944 -0.8109 -1.1414
 9180TIP3    H249032   0.200   1.004   4.841 -1.8543 -0.8938  0.1458
 9181TIP3   OH249033   4.305   4.996   4.754  0.6912  0.0005  0.0927
 9181TIP3    H149034   4.247   5.021   4.826 -1.1557 -0.8055 -1.0719
 9181TIP3    H249035   4.377   5.059   4.759 -1.2261  2.2813  0.4069
 9182TIP3   OH249036   3.314   0.275  11.913 -0.2086  0.7318 -0.1029
 9182TIP3    H149037   3.335   0.361  11.877  0.7385  0.8750  0.7767
 9182TIP3    H249038   3.397   0.241  11.945 -0.8199  0.0758  0.8088
 9183TIP3   OH249039   6.163   5.785  10.914 -0.4325  0.3188  0.1556
 9183TIP3    H149040   6.235   5.763  10.974 -0.3916  0.4555  0.1573
 9183TIP3    H249041   6.187   5.870  10.877  0.2378 -0.4307 -1.1455
 9184TIP3   OH249042   1.151   3.028   4.195 -0.0370 -0.1357 -0.2500
 9184TIP3    H149043   1.207   2.981   4.257  0.7914 -2.2039 -2.5054
 9184TIP3    H249044   1.062   3.000   4.217  0.4049 -2.3496 -1.1953
 9185TIP3   OH249045   4.365   5.221  14.734 -0.3707 -0.2125 -1.0079
 9185TIP3    H149046   4.399   5.229  14.645 -0.3797 -2.4303 -1.2236
 9185TIP3    H249047   4.386   5.132  14.760  2.2537  1.3151  2.3469
 9186TIP3   OH249048   1.305   0.931  11.921 -0.3220 -0.2472 -0.1067
 9186TIP3    H149049   1.308   0.910  11.828  0.7387  1.6639 -0.5240
 9186TIP3    H249050   1.392   0.905  11.954  0.1684  1.2872 -0.1566
 9187TIP3   OH249051   0.171   4.511   3.321  0.2190 -0.1823 -0.0384
 9187TIP3    H149052   0.088   4.470   3.346  0.8038 -0.8798  0.7803
 9187TIP3    H249053   0.191   4.474   3.235  0.5905 -1.3975  0.5615
 9188TIP3   OH249054   6.224   3.537   1.355  0.2466 -0.0393 -0.5458
 9188TIP3    H149055   6.146   3.587   1.328 -0.1246 -0.0361  0.5127
 9188TIP3    H249056   6.192   3.449   1.372  0.7030 -0.3596 -1.3063
 9189TIP3   OH249057   4.644   5.360  14.999  0.1833 -0.0745 -0.0660
 9189TIP3    H149058   4.551   5.345  15.015  0.3275  0.4070  1.2603
 9189TIP3    H249059   4.646   5.415  14.920 -0.5963 -1.0320 -0.7706
 9190TIP3   OH249060   2.170   6.293  13.271 -0.7861  0.0855 -0.2101
 9190TIP3    H149061   2.201   6.227  13.333  0.8806  1.2223  0.2247
 9190TIP3    H249062   2.184   6.255  13.185 -0.9940 -0.6164  0.0687
 9191TIP3   OH249063   4.967   4.585   2.642 -0.6253 -0.7736  0.2861
 9191TIP3    H149064   5.048   4.622   2.676 -0.7548 -0.4931  0.2935
 9191TIP3    H249065   4.955   4.626   2.557 -1.0300 -0.4188  0.5100
 9192TIP3   OH249066   2.538   1.505   2.467  0.1290 -0.3759  0.6019
 9192TIP3    H149067   2.517   1.533   2.378  1.0901 -2.0149 -0.1592
 9192TIP3    H249068   2.632   1.491   2.466  0.3631  0.9023  2.2779
 9193TIP3   OH249069   5.337   1.255  16.833 -0.2210  0.6602 -0.0417
 9193TIP3    H149070   5.424   1.215  16.844  0.1072  1.1653 -0.7591
 9193TIP3    H249071   5.355   1.343  16.801 -1.0758 -0.4949 -4.0125
 9194TIP3   OH249072   5.239   2.919  12.052  0.1123 -0.2732  0.0443
 9194TIP3    H149073   5.317   2.865  12.048 -1.0330 -1.9740  0.4021
 9194TIP3    H249074   5.214   2.919  12.144 -0.3169  0.2647 -0.0656
 9195TIP3   OH249075   2.664   1.201  14.400 -0.4134 -0.0204 -0.3332
 9195TIP3    H149076   2.663   1.251  14.319 -0.7693 -0.5886 -0.6782
 9195TIP3    H249077   2.577   1.218  14.439 -0.5114 -0.3291 -0.4221
 9196TIP3   OH249078   2.178   1.582  13.995  0.0287 -0.0411 -0.0635
 9196TIP3    H149079   2.145   1.615  13.911 -1.0229 -0.3074  0.2306
 9196TIP3    H249080   2.120   1.509  14.016  0.8004 -0.4964  0.4989
 9197TIP3   OH249081   1.640   1.185   1.615 -0.2722 -0.3334  0.3015
 9197TIP3    H149082   1.551   1.216   1.628 -0.8821 -2.0943  0.3304
 9197TIP3    H249083   1.631   1.093   1.591  1.5888 -0.8660  1.5452
 9198TIP3   OH249084   4.815   0.100  16.287 -0.3864  0.5311  0.3725
 9198TIP3    H149085   4.761   0.068  16.358 -0.4359  0.9643  0.5357
 9198TIP3    H249086   4.876   0.162  16.329  0.0580  0.2494  0.1516
 9199TIP3   OH249087   2.604   6.273   4.651  0.3273  0.0225  0.6216
 9199TIP3    H149088   2.660   6.341   4.690  0.2448  0.1292  0.5518
 9199TIP3    H249089   2.522   6.277   4.700 -0.8749  2.1504 -1.4748
 9200TIP3   OH249090   5.528   2.178   0.198  0.3561  0.1868  0.0815
 9200TIP3    H149091   5.596   2.238   0.229 -2.3949  2.8823  1.1863
 9200TIP3    H249092   5.467   2.234   0.150 -0.7717 -2.2723 -1.4408
 9201TIP3   OH249093   5.897   0.282   6.120  0.4089  0.1235  0.1571
 9201TIP3    H149094   5.931   0.205   6.073  0.6316 -0.9841  2.0786
 9201TIP3    H249095   5.802   0.271   6.118  0.5147 -1.3442  2.2711
 9202TIP3   OH249096   6.575   5.688   5.925  0.3716 -0.0365  0.4456
 9202TIP3    H149097   6.637   5.761   5.922  1.1023 -0.6384  0.6411
 9202TIP3    H249098   6.525   5.695   5.844 -1.7040  2.4988  1.8506
 9203TIP3   OH249099   3.295   4.555  11.586  0.2882  1.0117 -0.5261
 9203TIP3    H149100   3.272   4.595  11.670 -0.3035 -2.0273  0.8345
 9203TIP3    H249101   3.378   4.511  11.603 -0.2848 -0.3692 -1.2550
 9204TIP3   OH249102   6.055   2.330  15.254 -0.0561 -0.1797 -0.5156
 9204TIP3    H149103   5.960   2.324  15.247  0.0656 -0.2892 -2.5251
 9204TIP3    H249104   6.073   2.424  15.252 -0.1301 -0.1451  0.2206
 9205TIP3   OH249105   2.809   1.215   0.206  0.6967 -0.0209 -0.3501
 9205TIP3    H149106   2.893   1.170   0.216  0.5617 -0.4764 -1.2090
 9205TIP3    H249107   2.744   1.144   0.201  0.3518  0.3007 -0.4924
 9206TIP3   OH249108   5.207   5.357   2.486 -0.3885  0.0093  0.3737
 9206TIP3    H149109   5.150   5.308   2.425  3.2016 -2.6001 -1.0344
 9206TIP3    H249110   5.276   5.393   2.430 -0.2077  2.6066  2.1657
 9207TIP3   OH249111   0.120   4.386  12.275  0.3536  0.4436  0.2807
 9207TIP3    H149112   0.146   4.357  12.362 -0.3954 -2.4857 -0.4251
 9207TIP3    H249113   0.138   4.480  12.275  3.1336 -0.0024  2.5827
 9208TIP3   OH249114   0.695   1.107  15.409 -0.2266 -0.0425  0.1233
 9208TIP3    H149115   0.687   1.067  15.496 -1.8614  0.4943  0.2388
 9208TIP3    H249116   0.610   1.148  15.394  0.6423  1.3792 -0.9906
 9209TIP3   OH249117   2.735   0.908  14.641 -0.4260 -0.0132  0.4484
 9209TIP3    H149118   2.715   0.904  14.548  0.3396  0.8238  0.2416
 9209TIP3    H249119   2.712   0.997  14.668 -1.3972 -0.4909  1.2421
 9210TIP3   OH249120   4.912   2.834   1.596  0.0799 -0.1746  0.1627
 9210TIP3    H149121   4.921   2.748   1.635  0.9223 -1.0897 -1.9716
 9210TIP3    H249122   4.824   2.836   1.559  0.7156 -0.8685 -1.4515
 9211TIP3   OH249123   0.558   1.900   3.674 -1.0048  0.4314  0.5108
 9211TIP3    H149124   0.511   1.959   3.732  0.9547 -0.1764  2.7992
 9211TIP3    H249125   0.556   1.815   3.719  1.5881  0.2148  0.3248
 9212TIP3   OH249126   1.103   3.723   0.627 -0.0179 -0.0145 -0.0153
 9212TIP3    H149127   1.152   3.746   0.707  0.5414  0.6282 -0.5378
 9212TIP3    H249128   1.016   3.699   0.659  0.7528 -1.6102  0.9719
 9213TIP3   OH249129   3.412   3.557   6.046  0.5715  0.6678  0.3196
 9213TIP3    H149130   3.429   3.538   5.954 -0.0579 -0.4024  0.4246
 9213TIP3    H249131   3.352   3.488   6.074  0.8596  0.9207  1.5598
 9214TIP3   OH249132   4.770   4.469   1.464 -0.9999 -0.3319 -0.1592
 9214TIP3    H149133   4.759   4.437   1.374 -1.3016 -2.1406  0.5027
 9214TIP3    H249134   4.831   4.407   1.504 -1.1492  0.2570  0.9975
 9215TIP3   OH249135   2.699   0.376   3.949  0.3683 -0.4901  0.3113
 9215TIP3    H149136   2.763   0.445   3.937 -1.5137  1.1991 -0.1889
 9215TIP3    H249137   2.633   0.391   3.881 -0.7510 -1.9587  1.0369
 9216TIP3   OH249138   4.046   2.440  17.207  0.1791  0.5006 -0.2301
 9216TIP3    H149139   3.972   2.428  17.266 -0.6297  0.2090 -1.2962
 9216TIP3    H249140   4.023   2.391  17.128  1.3411  0.7170 -0.7209
 9217TIP3   OH249141   4.575   5.011   3.637  0.3976 -0.1500  0.2537
 9217TIP3    H149142   4.546   4.936   3.585 -1.6200  0.7013  0.0920
 9217TIP3    H249143   4.513   5.015   3.710 -0.5730  2.3369 -0.6376
 9218TIP3   OH249144   5.443   5.209  13.535 -0.9308 -0.4228 -0.6476
 9218TIP3    H149145   5.418   5.229  13.445  1.0815 -1.4747 -1.4893
 9218TIP3    H249146   5.428   5.115  13.544  2.5516 -1.0941 -1.1989
 9219TIP3   OH249147   3.796   1.847   3.565 -0.4196  0.2032 -0.2147
 9219TIP3    H149148   3.856   1.805   3.626  0.3961  0.4044 -0.8704
 9219TIP3    H249149   3.735   1.894   3.621 -0.6877 -0.9673  0.4899
 9220TIP3   OH249150   3.694   1.938   4.203 -0.4015  0.0623  0.3666
 9220TIP3    H149151   3.659   2.014   4.157  0.8319 -0.7309 -1.9638
 9220TIP3    H249152   3.753   1.975   4.269 -0.5175  1.1418 -0.1295
 9221TIP3   OH249153   6.680   4.016   1.773 -0.6254 -0.2270 -0.2508
 9221TIP3    H149154   6.744   4.010   1.843  0.4024 -0.4713 -1.2003
 9221TIP3    H249155   6.604   4.058   1.813  0.4175  0.8097  0.6757
 9222TIP3   OH249156   2.457   4.469   5.435 -0.3908  0.1811  0.4154
 9222TIP3    H149157   2.509   4.512   5.368 -0.9894 -1.0279 -0.8437
 9222TIP3    H249158   2.520   4.413   5.482 -0.3692 -0.5912 -0.5205
 9223TIP3   OH249159   0.179   4.511   2.139  0.3020  0.2859  0.0899
 9223TIP3    H149160   0.238   4.451   2.185  1.4518 -0.3344 -2.1702
 9223TIP3    H249161   0.216   4.598   2.154  0.0005  0.2275  1.2934
 9224TIP3   OH249162   3.733   5.293  12.207  0.1413 -0.5389  0.1169
 9224TIP3    H149163   3.686   5.351  12.147 -1.0684 -1.7421 -0.1099
 9224TIP3    H249164   3.803   5.255  12.153  1.6087  1.4607  0.5239
 9225TIP3   OH249165   1.531   1.778  16.387  0.4672  0.0569  0.1058
 9225TIP3    H149166   1.550   1.709  16.451  0.5876 -1.0490 -1.0772
 9225TIP3    H249167   1.476   1.734  16.322 -0.5906  1.4654  0.0475
 9226TIP3   OH249168   0.587   3.212   5.488 -0.2350 -0.1058  0.5148
 9226TIP3    H149169   0.558   3.301   5.506 -0.9156 -0.4622  1.2148
 9226TIP3    H249170   0.655   3.196   5.554 -1.9340 -1.0090  2.1161
 9227TIP3   OH249171   0.854   1.585  15.795 -0.4544 -0.0506 -0.6888
 9227TIP3    H149172   0.868   1.494  15.769  0.6599  0.0315 -0.4041
 9227TIP3    H249173   0.939   1.613  15.831 -0.8762  1.0031 -0.5000
 9228TIP3   OH249174   6.121   0.997   6.781 -0.1860  0.5277  0.9389
 9228TIP3    H149175   6.048   0.941   6.807 -1.2710  1.6922  0.5065
 9228TIP3    H249176   6.128   1.062   6.851 -0.9560  1.6776 -0.0198
 9229TIP3   OH249177   1.418   0.721   5.669  0.2733 -0.4453  0.0775
 9229TIP3    H149178   1.447   0.777   5.741  1.0094 -2.0980  1.0774
 9229TIP3    H249179   1.494   0.668   5.646  0.2047  0.4228 -2.2898
 9230TIP3   OH249180   0.220   6.063   5.827 -0.3332  0.2649  0.0709
 9230TIP3    H149181   0.166   6.142   5.827 -0.3034  0.2888  0.3769
 9230TIP3    H249182   0.195   6.018   5.908  1.9031  1.5233  1.5069
 9231TIP3   OH249183   4.180   4.886  11.236  0.2251  0.4550 -0.0465
 9231TIP3    H149184   4.216   4.966  11.273  1.4099 -0.7653  1.4765
 9231TIP3    H249185   4.235   4.867  11.160  1.3157 -0.0906  0.8693
 9232TIP3   OH249186   2.820   4.834   1.464 -0.2213 -0.0670  0.5253
 9232TIP3    H149187   2.851   4.749   1.493 -0.6213 -0.9914 -1.6133
 9232TIP3    H249188   2.812   4.825   1.369  1.0926  2.8062  0.0916
 9233TIP3   OH249189   2.545   2.469  15.804  0.1500  0.5962  0.2117
 9233TIP3    H149190   2.585   2.486  15.719  0.8491 -2.8032 -0.2003
 9233TIP3    H249191   2.452   2.484  15.791  0.4104  1.4359 -0.7522
 9234TIP3   OH249192   2.612   2.272   0.974  0.1920  0.0794  0.0476
 9234TIP3    H149193   2.546   2.226   0.924  1.7085 -0.4606 -1.4924
 9234TIP3    H249194   2.594   2.249   1.065 -0.5622 -1.5647 -0.5113
 9235TIP3   OH249195   1.994   2.246   3.686 -0.1657  0.2637 -0.2722
 9235TIP3    H149196   1.913   2.254   3.635 -1.6897  0.2871  2.0356
 9235TIP3    H249197   2.023   2.336   3.700  1.0133  0.2057 -2.2047
 9236TIP3   OH249198   3.681   3.417   2.991  0.1274 -0.0499 -0.2709
 9236TIP3    H149199   3.598   3.392   2.950  0.0463  0.8496 -0.6945
 9236TIP3    H249200   3.660   3.431   3.083  0.1391 -1.3305 -0.0754
 9237TIP3   OH249201   2.878   0.795   3.210 -0.5871 -0.1161  0.3803
 9237TIP3    H149202   2.853   0.757   3.125  3.1040  2.1345 -1.8541
 9237TIP3    H249203   2.796   0.828   3.246 -1.9228  1.0443 -3.4672
 9238TIP3   OH249204   2.431   3.104  14.300 -0.0116 -0.5493 -0.2647
 9238TIP3    H149205   2.377   3.056  14.363  0.1225 -0.1772  0.1354
 9238TIP3    H249206   2.479   3.168  14.353 -0.4368  0.2541 -0.8388
 9239TIP3   OH249207   0.392   1.454   0.219  0.2703 -0.8298 -0.0469
 9239TIP3    H149208   0.329   1.434   0.288 -0.3993 -1.9080 -0.9644
 9239TIP3    H249209   0.358   1.532   0.177  2.1739  1.5690  2.6588
 9240TIP3   OH249210   5.882   5.948   2.055 -0.1225  0.2369 -0.5850
 9240TIP3    H149211   5.811   6.006   2.081  2.2843  3.1995 -0.2473
 9240TIP3    H249212   5.887   5.883   2.125 -3.2113 -0.7682 -1.2230
 9241TIP3   OH249213   2.656   3.375   0.813  0.0526  0.3059 -0.5343
 9241TIP3    H149214   2.653   3.426   0.894  0.0927  1.4560 -1.2359
 9241TIP3    H249215   2.573   3.395   0.769  1.0836  1.6524 -1.9173
 9242TIP3   OH249216   5.066   4.395  15.422 -0.1208 -0.5808  0.8137
 9242TIP3    H149217   5.002   4.465  15.434  1.1137  0.5293  1.1199
 9242TIP3    H249218   5.140   4.438  15.379 -0.1845 -2.1675 -0.9584
 9243TIP3   OH249219   6.074   0.663   6.020  0.1490 -0.0021  0.0966
 9243TIP3    H149220   6.165   0.675   6.046  0.8243 -1.0172 -1.7126
 9243TIP3    H249221   6.076   0.664   5.924 -1.3883 -2.4141 -0.0032
 9244TIP3   OH249222   4.855   6.345  17.231  0.1400  0.3858  0.0606
 9244TIP3    H149223   4.858   6.374  17.322 -0.5571  1.0798 -0.1290
 9244TIP3    H249224   4.890   6.419  17.182 -1.8259  1.0015 -0.4468
 9245TIP3   OH249225   5.631   4.908  14.837 -0.1548 -0.0660  0.0187
 9245TIP3    H149226   5.660   4.999  14.831  0.9049 -0.5057 -1.9367
 9245TIP3    H249227   5.567   4.899  14.766  0.2579 -1.0393 -0.2310
 9246TIP3   OH249228   0.663   0.350  12.026  0.1248  0.0926 -0.6005
 9246TIP3    H149229   0.734   0.408  11.996  0.6176 -0.8364 -1.2942
 9246TIP3    H249230   0.663   0.279  11.961 -0.6217 -0.5499  0.1032
 9247TIP3   OH249231   6.446   3.047  11.671  0.0408 -0.4104 -0.1320
 9247TIP3    H149232   6.439   3.057  11.576 -0.7514 -2.3927 -0.2954
 9247TIP3    H249233   6.355   3.044  11.702  0.2797  1.8740  0.8909
 9248TIP3   OH249234   1.547   4.833   2.369  0.3301  0.2742  0.2895
 9248TIP3    H149235   1.632   4.788   2.364  0.3435  0.1257  1.6351
 9248TIP3    H249236   1.539   4.859   2.460 -0.7955  0.8525  0.0362
 9249TIP3   OH249237   4.049   2.722   3.881  0.9711 -0.3279  0.4225
 9249TIP3    H149238   3.992   2.795   3.857 -0.3111 -1.4137  0.1090
 9249TIP3    H249239   4.137   2.759   3.879  0.3133  1.2781  0.5376
 9250TIP3   OH249240   0.262   5.797  16.895  0.1607  0.3489 -0.0776
 9250TIP3    H149241   0.274   5.704  16.875  1.3961  0.3013  0.8386
 9250TIP3    H249242   0.238   5.799  16.987  1.0097  0.9767  0.1449
 9251TIP3   OH249243   3.866   5.508  15.052 -0.0995 -0.1843 -0.1073
 9251TIP3    H149244   3.867   5.432  14.994  0.5221 -0.8100  0.7068
 9251TIP3    H249245   3.785   5.500  15.102 -0.6791  0.4024 -0.9516
 9252TIP3   OH249246   4.579   1.214  13.013  0.3952  0.0904  0.1287
 9252TIP3    H149247   4.507   1.277  13.003 -0.7525 -1.2030  0.1103
 9252TIP3    H249248   4.537   1.128  13.005  1.9514 -0.6834  0.0939
 9253TIP3   OH249249   3.783   5.699   1.108  0.3249 -0.2796 -0.3821
 9253TIP3    H149250   3.787   5.691   1.013  0.1211  1.4156 -0.5489
 9253TIP3    H249251   3.713   5.762   1.124  0.1172 -0.8191  0.9090
 9254TIP3   OH249252   0.357   5.739  13.752 -0.4993  0.2141  0.0242
 9254TIP3    H149253   0.363   5.662  13.809  1.6039 -0.5156 -1.1400
 9254TIP3    H249254   0.320   5.807  13.809  1.0821 -0.6298  2.1481
 9255TIP3   OH249255   6.071   5.931   4.589  0.1770 -0.0223  0.7186
 9255TIP3    H149256   6.006   5.999   4.576  0.0748  0.2320  2.4798
 9255TIP3    H249257   6.076   5.920   4.684  1.4105 -1.2833  0.5253
 9256TIP3   OH249258   5.655   2.428  15.781  0.1330  0.5187  0.9068
 9256TIP3    H149259   5.735   2.478  15.765 -0.9775  1.7396 -1.0111
 9256TIP3    H249260   5.677   2.370  15.854  2.7267  0.8871  0.4626
 9257TIP3   OH249261   5.508   2.342  16.364  0.1242 -0.0307 -0.3678
 9257TIP3    H149262   5.423   2.308  16.336  0.6500 -0.4269 -1.5365
 9257TIP3    H249263   5.493   2.374  16.453 -1.1673 -0.3792 -0.4467
 9258TIP3   OH249264   6.359   4.622  14.877  0.6152  0.2536 -0.4798
 9258TIP3    H149265   6.306   4.542  14.871  0.5547  0.3783 -1.7538
 9258TIP3    H249266   6.427   4.601  14.941 -1.0946  0.1665  1.3628
 9259TIP3   OH249267   1.853   2.713   2.224 -0.3232 -0.7079 -0.3516
 9259TIP3    H149268   1.820   2.782   2.165 -0.6292 -0.1179  0.5020
 9259TIP3    H249269   1.882   2.760   2.302 -1.7956 -1.6583  0.7945
 9260TIP3   OH249270   0.197   4.909  16.440 -0.0120 -0.4996 -0.0851
 9260TIP3    H149271   0.209   4.997  16.405  0.8499 -0.5895 -0.0339
 9260TIP3    H249272   0.260   4.855  16.391  0.4582 -0.8216  0.8590
 9261TIP3   OH249273   5.716   3.172   2.104 -0.5892  0.0704  0.1896
 9261TIP3    H149274   5.808   3.198   2.100 -0.5518  0.0623  0.9234
 9261TIP3    H249275   5.684   3.182   2.014  0.0880  0.2122 -0.0381
 9262TIP3   OH249276   5.100   5.632   2.317 -0.0222  0.0742 -0.2769
 9262TIP3    H149277   5.196   5.631   2.318 -0.0117 -3.2222 -1.0014
 9262TIP3    H249278   5.076   5.579   2.241 -2.4372 -0.5381  0.8636
 9263TIP3   OH249279   6.530   2.279  11.368 -0.0875 -0.8872 -0.4267
 9263TIP3    H149280   6.596   2.258  11.301 -0.0067 -2.5081  0.1323
 9263TIP3    H249281   6.467   2.207  11.362 -0.9677 -0.1689  0.1134
 9264TIP3   OH249282   2.529   6.010   0.435 -0.2069 -0.7995 -0.1128
 9264TIP3    H149283   2.452   5.978   0.482 -1.6652  2.1704 -0.3553
 9264TIP3    H249284   2.594   6.026   0.503 -1.2572  0.5645  0.6076
 9265TIP3   OH249285   0.002   6.661  13.209  0.4573 -0.1330  0.3224
 9265TIP3    H149286   0.042   6.586  13.166  0.9008 -0.4205  1.2406
 9265TIP3    H249287  -0.082   6.671  13.165  0.1443 -1.5176  0.5962
 9266TIP3   OH249288   1.806   4.669   4.290 -0.6811 -0.0993  0.2536
 9266TIP3    H149289   1.827   4.579   4.265 -0.2102  0.0818  0.0005
 9266TIP3    H249290   1.757   4.660   4.372 -1.1812 -0.6220 -0.0980
 9267TIP3   OH249291   3.497   5.459  14.642  0.7673  0.4593  0.4654
 9267TIP3    H149292   3.575   5.495  14.686  1.8165 -1.1043 -0.0602
 9267TIP3    H249293   3.515   5.471  14.549 -0.2614  1.3517  0.3722
 9268TIP3   OH249294   3.368   2.748   6.295  0.8164  0.0983  0.2675
 9268TIP3    H149295   3.460   2.724   6.308  1.0772  1.1445  0.3809
 9268TIP3    H249296   3.357   2.830   6.342 -0.0412  0.2711 -0.2093
 9269TIP3   OH249297   0.355   5.942   1.300  0.3965  0.2357  0.4293
 9269TIP3    H149298   0.354   6.036   1.284  0.6652  0.1401 -0.1519
 9269TIP3    H249299   0.390   5.933   1.389  0.3939  0.6810  0.4749
 9270TIP3   OH249300   0.079   3.594  14.863  0.0321 -0.3987  0.4628
 9270TIP3    H149301   0.021   3.658  14.821 -0.3891 -1.0415  0.0464
 9270TIP3    H249302   0.032   3.567  14.942 -0.2195 -0.8659  0.1623
 9271TIP3   OH249303   2.021   5.585  14.066 -0.4879 -0.2576 -0.3933
 9271TIP3    H149304   1.982   5.523  14.128  0.7603 -0.8261 -0.1532
 9271TIP3    H249305   2.102   5.614  14.109 -0.4219  0.5676 -1.0680
 9272TIP3   OH249306   5.236   5.135   2.229  0.1716  0.4331 -0.7401
 9272TIP3    H149307   5.317   5.097   2.195 -0.0808 -0.2088 -0.6394
 9272TIP3    H249308   5.184   5.153   2.151 -0.5550 -1.3722 -0.6998
 9273TIP3   OH249309   2.718   0.725  15.836 -0.0967  0.7215 -0.4920
 9273TIP3    H149310   2.811   0.726  15.817  0.4525 -1.4378  1.7814
 9273TIP3    H249311   2.685   0.808  15.802  2.7103  1.6719 -0.9976
 9274TIP3   OH249312   2.351   6.217   4.747  0.6535  0.4653 -0.2872
 9274TIP3    H149313   2.322   6.230   4.657  3.8612  0.5790 -1.3570
 9274TIP3    H249314   2.351   6.123   4.760  0.3911  0.4425 -0.4583
 9275TIP3   OH249315   2.832   3.931   0.077  0.2021 -0.0738  0.4604
 9275TIP3    H149316   2.757   3.910   0.021 -0.0431 -0.3724  0.8980
 9275TIP3    H249317   2.797   3.991   0.143  0.7583  1.2080 -0.4082
 9276TIP3   OH249318   5.153   1.780  14.655 -0.2476  0.1772 -0.0574
 9276TIP3    H149319   5.085   1.742  14.599  0.3781  0.0675 -0.7574
 9276TIP3    H249320   5.170   1.866  14.616  0.7218 -0.2046 -0.4875
 9277TIP3   OH249321   6.739   1.159   1.920 -0.1370  0.4284  0.1660
 9277TIP3    H149322   6.719   1.100   1.848 -0.3616  0.5021  0.1680
 9277TIP3    H249323   6.835   1.156   1.927 -0.1475  0.0230  0.2016
 9278TIP3   OH249324   3.835   4.237  10.760 -0.1810  0.4537 -0.3533
 9278TIP3    H149325   3.823   4.162  10.701  2.5044  1.3996 -2.1685
 9278TIP3    H249326   3.766   4.298  10.736 -0.3256 -0.0174 -1.1380
 9279TIP3   OH249327   5.242   5.432   4.374  0.2431  0.5554 -0.2829
 9279TIP3    H149328   5.324   5.481   4.371  0.5082  0.2743  1.6858
 9279TIP3    H249329   5.174   5.499   4.378  0.3540  0.7913 -2.2717
 9280TIP3   OH249330   2.889   6.469   2.900 -0.4783 -0.0558 -0.5733
 9280TIP3    H149331   2.863   6.378   2.913  0.6191 -0.6748 -2.5477
 9280TIP3    H249332   2.806   6.518   2.900 -0.9348 -0.7732  2.3841
 9281TIP3   OH249333   4.684   5.836  15.109 -0.1766  0.2632  0.1188
 9281TIP3    H149334   4.711   5.880  15.189  0.6920 -1.5477  0.8593
 9281TIP3    H249335   4.590   5.852  15.104 -0.4825 -0.6651  2.2097
 9282TIP3   OH249336   0.719   3.665  11.684  0.4723  0.5468 -0.5393
 9282TIP3    H149337   0.716   3.604  11.757  2.0756  1.3685  0.2438
 9282TIP3    H249338   0.806   3.650  11.645  0.6768  1.9673 -0.6397
 9283TIP3   OH249339   4.369   0.355  14.347 -0.3541 -0.0039  0.3335
 9283TIP3    H149340   4.456   0.392  14.359  0.5579 -2.2397  1.0026
 9283TIP3    H249341   4.370   0.274  14.399 -2.6269 -0.3673 -0.1167
 9284TIP3   OH249342   0.369   3.285   2.734 -0.2734  0.0991 -0.8822
 9284TIP3    H149343   0.437   3.308   2.797  0.0980 -1.5383 -0.6687
 9284TIP3    H249344   0.331   3.204   2.768 -4.3776  2.5191  0.6223
 9285TIP3   OH249345   5.606   3.978   4.922 -0.5749 -0.0565 -0.1137
 9285TIP3    H149346   5.572   4.061   4.956 -2.0058 -0.3621 -0.7485
 9285TIP3    H249347   5.546   3.956   4.850 -0.5267 -1.9141  0.4023
 9286TIP3   OH249348   2.962   3.950   6.257  0.2880 -0.0573 -0.3230
 9286TIP3    H149349   2.936   3.935   6.348  0.6830  0.9423 -0.0431
 9286TIP3    H249350   3.053   3.922   6.252  0.0098 -0.9403 -0.6337
 9287TIP3   OH249351   0.005   1.241   5.397 -0.1229  0.5119 -0.1675
 9287TIP3    H149352   0.097   1.243   5.422  0.6139 -2.5424 -2.2462
 9287TIP3    H249353  -0.032   1.170   5.449 -1.1799  1.3673  0.2578
 9288TIP3   OH249354   0.557   2.225   5.043  0.1925  0.0685 -0.2045
 9288TIP3    H149355   0.604   2.307   5.052 -1.5350  0.9444  1.2521
 9288TIP3    H249356   0.481   2.247   4.988 -0.4478 -0.4695  0.4577
 9289TIP3   OH249357   6.717   5.267  12.209  0.3351  0.8227  0.6809
 9289TIP3    H149358   6.695   5.175  12.198  1.9562  0.6113 -1.0146
 9289TIP3    H249359   6.808   5.267  12.239  0.0577  1.8431  1.5383
 9290TIP3   OH249360   4.036   1.803  12.638  0.6407 -0.4435  0.0126
 9290TIP3    H149361   3.958   1.751  12.657 -1.1764  0.9945 -3.0371
 9290TIP3    H249362   4.054   1.849  12.720 -2.6991  0.3792  0.3654
 9291TIP3   OH249363   4.081   5.994  12.721  0.1158  0.5251  0.3826
 9291TIP3    H149364   4.150   6.011  12.785 -1.6855  1.5895  2.0766
 9291TIP3    H249365   4.093   6.063  12.655  1.0245  0.3549  0.3674
 9292TIP3   OH249366   2.198   3.830  16.699  0.3628 -0.3162 -0.8414
 9292TIP3    H149367   2.269   3.813  16.762  0.8591  2.1841 -0.6581
 9292TIP3    H249368   2.142   3.753  16.705  1.0484 -0.6701  1.8090
 9293TIP3   OH249369   1.100   1.028   1.578 -0.2502 -0.1173  0.3593
 9293TIP3    H149370   1.020   1.072   1.548 -0.3392  0.2950  1.1849
 9293TIP3    H249371   1.102   1.044   1.673 -0.9952 -3.0437  0.9145
 9294TIP3   OH249372   3.601   2.178  15.057  0.1296 -0.1563  0.4180
 9294TIP3    H149373   3.659   2.225  14.996 -0.8106 -0.1422 -0.4850
 9294TIP3    H249374   3.637   2.090  15.062  1.6060  0.4964  1.7150
 9295TIP3   OH249375   2.792   4.902  15.734  0.5781  0.4068  0.0283
 9295TIP3    H149376   2.871   4.849  15.741  1.4875  1.6314 -0.9324
 9295TIP3    H249377   2.816   4.987  15.771 -0.3513  0.7133 -0.0545
 9296TIP3   OH249378   5.414   0.926  15.197 -0.2228 -0.2991 -0.0987
 9296TIP3    H149379   5.443   0.951  15.109 -3.9451  0.2016 -1.2484
 9296TIP3    H249380   5.466   0.981  15.256  2.7860 -1.1118 -1.9097
 9297TIP3   OH249381   2.723   0.347   3.442  0.0788  0.1946 -0.5959
 9297TIP3    H149382   2.758   0.297   3.516 -0.6519 -1.2010 -1.1907
 9297TIP3    H249383   2.791   0.412   3.423  0.1035  0.8646  1.5660
 9298TIP3   OH249384   6.121   4.221  12.841 -0.3431 -0.5443  0.2514
 9298TIP3    H149385   6.065   4.288  12.878  0.8705  0.3252  0.5542
 9298TIP3    H249386   6.133   4.158  12.912 -1.8616 -1.3413 -0.1822
 9299TIP3   OH249387   1.556   3.729  11.426  0.2378  0.0078  0.2401
 9299TIP3    H149388   1.632   3.702  11.478 -0.6194  0.2868  1.6705
 9299TIP3    H249389   1.528   3.812  11.465  0.6341  1.1241 -1.8032
 9300TIP3   OH249390   3.060   1.925  16.033  0.8021 -0.3798 -0.7822
 9300TIP3    H149391   3.098   1.895  16.116  0.0093  0.1037 -0.2379
 9300TIP3    H249392   3.054   1.846  15.979  0.0345 -0.9556  0.1308
 9301TIP3   OH249393   2.941   2.135  11.715  0.7138  0.2201  0.3909
 9301TIP3    H149394   2.909   2.072  11.779 -0.4145  0.7582  0.3641
 9301TIP3    H249395   2.979   2.081  11.646 -0.3885 -0.4581  0.2943
 9302TIP3   OH249396   1.659   6.740  15.704  0.9092  0.8401 -0.2501
 9302TIP3    H149397   1.742   6.695  15.684  0.0416 -1.1517  0.5016
 9302TIP3    H249398   1.683   6.804  15.772  1.4435 -1.2916  1.6389
 9303TIP3   OH249399   3.567   1.499  11.420 -0.1275 -0.7390 -0.1989
 9303TIP3    H149400   3.653   1.534  11.446 -0.0048  1.0891 -2.8585
 9303TIP3    H249401   3.574   1.405  11.436  1.0193 -0.1831  3.1554
 9304TIP3   OH249402   0.635   1.334  17.287  0.6744  0.5755 -0.7587
 9304TIP3    H149403   0.682   1.411  17.254  0.0590  1.9759  1.5257
 9304TIP3    H249404   0.589   1.365  17.364 -1.8270 -1.4478 -1.3727
 9305TIP3   OH249405   1.441   6.418   1.892 -0.6517 -0.1674 -0.7780
 9305TIP3    H149406   1.357   6.374   1.901 -0.9970  0.8290  1.2525
 9305TIP3    H249407   1.501   6.368   1.947 -0.1027 -0.4318 -1.6170
 9306TIP3   OH249408   4.814   0.640  10.906  0.3838 -0.5138  0.4623
 9306TIP3    H149409   4.821   0.674  10.816  1.3045 -0.0425  0.7050
 9306TIP3    H249410   4.882   0.687  10.954 -2.0137  1.4158  2.1081
 9307TIP3   OH249411   0.815   1.790   5.346 -0.2981 -0.5419 -0.3284
 9307TIP3    H149412   0.885   1.841   5.387 -2.2691  1.1743  0.9741
 9307TIP3    H249413   0.837   1.789   5.253  0.1573  2.1397 -0.2816
 9308TIP3   OH249414   6.017   5.597  14.443  0.4024 -0.2528  0.4897
 9308TIP3    H149415   5.928   5.574  14.415  0.0084  0.8471  0.8353
 9308TIP3    H249416   6.071   5.583  14.366  0.0936 -1.8713  0.5462
 9309TIP3   OH249417   2.253   4.442  17.220  0.3567 -0.3699 -0.1630
 9309TIP3    H149418   2.250   4.530  17.256  2.9454  0.1339 -1.0676
 9309TIP3    H249419   2.245   4.384  17.296  0.0206  0.6421  0.5754
 9310TIP3   OH249420   5.162   4.993   1.458 -0.9950 -0.0507  0.1166
 9310TIP3    H149421   5.112   4.913   1.475  0.2305 -0.9462 -0.4411
 9310TIP3    H249422   5.250   4.963   1.436 -0.1360  1.5313  1.2974
 9311TIP3   OH249423   1.547   0.602   3.553 -0.1793 -0.3418 -0.2324
 9311TIP3    H149424   1.578   0.689   3.577  0.8124 -0.3419 -1.5032
 9311TIP3    H249425   1.625   0.547   3.555 -0.9231 -1.3924  1.3531
 9312TIP3   OH249426   0.456   1.195  14.793  0.4866 -0.3740  0.7224
 9312TIP3    H149427   0.537   1.152  14.823 -0.3794 -1.8687  0.9817
 9312TIP3    H249428   0.398   1.191  14.869 -0.7335 -1.6343 -0.2522
 9313TIP3   OH249429   1.488   4.062   3.646  1.3987  0.2016 -0.6795
 9313TIP3    H149430   1.557   4.121   3.614  0.2320  1.4339 -0.9733
 9313TIP3    H249431   1.408   4.115   3.645  0.5139 -1.0745  0.0727
 9314TIP3   OH249432   1.582   1.726  10.666 -0.6393 -0.1923 -0.1870
 9314TIP3    H149433   1.549   1.761  10.584 -1.8887 -0.0702  0.3430
 9314TIP3    H249434   1.566   1.632  10.660  1.1598 -0.4670 -0.9174
 9315TIP3   OH249435   3.299   5.470  15.679  0.2503 -0.2180 -0.4454
 9315TIP3    H149436   3.284   5.409  15.607 -0.4207 -0.6377  0.0443
 9315TIP3    H249437   3.394   5.483  15.680  0.2216  0.1580 -1.6982
 9316TIP3   OH249438   6.674   5.085   3.266  0.7447  0.2604 -0.0985
 9316TIP3    H149439   6.746   5.044   3.312  0.5053 -1.9132 -1.5759
 9316TIP3    H249440   6.705   5.093   3.176  0.2535  2.0617 -0.1162
 9317TIP3   OH249441   0.717   4.732   5.506 -0.4229  0.0600  0.5255
 9317TIP3    H149442   0.723   4.643   5.472  0.0551  0.4406 -0.4036
 9317TIP3    H249443   0.785   4.735   5.574 -0.4701 -0.3004  0.5922
 9318TIP3   OH249444   5.626   4.687   0.691 -0.4618 -0.3979  0.1925
 9318TIP3    H149445   5.581   4.674   0.775 -0.0821  0.4954  0.5467
 9318TIP3    H249446   5.701   4.627   0.695 -0.3736 -0.2690  0.5527
 9319TIP3   OH249447   2.118   1.155  12.924  0.4214 -0.2977  0.0059
 9319TIP3    H149448   2.073   1.230  12.884  0.4057 -0.6745 -0.6902
 9319TIP3    H249449   2.210   1.181  12.928  0.7485 -1.0319 -2.1284
 9320TIP3   OH249450   0.731   0.250  12.837 -0.1765  0.0698 -0.2488
 9320TIP3    H149451   0.654   0.301  12.811 -0.9936 -0.5691  0.8524
 9320TIP3    H249452   0.699   0.160  12.841  0.5585 -0.1591  0.5245
 9321TIP3   OH249453   2.995   2.511   3.765  0.0434  0.0383 -0.0451
 9321TIP3    H149454   3.024   2.507   3.856  0.0989  0.4155 -0.0442
 9321TIP3    H249455   3.060   2.460   3.717  0.5490  0.6358 -0.0036
 9322TIP3   OH249456   2.625   5.176   5.171 -0.2605 -0.2889  0.0503
 9322TIP3    H149457   2.556   5.137   5.116 -0.8220  1.5828 -0.5961
 9322TIP3    H249458   2.706   5.154   5.125 -0.6667  0.4927 -1.0578
 9323TIP3   OH249459   3.727   1.780  16.261 -0.3710  0.1562  0.2898
 9323TIP3    H149460   3.715   1.686  16.252  1.8316  0.0122 -1.7381
 9323TIP3    H249461   3.810   1.790  16.308 -0.1939  1.0893 -0.2053
 9324TIP3   OH249462   5.128   6.109   5.112 -0.0457 -0.2328  0.4909
 9324TIP3    H149463   5.157   6.075   5.027  1.3275  0.4400  0.6814
 9324TIP3    H249464   5.112   6.030   5.164 -0.4232 -0.6459 -0.2348
 9325TIP3   OH249465   4.226   0.983   0.684 -0.0783 -0.1462 -0.3393
 9325TIP3    H149466   4.233   1.078   0.677 -1.4361  0.1398  1.9444
 9325TIP3    H249467   4.307   0.956   0.728 -0.7743  0.2164  1.1769
 9326TIP3   OH249468   6.505   6.178  16.554 -0.0759  0.8705  1.0395
 9326TIP3    H149469   6.450   6.194  16.630 -0.0456  0.6975  1.0969
 9326TIP3    H249470   6.587   6.144  16.590  0.2171  1.5010  0.9812
 9327TIP3   OH249471   3.598   3.928   5.400 -0.1522 -0.1190 -0.1986
 9327TIP3    H149472   3.621   3.906   5.490 -2.0896 -2.5174 -0.2434
 9327TIP3    H249473   3.667   3.887   5.348 -2.1725 -3.8640 -0.0958
 9328TIP3   OH249474   0.720   3.775   3.138  0.5821 -0.3817  0.0541
 9328TIP3    H149475   0.798   3.819   3.106  2.1206 -2.5852  0.7010
 9328TIP3    H249476   0.750   3.722   3.211 -2.1144  1.2428  2.4806
 9329TIP3   OH249477   4.487   4.000   4.975  0.1817  0.6397 -0.0194
 9329TIP3    H149478   4.556   3.934   4.970 -0.4843 -0.0957  0.2961
 9329TIP3    H249479   4.457   4.010   4.885  0.5505  0.7978 -0.1245
 9330TIP3   OH249480   3.882   1.759   3.804 -0.7301 -0.1842  0.1215
 9330TIP3    H149481   3.865   1.833   3.862 -0.3196 -1.4850  1.9271
 9330TIP3    H249482   3.804   1.705   3.810 -1.3770  0.4577 -1.8335
 9331TIP3   OH249483   0.655   6.737  12.467  0.2888 -0.5707 -0.0234
 9331TIP3    H149484   0.731   6.769  12.516 -0.9524 -0.1824  1.7352
 9331TIP3    H249485   0.645   6.646  12.496  0.6210 -0.8927 -0.9281
 9332TIP3   OH249486   2.400   1.707  16.945 -0.4169 -0.2211 -0.0570
 9332TIP3    H149487   2.468   1.741  17.003 -0.3571 -0.8359  0.2391
 9332TIP3    H249488   2.330   1.772  16.949 -0.8262 -0.7298  1.4905
 9333TIP3   OH249489   6.794   3.827   6.268 -0.3295  0.3744 -0.1698
 9333TIP3    H149490   6.738   3.901   6.293 -0.6119  0.0296  0.2350
 9333TIP3    H249491   6.736   3.750   6.275 -0.0538  0.1192 -0.6347
 9334TIP3   OH249492   3.177   3.334   6.163 -0.3057 -0.1874  0.1464
 9334TIP3    H149493   3.159   3.260   6.222 -1.7900 -2.9391 -3.5965
 9334TIP3    H249494   3.170   3.411   6.220 -1.5750 -2.6908  3.5932
 9335TIP3   OH249495   0.856   6.420  13.871  0.5197 -0.8671  0.1157
 9335TIP3    H149496   0.870   6.325  13.864  0.9055 -0.8843  1.0776
 9335TIP3    H249497   0.934   6.453  13.914  0.3274 -0.1166 -0.0975
 9336TIP3   OH249498   0.352   1.901   2.115  0.1790  0.0748 -0.3266
 9336TIP3    H149499   0.326   1.856   2.035 -0.3920 -1.0971  0.5022
 9336TIP3    H249500   0.444   1.877   2.127 -0.5779 -2.3125  1.0247
 9337TIP3   OH249501   1.042   4.733   1.723  0.3910  0.4121 -0.0608
 9337TIP3    H149502   1.125   4.782   1.720 -0.1158  1.3406  0.8093
 9337TIP3    H249503   0.991   4.777   1.791  0.2034 -1.7901  1.2789
 9338TIP3   OH249504   1.990   1.073  16.252 -0.5345  0.2019 -0.0399
 9338TIP3    H149505   1.952   1.106  16.170  0.2795  2.5859  0.4837
 9338TIP3    H249506   1.972   1.142  16.316  0.6987 -0.6693  1.2810
 9339TIP3   OH249507   4.515   6.108  11.100  0.1806 -0.6126  0.4783
 9339TIP3    H149508   4.546   6.084  11.013 -0.1419  0.0745  0.1692
 9339TIP3    H249509   4.425   6.076  11.103 -0.7894  1.8735 -0.5137
 9340TIP3   OH249510   1.178   0.325   3.885 -0.2048 -0.0738 -0.1125
 9340TIP3    H149511   1.238   0.379   3.834  0.7652  0.6569  1.7340
 9340TIP3    H249512   1.212   0.236   3.877 -0.6439 -0.1263 -1.5264
 9341TIP3   OH249513   1.123   2.225   1.320 -0.2456 -0.9806 -0.2250
 9341TIP3    H149514   1.191   2.224   1.252 -0.1819  0.4982 -0.2027
 9341TIP3    H249515   1.043   2.246   1.272 -0.2170 -0.0233  0.1201
 9342TIP3   OH249516   2.431   2.330   3.579 -0.4731  0.0729 -0.6010
 9342TIP3    H149517   2.390   2.314   3.664  1.1996 -2.0367 -0.1490
 9342TIP3    H249518   2.366   2.304   3.515 -0.5463 -1.4546  0.0796
 9343TIP3   OH249519   4.780   0.145   3.348 -0.0624 -0.6263  0.1136
 9343TIP3    H149520   4.796   0.071   3.290  1.7141 -0.6014  0.5569
 9343TIP3    H249521   4.706   0.118   3.403  0.6403 -2.0958  0.3372
 9344TIP3   OH249522   0.244   1.653  16.473 -0.3891  0.0960  0.1851
 9344TIP3    H149523   0.317   1.621  16.525 -1.1705  0.0646  1.2851
 9344TIP3    H249524   0.240   1.595  16.397 -0.3517 -0.9736  0.9957
 9345TIP3   OH249525   5.365   4.603   4.837 -0.5567  0.2086  0.2305
 9345TIP3    H149526   5.446   4.560   4.861 -0.3686 -0.2752 -1.2138
 9345TIP3    H249527   5.318   4.539   4.784 -1.4698  0.8135  0.2896
 9346TIP3   OH249528   0.971   5.280  11.085  0.2673 -0.6100  0.0814
 9346TIP3    H149529   0.985   5.336  11.161  3.5589 -1.4901  0.1780
 9346TIP3    H249530   1.002   5.331  11.011 -3.6405  0.5498 -0.8894
 9347TIP3   OH249531   4.482   0.993  14.302 -0.1662  0.1103 -0.1720
 9347TIP3    H149532   4.562   1.044  14.292 -0.7200  0.8389 -0.9086
 9347TIP3    H249533   4.507   0.920  14.359  1.5377 -0.8525 -2.1234
 9348TIP3   OH249534   4.182   0.307   2.996 -0.2396  0.1302  0.2950
 9348TIP3    H149535   4.265   0.265   2.974  1.6470  2.7342  2.0797
 9348TIP3    H249536   4.156   0.353   2.916  0.9757  0.7405  0.2409
 9349TIP3   OH249537   6.816   1.977   3.985 -0.0391  0.0279 -0.3754
 9349TIP3    H149538   6.749   1.936   3.930  0.8201  0.3650 -1.6980
 9349TIP3    H249539   6.877   2.017   3.922  1.1126  0.1712  0.8245
 9350TIP3   OH249540   5.239   4.393   0.993  0.2171  0.7580 -0.2408
 9350TIP3    H149541   5.312   4.375   0.934  1.2095  1.1304  0.8491
 9350TIP3    H249542   5.233   4.314   1.047  0.3956  1.0770  0.2537
 9351TIP3   OH249543   4.009   4.101  11.624 -0.0101 -0.2309  0.2692
 9351TIP3    H149544   4.026   4.137  11.711  0.2077 -1.8748  0.9064
 9351TIP3    H249545   3.981   4.177  11.572 -0.4815  0.6897  1.8496
 9352TIP3   OH249546   4.898   1.080   0.596 -0.1584 -0.3211  0.2299
 9352TIP3    H149547   4.841   1.003   0.606 -2.3690  0.8896 -2.4456
 9352TIP3    H249548   4.847   1.152   0.634 -0.8347  0.9209 -2.8995
 9353TIP3   OH249549   0.231   4.890   2.824  0.5963 -0.3271  0.2604
 9353TIP3    H149550   0.310   4.943   2.828 -0.3482  1.0269  1.4295
 9353TIP3    H249551   0.163   4.951   2.796 -0.5336 -0.8882  1.7457
 9354TIP3   OH249552   2.022   0.531   4.782 -0.1167  0.3177 -0.4899
 9354TIP3    H149553   1.971   0.470   4.836  2.1915 -0.3713  0.9821
 9354TIP3    H249554   2.019   0.614   4.831  1.3700 -0.1179  0.3840
 9355TIP3   OH249555   0.361   0.037  12.979  0.3395  0.3618 -0.7639
 9355TIP3    H149556   0.329   0.045  13.069  1.0048  0.1789 -0.5109
 9355TIP3    H249557   0.323   0.112  12.933 -1.2250 -0.3660 -0.6984
 9356TIP3   OH249558   6.340   4.657   2.539 -0.2725 -0.4585 -0.3021
 9356TIP3    H149559   6.265   4.613   2.578 -1.0693  0.9299 -0.2427
 9356TIP3    H249560   6.358   4.608   2.459 -2.5714  0.4433 -1.3992
 9357TIP3   OH249561   1.418   2.898   1.633  0.0794  0.4404 -0.1203
 9357TIP3    H149562   1.399   2.901   1.727  3.3452  1.0790  0.5756
 9357TIP3    H249563   1.350   2.953   1.593 -2.6989 -1.5847  1.5671
 9358TIP3   OH249564   3.501   6.368   0.208  0.0723 -0.2690  0.4461
 9358TIP3    H149565   3.414   6.339   0.235  0.2827 -1.0208  0.3089
 9358TIP3    H249566   3.498   6.366   0.112 -0.1836  0.9686  0.4155
 9359TIP3   OH249567   6.319   5.741   4.678  0.2664 -0.3981  0.1108
 9359TIP3    H149568   6.306   5.776   4.766  1.6612  1.0584 -0.2332
 9359TIP3    H249569   6.407   5.769   4.654 -0.5709  0.3024 -2.2310
 9360TIP3   OH249570   6.557   5.593  14.050  0.1014 -0.0056  0.9983
 9360TIP3    H149571   6.486   5.581  14.114 -0.4949  1.1615  0.5590
 9360TIP3    H249572   6.636   5.599  14.104 -0.2537 -0.2439  1.5557
 9361TIP3   OH249573   5.384   6.111  11.172  0.0551 -0.5157  0.4202
 9361TIP3    H149574   5.289   6.120  11.168 -0.0971 -1.6080  1.4053
 9361TIP3    H249575   5.406   6.126  11.264  0.9289  0.5466  0.0536
 9362TIP3   OH249576   1.736   2.207   1.460 -0.1959 -0.4050 -0.0526
 9362TIP3    H149577   1.746   2.119   1.423  2.7981 -0.2597  0.2397
 9362TIP3    H249578   1.677   2.252   1.399  0.0817 -1.9183 -1.4783
 9363TIP3   OH249579   4.120   4.261   1.105 -0.2701 -0.3165  0.3147
 9363TIP3    H149580   4.079   4.347   1.099  0.1835 -0.1566 -0.6074
 9363TIP3    H249581   4.047   4.199   1.112 -0.5800  0.1931  1.8124
 9364TIP3   OH249582   6.394   0.796  14.063  0.3998 -0.1980  0.5037
 9364TIP3    H149583   6.401   0.705  14.036  1.4289  0.0034  0.0329
 9364TIP3    H249584   6.465   0.840  14.015  0.3833  0.7049  1.2934
 9365TIP3   OH249585   3.357   2.227   4.636  0.1902 -0.0901 -0.4501
 9365TIP3    H149586   3.381   2.306   4.588 -0.1762  0.8897  0.9400
 9365TIP3    H249587   3.261   2.231   4.643  0.2313 -0.2277  0.3044
 9366TIP3   OH249588   1.316   1.128  15.112 -0.4451  0.0336 -0.2148
 9366TIP3    H149589   1.251   1.110  15.045  0.2730 -1.9283 -0.4115
 9366TIP3    H249590   1.390   1.070  15.091  0.3328  0.3774  1.4657
 9367TIP3   OH249591   3.679   2.054  16.834 -0.4380 -0.4485 -0.2110
 9367TIP3    H149592   3.710   2.017  16.917  1.8672 -0.6683 -1.1207
 9367TIP3    H249593   3.705   1.990  16.768  1.3602  1.5518 -1.5132
 9368TIP3   OH249594   1.125   5.355   5.119  0.1013  0.0384  0.2769
 9368TIP3    H149595   1.036   5.320   5.119  0.5556 -1.1462  0.3601
 9368TIP3    H249596   1.147   5.363   5.027  0.0698 -0.0832  0.2589
 9369TIP3   OH249597   0.699   1.142  13.585  0.5058 -0.2508 -0.2981
 9369TIP3    H149598   0.632   1.129  13.518  0.6831  0.0548 -0.5332
 9369TIP3    H249599   0.710   1.237  13.590 -0.0787 -0.2268  0.7232
 9370TIP3   OH249600   6.369   5.652  11.077  0.2446 -0.3848  0.7546
 9370TIP3    H149601   6.393   5.623  10.989 -1.4045  0.8445 -0.1295
 9370TIP3    H249602   6.452   5.671  11.120  1.1334 -2.1810 -0.1105
 9371TIP3   OH249603   4.882   2.050   5.951  0.2500  0.2512  0.0813
 9371TIP3    H149604   4.851   1.989   6.018  1.3688  0.5621  0.8881
 9371TIP3    H249605   4.803   2.076   5.904 -0.4397 -0.5600  0.7826
 9372TIP3   OH249606   5.227   4.175   3.317 -0.4649  0.1725  0.3530
 9372TIP3    H149607   5.201   4.259   3.280 -0.4431 -0.4110 -0.9949
 9372TIP3    H249608   5.318   4.164   3.291  0.3139  0.8697  2.6343
 9373TIP3   OH249609   5.830   4.348  16.820  0.6298  0.3357 -0.3498
 9373TIP3    H149610   5.812   4.412  16.752 -2.0369 -0.9189 -0.8640
 9373TIP3    H249611   5.809   4.263  16.781  0.5697 -0.5424  1.5147
 9374TIP3   OH249612   6.469   0.771   5.011  0.3046 -0.3256 -0.1899
 9374TIP3    H149613   6.420   0.689   5.021  0.0943 -0.1388  0.2752
 9374TIP3    H249614   6.500   0.792   5.099  0.2518  0.1653 -0.2889
 9375TIP3   OH249615   2.112   5.163  12.068 -0.1920 -0.0217 -0.4685
 9375TIP3    H149616   2.159   5.181  11.986 -1.6121 -0.3603 -1.3695
 9375TIP3    H249617   2.052   5.092  12.045 -0.6059 -0.1056  0.8742
 9376TIP3   OH249618   1.931   6.387   5.499 -0.2239 -0.1301 -0.2534
 9376TIP3    H149619   1.996   6.322   5.474 -0.1226 -0.4124  0.7070
 9376TIP3    H249620   1.883   6.345   5.571 -0.4846  0.6633  0.0318
 9377TIP3   OH249621   4.123   3.449   2.523  0.1641 -0.0448 -0.7047
 9377TIP3    H149622   4.043   3.466   2.474 -0.5863  2.8998  1.3927
 9377TIP3    H249623   4.180   3.523   2.503  0.6869  0.0674  1.0981
 9378TIP3   OH249624   0.944   2.377  10.883 -0.0836  0.1959  0.2453
 9378TIP3    H149625   0.869   2.318  10.894 -0.2789  0.0252 -1.7305
 9378TIP3    H249626   0.957   2.380  10.788  2.3516  0.3066  0.5634
 9379TIP3   OH249627   0.906   0.460   5.200  0.1881 -0.5236 -0.2421
 9379TIP3    H149628   0.909   0.404   5.122 -0.8345 -0.4632 -0.3328
 9379TIP3    H249629   0.829   0.429   5.248 -0.3352  0.7472 -0.2533
 9380TIP3   OH249630   2.821   4.239  11.401 -0.0675 -0.2275 -0.8047
 9380TIP3    H149631   2.873   4.224  11.322  0.1068  0.0851 -0.7542
 9380TIP3    H249632   2.848   4.326  11.431 -1.5472  0.4937 -1.4961
 9381TIP3   OH249633   5.461   4.019   3.254  0.0744  1.1613 -0.0801
 9381TIP3    H149634   5.554   4.029   3.233  0.9930 -1.4983  2.4009
 9381TIP3    H249635   5.425   3.969   3.180  0.3420  3.0389 -1.5234
 9382TIP3   OH249636   5.843   5.762   1.412  0.5799 -0.3294  0.1356
 9382TIP3    H149637   5.918   5.822   1.415  0.9293 -0.7040 -0.9028
 9382TIP3    H249638   5.862   5.704   1.339 -0.0248 -1.3660  0.7956
 9383TIP3   OH249639   2.556   0.555  15.977 -1.0032 -0.0092  0.2745
 9383TIP3    H149640   2.630   0.592  15.929 -0.5116  0.6116  1.4746
 9383TIP3    H249641   2.489   0.624  15.975 -1.9503 -0.9616 -1.6846
 9384TIP3   OH249642   2.724   3.583  16.885 -0.2114 -0.0891 -0.2526
 9384TIP3    H149643   2.802   3.637  16.875 -0.8624  0.6844 -1.2438
 9384TIP3    H249644   2.751   3.513  16.945  1.0135  0.5963  0.0205
 9385TIP3   OH249645   1.391   0.547   2.300 -0.4837 -0.1052  0.5343
 9385TIP3    H149646   1.454   0.618   2.315 -1.2091  0.4046  1.1797
 9385TIP3    H249647   1.423   0.475   2.353  0.5133 -0.4206 -0.4773
 9386TIP3   OH249648   5.256   2.360   2.968  0.4576  0.1793  0.0044
 9386TIP3    H149649   5.193   2.432   2.963 -0.6163 -0.7592 -0.0566
 9386TIP3    H249650   5.213   2.294   3.021  1.2848 -0.5939 -0.2767
 9387TIP3   OH249651   5.276   3.371   1.920  0.3165  0.1993 -0.2665
 9387TIP3    H149652   5.258   3.331   1.835 -0.5886 -0.0364  0.0255
 9387TIP3    H249653   5.264   3.465   1.906  1.6912  0.3099 -0.7686
 9388TIP3   OH249654   3.823   1.553  11.502 -0.1361 -0.3669  0.0251
 9388TIP3    H149655   3.832   1.489  11.573  0.8939  0.3272  0.5342
 9388TIP3    H249656   3.856   1.508  11.424  1.6307 -0.0870  0.5945
 9389TIP3   OH249657   3.403   5.941  11.405  0.6216  0.1921 -0.0595
 9389TIP3    H149658   3.335   5.970  11.344  1.7674  1.4314 -0.7999
 9389TIP3    H249659   3.376   5.853  11.432 -0.3853 -0.0112 -1.6615
 9390TIP3   OH249660   4.261   2.526   6.493  0.3743 -0.5280  0.5273
 9390TIP3    H149661   4.272   2.565   6.579 -0.1075  0.2897  0.2210
 9390TIP3    H249662   4.317   2.448   6.495  0.4295 -0.4692  1.5436
 9391TIP3   OH249663   6.325   0.474  16.574 -0.7257 -0.0669 -0.0561
 9391TIP3    H149664   6.362   0.404  16.519 -0.6241 -2.1548  2.5647
 9391TIP3    H249665   6.393   0.493  16.638 -0.0897  3.7207 -1.7641
 9392TIP3   OH249666   4.321   6.090  12.857  0.3714 -0.2820  0.8416
 9392TIP3    H149667   4.395   6.141  12.822 -0.9597  1.5845  0.6950
 9392TIP3    H249668   4.331   6.098  12.952  0.4340 -0.1295  0.8240
 9393TIP3   OH249669   6.401   4.258   3.964  0.0459 -0.7336 -0.3746
 9393TIP3    H149670   6.375   4.331   3.908 -1.9201 -1.9350 -1.0848
 9393TIP3    H249671   6.339   4.260   4.037  1.7413 -0.0061  1.0650
 9394TIP3   OH249672   0.789   6.384   1.229 -0.3474  0.2104  0.1286
 9394TIP3    H149673   0.831   6.407   1.147 -0.4250 -0.6501 -0.1532
 9394TIP3    H249674   0.697   6.375   1.208 -0.2630 -0.7460  0.1556
 9395TIP3   OH249675   3.151   2.291   5.845 -0.1872  0.1661  0.1999
 9395TIP3    H149676   3.133   2.371   5.893  0.1195  0.5157 -0.2587
 9395TIP3    H249677   3.245   2.295   5.827 -0.5822  0.8524 -1.8538
 9396TIP3   OH249678   6.051   1.233   5.611 -0.0274  0.8668 -0.2093
 9396TIP3    H149679   5.972   1.183   5.591 -0.1076 -0.6625  3.5689
 9396TIP3    H249680   6.024   1.295   5.678  2.2023 -0.6541  2.2061
 9397TIP3   OH249681   0.958   3.150   2.073  0.8597  0.2813  0.3124
 9397TIP3    H149682   1.035   3.207   2.076  1.7064 -0.7802 -0.7571
 9397TIP3    H249683   0.885   3.210   2.057  1.6542  1.1321 -0.2044
 9398TIP3   OH249684   5.725   1.305   4.657 -0.3598 -0.5950  0.3833
 9398TIP3    H149685   5.735   1.373   4.724  0.0282  0.4506 -0.7213
 9398TIP3    H249686   5.701   1.353   4.578 -0.6369 -1.8073 -0.2788
 9399TIP3   OH249687   6.126   1.656  11.339 -0.0045 -0.6179 -0.1771
 9399TIP3    H149688   6.196   1.663  11.274 -0.9843 -0.7701 -1.2772
 9399TIP3    H249689   6.053   1.706  11.301  0.1062  1.1333  1.8095
 9400TIP3   OH249690   1.227   2.631  14.870  0.2679  0.2673 -0.0255
 9400TIP3    H149691   1.285   2.701  14.839 -0.2091  0.7989  0.2902
 9400TIP3    H249692   1.171   2.673  14.935 -1.5640  0.1286 -1.4896
 9401TIP3   OH249693   5.342   2.163  16.587 -0.7118 -0.3293 -0.4761
 9401TIP3    H149694   5.267   2.170  16.527 -0.9255 -0.0248 -0.1768
 9401TIP3    H249695   5.367   2.253  16.605 -0.0714 -0.4394 -0.8225
 9402TIP3   OH249696   5.220   6.755  12.704  0.3385  0.4305 -0.4326
 9402TIP3    H149697   5.270   6.818  12.755  0.8712 -1.8835  2.0233
 9402TIP3    H249698   5.170   6.808  12.642  1.0646  3.2146  1.2934
 9403TIP3   OH249699   3.483   5.014   3.185  0.2813  0.2005  0.0725
 9403TIP3    H149700   3.523   5.054   3.262 -0.3684 -0.0954  0.5762
 9403TIP3    H249701   3.556   4.982   3.133  0.6825 -0.6914  1.1752
 9404TIP3   OH249702   2.182   1.062  15.032  0.0767  0.7494 -0.4049
 9404TIP3    H149703   2.092   1.037  15.054  0.6277 -0.6373  0.3450
 9404TIP3    H249704   2.236   1.009  15.090  1.4261  0.5078 -1.8640
 9405TIP3   OH249705   5.815   0.200   1.831  0.2994 -0.3150 -0.9722
 9405TIP3    H149706   5.769   0.128   1.787 -0.6514 -0.2109 -0.1755
 9405TIP3    H249707   5.842   0.163   1.915  0.5355  0.0093 -0.9076
 9406TIP3   OH249708   0.362   4.454  13.982  0.2732 -0.0556  0.6880
 9406TIP3    H149709   0.413   4.374  13.969 -0.5925 -0.4006 -0.6282
 9406TIP3    H249710   0.327   4.474  13.896  0.0245  1.4422  1.1316
 9407TIP3   OH249711   6.003   6.234   1.416 -0.2216 -0.1525  0.2988
 9407TIP3    H149712   6.071   6.179   1.378 -0.4791 -0.0367 -0.3346
 9407TIP3    H249713   5.922   6.200   1.377 -0.4558  0.1636  0.5144
 9408TIP3   OH249714   3.840   5.130   4.897  0.0517 -0.0047 -0.3677
 9408TIP3    H149715   3.839   5.189   4.821  1.0080  1.4428  0.7054
 9408TIP3    H249716   3.851   5.043   4.860 -0.7714  0.5461 -1.9662
 9409TIP3   OH249717   5.400   0.302  13.900  0.7375 -0.5988 -0.1653
 9409TIP3    H149718   5.354   0.361  13.960 -0.3210 -0.8130 -0.7351
 9409TIP3    H249719   5.423   0.226  13.953  1.9202  0.2354  0.5265
 9410TIP3   OH249720   4.533   3.367  15.196  0.0584 -0.3270  0.1377
 9410TIP3    H149721   4.501   3.407  15.115 -1.8497 -0.9846  0.5469
 9410TIP3    H249722   4.502   3.277  15.192  1.7779 -0.9456  0.6149
 9411TIP3   OH249723   3.628   5.529   2.103  0.2748  0.3826  0.0249
 9411TIP3    H149724   3.682   5.515   2.025  0.0243 -0.0411 -0.0719
 9411TIP3    H249725   3.664   5.609   2.143  1.1346 -0.0288  0.0926
 9412TIP3   OH249726   3.163   3.770  12.554 -0.3839  0.4532  0.7616
 9412TIP3    H149727   3.212   3.751  12.474 -0.1220  1.8827  0.5588
 9412TIP3    H249728   3.130   3.859  12.541  0.2236  0.9579  2.5129
 9413TIP3   OH249729   1.578   2.736   1.491 -0.6222  0.4606 -0.2648
 9413TIP3    H149730   1.528   2.665   1.530 -0.1327  0.6708  0.7677
 9413TIP3    H249731   1.543   2.815   1.532  0.5320  0.6071  0.4603
 9414TIP3   OH249732   2.841   5.294   0.288  0.1299 -0.1029 -0.0003
 9414TIP3    H149733   2.752   5.318   0.264  0.4332 -0.7048 -1.8284
 9414TIP3    H249734   2.833   5.251   0.373 -1.6492 -2.3622 -1.2727
 9415TIP3   OH249735   6.161   3.059  13.149 -0.2193 -0.1817  0.0557
 9415TIP3    H149736   6.219   3.118  13.199  2.2230 -1.0103 -1.6802
 9415TIP3    H249737   6.171   2.974  13.192 -0.3675 -0.2736 -0.0941
 9416TIP3   OH249738   3.538   5.672   2.437 -0.1259  0.2252 -0.5527
 9416TIP3    H149739   3.453   5.691   2.477  0.7657  1.5509  0.7787
 9416TIP3    H249740   3.563   5.588   2.474  0.2336  0.9723  0.9443
 9417TIP3   OH249741   2.870   3.428   0.224  0.5233 -0.0038 -0.1454
 9417TIP3    H149742   2.887   3.441   0.317  0.4553 -1.7320  0.1275
 9417TIP3    H249743   2.836   3.339   0.218  0.9449 -0.0679 -1.8797
 9418TIP3   OH249744   3.344   0.777  11.008  0.6100  0.6027 -0.0457
 9418TIP3    H149745   3.357   0.786  11.102 -1.8349 -0.8524  0.4738
 9418TIP3    H249746   3.376   0.859  10.971  1.4782  1.2408  2.0681
 9419TIP3   OH249747   1.416   2.882   0.845  0.2610  0.0414 -0.4688
 9419TIP3    H149748   1.451   2.821   0.780  0.4422  0.0560 -0.3835
 9419TIP3    H249749   1.385   2.825   0.916  0.1254  0.0291 -0.5371
 9420TIP3   OH249750   1.839   4.836  15.533  0.3120 -0.0040 -0.4605
 9420TIP3    H149751   1.808   4.924  15.554 -0.7620 -0.7645  1.2794
 9420TIP3    H249752   1.783   4.778  15.585  2.0325 -1.6256 -0.3514
 9421TIP3   OH249753   3.750   0.497   3.339  0.4808 -0.1399 -0.2195
 9421TIP3    H149754   3.818   0.450   3.387  0.0569  1.4189  2.0308
 9421TIP3    H249755   3.674   0.495   3.398 -0.4654  0.7238 -1.3762
 9422TIP3   OH249756   6.749   4.393  11.083  0.6388 -0.1047 -0.2192
 9422TIP3    H149757   6.720   4.472  11.037  0.3372  0.7760  1.4368
 9422TIP3    H249758   6.699   4.322  11.042  0.0372  0.7044 -0.9327
 9423TIP3   OH249759   5.448   2.225  15.801 -0.0018  0.8080 -0.3688
 9423TIP3    H149760   5.504   2.291  15.761 -0.1870  0.4910 -1.1446
 9423TIP3    H249761   5.504   2.148  15.810 -0.1597  0.6647 -0.6345
 9424TIP3   OH249762   5.479   6.464   4.972 -0.8198 -0.8421 -0.0778
 9424TIP3    H149763   5.503   6.392   5.031 -0.3408 -1.1467 -0.6408
 9424TIP3    H249764   5.562   6.497   4.939 -0.8515  1.7563  2.2330
 9425TIP3   OH249765   4.599   1.934  14.540 -0.0280 -0.0102  0.1018
 9425TIP3    H149766   4.546   1.859  14.515  0.9345 -0.2101 -1.3874
 9425TIP3    H249767   4.554   2.009  14.500  0.9831 -0.2244 -1.5083
 9426TIP3   OH249768   3.645   6.352  13.169 -0.3587 -0.1092  0.9568
 9426TIP3    H149769   3.736   6.340  13.141 -0.4786 -1.0238  0.9456
 9426TIP3    H249770   3.606   6.265  13.160 -0.4984 -0.3416  3.5993
 9427TIP3   OH249771   0.023   0.549   5.705 -0.7854 -0.0781  0.6473
 9427TIP3    H149772   0.082   0.577   5.774 -0.5053  0.5527  0.1608
 9427TIP3    H249773   0.006   0.457   5.723  1.4062 -0.6343  0.0575
 9428TIP3   OH249774   3.126   1.991   0.708  0.2447  0.4203  0.1338
 9428TIP3    H149775   3.165   1.942   0.635 -2.0020 -1.8751  0.3911
 9428TIP3    H249776   3.146   1.938   0.785 -1.0949  0.5590  0.5914
 9429TIP3   OH249777   1.316   3.684   0.087 -0.4002 -0.2294  0.5878
 9429TIP3    H149778   1.272   3.660   0.006 -2.2817  2.0727  0.8838
 9429TIP3    H249779   1.399   3.722   0.060  0.8336 -3.2073 -0.0379
 9430TIP3   OH249780   3.432   4.417   0.248  0.5407 -0.1706 -0.5467
 9430TIP3    H149781   3.372   4.415   0.322  1.9985 -0.2650  0.6543
 9430TIP3    H249782   3.376   4.421   0.171 -1.0430 -1.8698  0.4845
 9431TIP3   OH249783   2.331   3.307   3.895 -0.0379  0.3369 -0.1649
 9431TIP3    H149784   2.410   3.353   3.923  0.1466 -0.2094  0.2012
 9431TIP3    H249785   2.321   3.332   3.803  0.5208  0.4563 -0.1948
 9432TIP3   OH249786   1.795   4.261  14.845 -0.6004  0.2952  1.0068
 9432TIP3    H149787   1.808   4.171  14.877  0.3975  0.1667  0.2632
 9432TIP3    H249788   1.864   4.312  14.887 -0.2722  0.4281  0.3287
 9433TIP3   OH249789   1.899   0.392  13.585 -0.3751 -0.1060 -0.2652
 9433TIP3    H149790   1.932   0.478  13.611 -0.7987 -0.3015  0.9471
 9433TIP3    H249791   1.805   0.395  13.605 -0.0206 -1.5689  1.8194
 9434TIP3   OH249792   6.076   3.362  14.392 -0.3213  0.3869  0.3143
 9434TIP3    H149793   6.028   3.303  14.333  0.2859 -0.2867  0.4782
 9434TIP3    H249794   6.128   3.417  14.333 -0.6579  0.5538  0.1715
 9435TIP3   OH249795   2.610   2.970   4.060  0.4429 -0.4670  0.1095
 9435TIP3    H149796   2.640   2.939   3.974  1.3075  0.5728  0.0212
 9435TIP3    H249797   2.517   2.987   4.048  0.6213 -0.0421 -0.7132
 9436TIP3   OH249798   4.067   5.242  14.546  0.0068 -0.7904  0.1771
 9436TIP3    H149799   4.067   5.284  14.460 -0.4652 -0.9728  0.0847
 9436TIP3    H249800   4.160   5.228  14.566  0.2108  1.0465  0.5928
 9437TIP3   OH249801   5.857   1.038  14.094 -0.0223  0.1394 -0.0335
 9437TIP3    H149802   5.907   1.105  14.047  0.2150 -1.0239 -1.4771
 9437TIP3    H249803   5.896   0.955  14.067 -2.2498 -0.7413 -0.6310
 9438TIP3   OH249804   3.777   6.317   5.475 -0.2045  0.4992  0.6869
 9438TIP3    H149805   3.776   6.413   5.473 -0.7830  0.4989  0.9465
 9438TIP3    H249806   3.821   6.292   5.394 -1.3181  0.9513 -0.0732
 9439TIP3   OH249807   3.343   0.224   5.010  0.6888 -0.2083 -0.6744
 9439TIP3    H149808   3.285   0.185   5.076  0.9559  0.9073  0.2269
 9439TIP3    H249809   3.285   0.243   4.936 -0.4148  2.3074  0.8062
 9440TIP3   OH249810   0.822   1.946   5.919 -0.2257  0.3005 -0.4192
 9440TIP3    H149811   0.908   1.929   5.880  0.2056  0.3630  0.4939
 9440TIP3    H249812   0.765   1.962   5.844  0.0645 -1.9646 -1.1397
 9441TIP3   OH249813   2.854   3.535   3.200  0.0005  0.4683 -0.3624
 9441TIP3    H149814   2.938   3.503   3.233 -0.9524 -0.0689  1.6359
 9441TIP3    H249815   2.824   3.596   3.267 -1.4802  0.1871 -0.7464
 9442TIP3   OH249816   3.070   2.837  14.587  0.3133  0.0262 -0.0508
 9442TIP3    H149817   3.069   2.893  14.509  1.3195  2.0634  1.3745
 9442TIP3    H249818   3.160   2.842  14.619 -0.3562  0.1111  1.8722
 9443TIP3   OH249819   1.847   0.141   4.038 -0.1341 -0.6666 -0.0923
 9443TIP3    H149820   1.844   0.090   3.957  1.4331 -2.4535  0.9171
 9443TIP3    H249821   1.921   0.200   4.026  0.1113 -0.9460  0.0313
 9444TIP3   OH249822   6.817   0.713   4.758 -0.2847  0.3584 -0.1024
 9444TIP3    H149823   6.772   0.657   4.822 -0.6541  0.5070 -0.2313
 9444TIP3    H249824   6.803   0.802   4.789 -0.4183  0.4276 -0.3630
 9445TIP3   OH249825   0.156   2.169   6.306 -0.6017 -0.0406  0.5637
 9445TIP3    H149826   0.105   2.238   6.349 -0.1392 -0.0746  1.1692
 9445TIP3    H249827   0.106   2.148   6.227 -0.4580  1.3941  0.0802
 9446TIP3   OH249828   2.647   1.666   0.529  0.2194 -0.2378 -0.0006
 9446TIP3    H149829   2.690   1.697   0.609 -0.7356 -1.8310  1.1447
 9446TIP3    H249830   2.719   1.636   0.474  0.7621 -0.7079  0.9395
 9447TIP3   OH249831   3.642   1.363  12.024  0.1577  0.2535  0.2114
 9447TIP3    H149832   3.644   1.422  11.948  1.9621  0.7420  0.6119
 9447TIP3    H249833   3.551   1.367  12.055 -0.3196  0.9270 -1.2431
 9448TIP3   OH249834   5.501   6.407  15.848  0.0445 -0.4997 -0.0074
 9448TIP3    H149835   5.512   6.356  15.928 -2.6692 -0.0858  0.6652
 9448TIP3    H249836   5.408   6.426  15.844  0.5129  1.6329 -1.9508
 9449TIP3   OH249837   1.212   0.694  15.429  0.5761  0.1676 -0.9296
 9449TIP3    H149838   1.297   0.732  15.452  0.3458 -0.8974  1.7997
 9449TIP3    H249839   1.229   0.600  15.422 -0.5847 -0.1785  0.7075
 9450TIP3   OH249840   6.235   3.897  11.900 -0.1757  0.6378 -0.0044
 9450TIP3    H149841   6.225   3.967  11.963  0.8619  1.1032 -0.3448
 9450TIP3    H249842   6.163   3.836  11.919 -1.4757  2.1152 -0.1512
 9451TIP3   OH249843   0.736   0.548   2.007 -0.6736 -0.1131 -0.1056
 9451TIP3    H149844   0.649   0.508   2.003 -0.6406 -0.0347 -1.9186
 9451TIP3    H249845   0.720   0.642   2.003 -0.6710  0.0627  2.8468
 9452TIP3   OH249846   3.092   3.694  11.204  0.3512  0.4378  0.3980
 9452TIP3    H149847   3.099   3.629  11.274 -0.6791 -0.1354 -0.0290
 9452TIP3    H249848   3.138   3.771  11.239  0.6539 -0.1575  1.3308
 9453TIP3   OH249849   1.519   2.494   1.622  0.1284  0.4314 -0.5908
 9453TIP3    H149850   1.458   2.451   1.562  1.2031 -2.0516  0.0125
 9453TIP3    H249851   1.463   2.537   1.687 -0.9935  0.2498 -1.4248
 9454TIP3   OH249852   2.778   1.972   1.296  0.1065  0.3608 -0.5953
 9454TIP3    H149853   2.688   1.951   1.271  0.6229 -0.9797 -1.3319
 9454TIP3    H249854   2.798   1.911   1.367 -0.9600  3.3793  2.4777
 9455TIP3   OH249855   4.333   5.621   4.295 -0.1344  0.1249 -0.0537
 9455TIP3    H149856   4.252   5.574   4.313  1.0933 -1.5545  1.2158
 9455TIP3    H249857   4.369   5.641   4.381  1.2305  0.0968 -0.6033
 9456TIP3   OH249858   3.441   4.775   4.670 -0.6087  0.8826  0.1394
 9456TIP3    H149859   3.397   4.860   4.668 -0.9656  0.7066  0.4122
 9456TIP3    H249860   3.370   4.711   4.664 -0.3318  0.6007 -0.2328
 9457TIP3   OH249861   3.400   0.846  11.268 -0.3116  0.1193 -0.0956
 9457TIP3    H149862   3.361   0.902  11.336  1.7737  0.7994  0.5717
 9457TIP3    H249863   3.467   0.901  11.228  0.9154 -1.5034 -0.2839
 9458TIP3   OH249864   4.973   1.815  16.653 -0.1615 -0.3518  0.7117
 9458TIP3    H149865   4.948   1.733  16.612  0.0848 -0.5452  0.9492
 9458TIP3    H249866   4.942   1.883  16.592  0.6335 -0.6452 -0.0308
 9459TIP3   OH249867   6.443   2.879   1.599 -0.1409 -0.2109 -0.6546
 9459TIP3    H149868   6.499   2.825   1.544 -0.0087 -1.2391  0.4626
 9459TIP3    H249869   6.389   2.816   1.647  0.4787  0.6258  1.1574
 9460TIP3   OH249870   0.565   2.906  13.238 -0.4899 -0.4191  0.3075
 9460TIP3    H149871   0.471   2.893  13.233 -0.6982  0.8194  0.7569
 9460TIP3    H249872   0.602   2.841  13.178 -1.5624 -1.5619  0.8738
 9461TIP3   OH249873   6.161   1.327  12.518  0.2830  0.2581  0.4365
 9461TIP3    H149874   6.083   1.363  12.561  0.2219 -0.0444  0.5828
 9461TIP3    H249875   6.229   1.393  12.532  0.3622  0.0030  1.3177
 9462TIP3   OH249876   0.109   4.399  14.598  0.2030  0.1365  0.3020
 9462TIP3    H149877   0.057   4.360  14.528  3.0445 -0.9279 -1.2688
 9462TIP3    H249878   0.129   4.325  14.657 -1.6404  0.9055  1.9670
 9463TIP3   OH249879   2.269   2.111   3.791  0.1433 -0.1662  0.1845
 9463TIP3    H149880   2.344   2.143   3.840 -1.2392  2.5711  0.6341
 9463TIP3    H249881   2.193   2.133   3.846 -1.0378 -2.6668 -0.3397
 9464TIP3   OH249882   0.831   2.535   4.300 -0.2779  0.6935 -0.3609
 9464TIP3    H149883   0.857   2.494   4.383 -1.4982  0.6320  0.0028
 9464TIP3    H249884   0.760   2.595   4.324 -0.8347  0.4598 -1.3997
 9465TIP3   OH249885   1.974   0.685  13.337 -0.6445  0.9510 -0.2522
 9465TIP3    H149886   1.953   0.748  13.269 -0.7462 -0.4966 -1.6021
 9465TIP3    H249887   1.904   0.694  13.401 -1.2264  1.4883 -0.9556
 9466TIP3   OH249888   2.876   3.103  11.619  0.1637 -0.7522  0.3753
 9466TIP3    H149889   2.969   3.126  11.617 -0.2003  0.6827 -1.0653
 9466TIP3    H249890   2.834   3.175  11.665 -0.3264 -1.0879  0.4645
 9467TIP3   OH249891   4.808   4.001   1.939  0.0828  0.1703 -0.1526
 9467TIP3    H149892   4.768   4.080   1.903  0.9787  0.3802 -0.7100
 9467TIP3    H249893   4.894   3.997   1.897  0.1971 -0.8849  0.1736
 9468TIP3   OH249894   6.484   3.809   4.734 -0.2624  0.2236 -0.0897
 9468TIP3    H149895   6.552   3.863   4.693 -0.5651  0.3904 -0.3756
 9468TIP3    H249896   6.519   3.788   4.820  0.3924 -0.1484 -0.4432
 9469TIP3   OH249897   1.975   2.248   1.612 -0.4170 -0.4587 -0.0615
 9469TIP3    H149898   1.895   2.235   1.562  0.8785 -2.4128 -1.6955
 9469TIP3    H249899   1.995   2.162   1.649 -0.2381  0.4946  2.1848
 9470TIP3   OH249900   2.135   4.474   4.738 -0.4180 -0.2188 -0.0443
 9470TIP3    H149901   2.166   4.525   4.813 -0.0462 -1.4187  0.6326
 9470TIP3    H249902   2.044   4.501   4.727 -0.4436  0.0541  0.7733
 9471TIP3   OH249903   5.343   1.931  16.178  0.7162  0.0739 -0.2317
 9471TIP3    H149904   5.259   1.977  16.177  1.6908  1.8557 -2.5763
 9471TIP3    H249905   5.323   1.847  16.221 -2.9237 -0.7694 -3.2957
 9472TIP3   OH249906   6.410   1.477   2.310  0.1060 -0.7311  0.0525
 9472TIP3    H149907   6.471   1.548   2.289 -0.5961 -0.3449 -0.7332
 9472TIP3    H249908   6.341   1.485   2.244 -0.0767 -2.0317  0.0814
 9473TIP3   OH249909   3.487   0.943  13.469  0.2366  0.3513 -0.0076
 9473TIP3    H149910   3.563   0.984  13.427 -0.6166 -0.5575 -2.5097
 9473TIP3    H249911   3.505   0.952  13.563  3.4414  0.1853 -0.5262
 9474TIP3   OH249912   5.741   3.278   2.564  0.1057 -0.1192 -0.7953
 9474TIP3    H149913   5.824   3.237   2.541  0.4497 -0.4167  0.8794
 9474TIP3    H249914   5.762   3.370   2.577 -0.2627  0.2150 -2.5227
 9475TIP3   OH249915   1.637   3.539  11.663 -0.6717 -0.7860  0.4347
 9475TIP3    H149916   1.711   3.596  11.687 -1.7394  0.7817  0.0652
 9475TIP3    H249917   1.663   3.452  11.695  1.1044 -0.1590  0.7762
 9476TIP3   OH249918   2.307   3.647   0.887  0.0336 -0.5741  0.2068
 9476TIP3    H149919   2.228   3.701   0.880 -0.4766 -1.3382 -0.0447
 9476TIP3    H249920   2.348   3.675   0.969  1.0773  1.8745 -1.0930
 9477TIP3   OH249921   4.798   0.535  13.330 -0.5699 -0.1457  0.2538
 9477TIP3    H149922   4.886   0.531  13.366 -0.1550 -0.9219 -0.8220
 9477TIP3    H249923   4.786   0.627  13.306  1.3319 -0.6871 -2.9623
 9478TIP3   OH249924   3.155   5.095  13.117  0.4138 -0.0224 -0.4538
 9478TIP3    H149925   3.210   5.086  13.039  0.2040 -0.9556 -0.4978
 9478TIP3    H249926   3.093   5.023  13.111 -0.1839  0.4391  0.1164
 9479TIP3   OH249927   2.661   6.485  12.435  0.5026  0.2405 -0.0471
 9479TIP3    H149928   2.640   6.551  12.369  0.0249 -1.9553 -2.1423
 9479TIP3    H249929   2.576   6.460  12.472  0.6792  0.7278  0.7131
 9480TIP3   OH249930   0.526   1.066  16.165  0.3409  0.2147 -0.0569
 9480TIP3    H149931   0.554   1.156  16.148 -0.4588  0.2288 -1.3622
 9480TIP3    H249932   0.474   1.042  16.088  0.0644 -1.1629  0.5436
 9481TIP3   OH249933   2.016   1.864   4.784 -0.1286 -0.3797 -0.0495
 9481TIP3    H149934   2.045   1.926   4.852 -0.5445 -0.4732  0.2134
 9481TIP3    H249935   1.994   1.785   4.832  2.6561 -1.5480 -0.6126
 9482TIP3   OH249936   3.760   5.087  15.170 -0.5905 -0.4686  0.9668
 9482TIP3    H149937   3.697   5.156  15.186  0.0267 -0.0056  1.3845
 9482TIP3    H249938   3.814   5.120  15.098 -0.4224 -0.6090  1.0296
 9483TIP3   OH249939   2.850   5.871  11.618 -0.3235  0.0838 -0.5468
 9483TIP3    H149940   2.798   5.872  11.537 -2.1138  1.6923  0.5687
 9483TIP3    H249941   2.898   5.953  11.616  0.5976 -0.4494 -0.5561
 9484TIP3   OH249942   0.049   1.244  14.235 -0.2501 -0.3115  0.2265
 9484TIP3    H149943   0.100   1.203  14.166 -0.9236 -0.2803 -0.2890
 9484TIP3    H249944   0.062   1.188  14.312 -0.3815 -0.9485 -0.2152
 9485TIP3   OH249945   4.509   2.237  16.301 -0.1597 -0.2660 -0.0366
 9485TIP3    H149946   4.447   2.306  16.323  0.5386  0.7831 -1.3258
 9485TIP3    H249947   4.500   2.225  16.207  3.7884  2.1218 -0.8338
 9486TIP3   OH249948   1.045   3.065   3.684 -0.4491 -0.5258  0.7143
 9486TIP3    H149949   1.036   3.160   3.682 -1.6138 -0.6466 -1.3651
 9486TIP3    H249950   1.139   3.050   3.697  0.3674  0.9793 -2.8165
 9487TIP3   OH249951   4.787   2.994  16.341 -0.0095 -0.6856  0.4457
 9487TIP3    H149952   4.861   3.052  16.326 -2.3883  1.9634 -1.5331
 9487TIP3    H249953   4.770   2.953  16.256 -1.0476 -0.9665  0.7784
 9488TIP3   OH249954   5.359   2.285  11.271  0.2403  0.3102  0.3064
 9488TIP3    H149955   5.353   2.375  11.238 -2.2134  0.4433  1.0212
 9488TIP3    H249956   5.445   2.255  11.243  1.2741  3.0363  0.4634
 9489TIP3   OH249957   6.663   3.777   0.640 -0.3586  0.0421  0.6169
 9489TIP3    H149958   6.570   3.755   0.636 -0.8246  2.1960 -1.3968
 9489TIP3    H249959   6.688   3.794   0.549  1.5787  1.1394  1.3274
 9490TIP3   OH249960   0.904   3.453  11.035  0.0758 -0.2975 -0.0209
 9490TIP3    H149961   0.973   3.515  11.010 -0.4306  0.4126  0.3098
 9490TIP3    H249962   0.915   3.379  10.976  0.9240 -0.0476 -0.1816
 9491TIP3   OH249963   2.389   5.792   0.524 -0.1637 -0.4183  0.2823
 9491TIP3    H149964   2.342   5.712   0.500 -1.2683  0.2882  0.0764
 9491TIP3    H249965   2.369   5.804   0.617 -0.4176 -0.1125  0.1912
 9492TIP3   OH249966   1.292   6.301  13.762 -0.1605  0.0163 -0.0934
 9492TIP3    H149967   1.224   6.287  13.696  0.7692 -2.0583 -0.6326
 9492TIP3    H249968   1.367   6.335  13.712 -0.0070  0.0406  0.1518
 9493TIP3   OH249969   3.348   5.328  11.532  0.5694 -0.2252 -0.0441
 9493TIP3    H149970   3.262   5.352  11.497 -0.8752 -0.8351  2.9409
 9493TIP3    H249971   3.387   5.275  11.462 -1.9704 -0.9594 -1.0012
 9494TIP3   OH249972   4.525   1.867  12.800  0.5147  0.5482 -0.1516
 9494TIP3    H149973   4.615   1.897  12.786  0.6958  0.6231  1.0926
 9494TIP3    H249974   4.499   1.829  12.716  1.6540  0.6694 -0.5715
 9495TIP3   OH249975   0.793   2.079   6.436  0.7165  0.1432 -0.0392
 9495TIP3    H149976   0.747   2.000   6.463 -0.8194  1.2531  0.6448
 9495TIP3    H249977   0.819   2.062   6.346  1.9900 -1.8440  0.6657
 9496TIP3   OH249978   1.846   3.327   4.812 -0.4320 -0.2069  0.0291
 9496TIP3    H149979   1.785   3.258   4.840  0.2421 -0.9104 -0.2241
 9496TIP3    H249980   1.892   3.290   4.737  0.5034  0.2138  0.3876
 9497TIP3   OH249981   5.698   2.135   5.638 -0.4124 -0.6408  0.3380
 9497TIP3    H149982   5.682   2.042   5.655  0.9347 -0.6489  1.6989
 9497TIP3    H249983   5.689   2.144   5.543 -1.3329 -2.0006  0.2868
 9498TIP3   OH249984   5.966   4.004   4.007 -0.5620  0.1299  0.3269
 9498TIP3    H149985   5.965   4.097   4.031 -1.1613  0.4044 -0.7394
 9498TIP3    H249986   5.990   4.003   3.915  1.0060 -0.8834  0.7200
 9499TIP3   OH249987   6.644   5.700  11.094  0.1385 -0.4570 -0.6211
 9499TIP3    H149988   6.632   5.774  11.154 -0.9358  0.7143 -2.2661
 9499TIP3    H249989   6.710   5.730  11.032 -1.3845 -0.3118 -2.1875
 9500TIP3   OH249990   1.931   5.355   3.361 -0.6862 -0.0548 -0.1798
 9500TIP3    H149991   1.837   5.376   3.353 -1.2742 -1.5439  2.4308
 9500TIP3    H249992   1.933   5.262   3.382  1.5110 -0.4790 -2.0777
 9501TIP3   OH249993   3.215   4.380   4.941  0.5774  0.3158  0.0345
 9501TIP3    H149994   3.169   4.332   4.873  0.2707  0.0137  0.4516
 9501TIP3    H249995   3.279   4.318   4.977  2.4470  1.2359 -1.6424
 9502TIP3   OH249996   2.314   0.472  11.071 -0.2027  0.6165  0.9478
 9502TIP3    H149997   2.372   0.397  11.086 -2.4401 -1.4576 -0.4593
 9502TIP3    H249998   2.357   0.522  11.001 -0.7888 -1.6988 -1.1202
 9503TIP3   OH249999   6.376   4.791  12.175  0.2331 -0.2024 -0.5844
 9503TIP3    H150000   6.335   4.875  12.193 -0.2132 -0.1393 -1.8202
 9503TIP3    H250001   6.439   4.810  12.105  0.8726 -0.6967 -0.1487
 9504TIP3   OH250002   4.998   1.329  14.926  1.0837  0.3155  0.6192
 9504TIP3    H150003   4.953   1.403  14.967  0.0860  0.4386 -0.6628
 9504TIP3    H250004   4.928   1.268  14.901  1.5506  0.6091 -1.5816
 9505TIP3   OH250005   2.882   0.690   2.347  0.6034  0.6913  0.1552
 9505TIP3    H150006   2.876   0.785   2.358 -0.4683  0.4396  1.9321
 9505TIP3    H250007   2.794   0.663   2.320  0.9417  0.2086 -0.4902
 9506TIP3   OH250008   3.933   3.380   5.255  0.0088 -0.4490  0.1153
 9506TIP3    H150009   3.975   3.376   5.341  1.1162  0.1478 -0.3930
 9506TIP3    H250010   3.946   3.470   5.226 -1.9327 -0.1511  0.0863
 9507TIP3   OH250011   6.527   0.068  17.071 -0.5250 -0.0613 -0.0574
 9507TIP3    H150012   6.445   0.117  17.079 -0.6194 -0.0485 -1.0691
 9507TIP3    H250013   6.537   0.025  17.156 -0.3344  1.8613  0.9170
 9508TIP3   OH250014   5.606   6.820   1.004  0.5031  0.4495  0.4068
 9508TIP3    H150015   5.618   6.740   0.953  0.0870  0.4002  0.3863
 9508TIP3    H250016   5.660   6.807   1.082 -1.7340 -1.0392  1.7688
 9509TIP3   OH250017   5.222   1.122   5.939  0.0613 -0.3162 -0.1297
 9509TIP3    H150018   5.149   1.183   5.924  1.5971  1.1935 -1.6514
 9509TIP3    H250019   5.283   1.172   5.994  0.6716 -1.0193 -0.1727
 9510TIP3   OH250020   4.308   5.133   4.455 -0.0029 -0.8299  0.5585
 9510TIP3    H150021   4.276   5.051   4.419  1.6701 -1.6186  0.8200
 9510TIP3    H250022   4.380   5.107   4.514  0.8034  0.8292  0.3376
 9511TIP3   OH250023   6.054   1.790   5.008 -0.6879  0.5379 -0.2057
 9511TIP3    H150024   6.010   1.835   4.937  0.8259  2.1107 -0.1862
 9511TIP3    H250025   6.085   1.709   4.970 -2.7491 -0.1641 -0.4538
 9512TIP3   OH250026   6.215   0.233  10.872 -0.1366 -0.7421 -0.0616
 9512TIP3    H150027   6.262   0.157  10.906 -2.3438 -1.6879  1.0372
 9512TIP3    H250028   6.201   0.213  10.780  0.1787 -1.2246 -0.0070
 9513TIP3   OH250029   5.962   2.339   3.307 -0.1347  0.2499 -0.0623
 9513TIP3    H150030   6.057   2.329   3.303 -0.2478 -1.2043  0.4926
 9513TIP3    H250031   5.937   2.367   3.219  0.8137  0.7417 -0.1782
 9514TIP3   OH250032   6.409   1.473   2.592 -0.0854 -0.3615 -0.5190
 9514TIP3    H150033   6.391   1.468   2.498 -0.9933  0.3192 -0.3912
 9514TIP3    H250034   6.352   1.543   2.624 -0.1650 -0.9255  0.6248
 9515TIP3   OH250035   2.933   0.693  16.713  0.3284  0.2457  0.4558
 9515TIP3    H150036   3.026   0.710  16.723  0.6115 -0.9212 -0.1897
 9515TIP3    H250037   2.900   0.768  16.664  1.4296 -0.6827 -1.7285
 9516TIP3   OH250038   6.001   0.742  13.329 -0.4498 -0.8255 -0.5765
 9516TIP3    H150039   6.028   0.825  13.289  2.0894 -1.1576  0.3322
 9516TIP3    H250040   6.072   0.682  13.308 -0.3225 -1.6871  2.1641
 9517TIP3   OH250041   4.379   1.220   6.272  0.1662  0.6305 -0.0317
 9517TIP3    H150042   4.342   1.295   6.318 -1.0584  0.9368 -1.4620
 9517TIP3    H250043   4.332   1.144   6.307 -0.9472  0.8887 -0.9301
 9518TIP3   OH250044   1.693   2.584  15.091  0.3650  0.7186 -0.3134
 9518TIP3    H150045   1.689   2.594  15.186 -1.5295 -0.6781 -0.2218
 9518TIP3    H250046   1.780   2.550  15.074  1.0357  1.8054  0.8231
 9519TIP3   OH250047   3.602   5.524  15.727 -0.8001  0.1649 -0.0334
 9519TIP3    H150048   3.605   5.480  15.643  0.1533  1.3710 -0.6499
 9519TIP3    H250049   3.683   5.575  15.731 -1.3480  0.9992  1.1182
 9520TIP3   OH250050   5.692   2.320   2.510  0.5183  0.1911  0.3289
 9520TIP3    H150051   5.678   2.300   2.417  3.3490 -0.4574 -0.0140
 9520TIP3    H250052   5.707   2.235   2.551 -1.2066  0.4311  1.5130
 9521TIP3   OH250053   5.380   4.211   2.312  0.0979 -0.4509  0.1494
 9521TIP3    H150054   5.397   4.288   2.257 -1.3257  0.0185  0.3441
 9521TIP3    H250055   5.409   4.237   2.399 -0.4979 -0.0766  0.2412
 9522TIP3   OH250056   6.338   6.693   1.034 -0.4396  0.5891  0.0274
 9522TIP3    H150057   6.272   6.763   1.031  0.5577  1.6646  2.0860
 9522TIP3    H250058   6.417   6.735   1.068  0.4407 -1.3396  0.4620
 9523TIP3   OH250059   3.907   2.301  15.276  0.6885  0.3984  0.3126
 9523TIP3    H150060   3.926   2.387  15.315 -0.4491  0.2761  1.1577
 9523TIP3    H250061   3.951   2.239  15.334  0.4566  0.3282  0.4123
 9524TIP3   OH250062   0.413   4.139  16.071  0.2530  0.3400  0.2338
 9524TIP3    H150063   0.325   4.105  16.053  1.0887 -0.9264 -1.6630
 9524TIP3    H250064   0.402   4.233  16.076 -0.8708  0.4106 -2.5015
 9525TIP3   OH250065   3.181   5.958  15.663  0.2698 -0.0777 -0.2907
 9525TIP3    H150066   3.168   5.947  15.569  0.6203 -1.6307 -0.1722
 9525TIP3    H250067   3.146   5.878  15.702 -0.9685  1.0793  1.0117
 9526TIP3   OH250068   2.526   0.541   1.746  1.2277  0.3296  0.3684
 9526TIP3    H150069   2.536   0.464   1.689  0.2414  0.7586 -0.4065
 9526TIP3    H250070   2.482   0.606   1.691  1.0110  1.0484  1.3722
 9527TIP3   OH250071   2.578   3.442   3.976  0.0561  0.5775  0.7862
 9527TIP3    H150072   2.618   3.497   3.909 -1.5151  0.3438 -0.3938
 9527TIP3    H250073   2.644   3.377   3.996  0.1049 -0.1475 -1.5206
 9528TIP3   OH250074   2.652   0.630  14.494 -0.5726  0.3437 -0.1198
 9528TIP3    H150075   2.623   0.553  14.446  0.5805 -0.1800 -0.0129
 9528TIP3    H250076   2.690   0.687  14.427  1.0550 -0.3961  0.1349
 9529TIP3   OH250077   2.736   1.448  15.531 -0.1032  0.2239  0.8661
 9529TIP3    H150078   2.703   1.500  15.605  0.5618 -0.6314  1.7780
 9529TIP3    H250079   2.672   1.378  15.520  1.1141 -1.1266  2.2919
 9530TIP3   OH250080   1.540   5.407  16.087 -0.3912 -0.0687  0.2541
 9530TIP3    H150081   1.497   5.332  16.127  0.3309 -0.2050  0.7822
 9530TIP3    H250082   1.615   5.370  16.040 -1.6034  0.0169 -1.7810
 9531TIP3   OH250083   3.005   2.191  10.705  0.5110 -0.2763 -0.0592
 9531TIP3    H150084   2.948   2.132  10.656  0.3807 -0.1513 -0.0573
 9531TIP3    H250085   3.088   2.190  10.657  1.0890 -1.8292  0.9166
 9532TIP3   OH250086   1.148   2.565  17.150  0.2473  0.7833 -0.2212
 9532TIP3    H150087   1.159   2.565  17.245  0.7393 -2.0141 -0.2164
 9532TIP3    H250088   1.073   2.621  17.133  0.9023  2.2675  1.7107
 9533TIP3   OH250089   4.147   4.967   4.219 -0.5929 -0.4013 -0.6879
 9533TIP3    H150090   4.114   4.968   4.129  0.9144 -0.1617 -1.2610
 9533TIP3    H250091   4.094   4.901   4.264 -2.6405  0.8357 -1.2336
 9534TIP3   OH250092   2.475   5.496   4.299  0.4436  0.0000 -0.7906
 9534TIP3    H150093   2.484   5.468   4.390  2.0616  2.7334 -0.0355
 9534TIP3    H250094   2.554   5.463   4.256  0.1132 -0.5201 -1.0057
 9535TIP3   OH250095   5.885   4.164  16.429  0.2458 -0.5133 -0.6669
 9535TIP3    H150096   5.971   4.199  16.406 -0.3286 -0.0167 -2.1388
 9535TIP3    H250097   5.898   4.121  16.514  2.3747 -2.1101 -1.7584
 9536TIP3   OH250098   1.009   3.998  13.818 -0.3796  0.3870 -0.1956
 9536TIP3    H150099   0.961   3.975  13.738  0.2538 -0.4229 -0.3480
 9536TIP3    H250100   0.941   4.030  13.878 -1.1692 -1.0666 -0.2888
 9537TIP3   OH250101   5.086   6.778   3.609 -0.0287 -0.3445  0.0921
 9537TIP3    H150102   5.122   6.864   3.586  0.5956 -0.7379 -0.4296
 9537TIP3    H250103   5.089   6.728   3.527  0.4509 -1.1482  0.5972
 9538TIP3   OH250104   2.121   0.682  12.277  0.6026 -0.0721 -0.4562
 9538TIP3    H150105   2.059   0.747  12.244  1.3700  1.3536  0.8802
 9538TIP3    H250106   2.193   0.682  12.214  0.8435  0.7601 -0.1845
 9539TIP3   OH250107   4.060   0.852   3.965 -0.1807  0.5452 -0.6532
 9539TIP3    H150108   4.020   0.784   4.020 -0.6958 -0.5457 -2.3350
 9539TIP3    H250109   4.135   0.809   3.924 -0.9483  0.7545 -2.3022
 9540TIP3   OH250110   0.105   4.709   2.491  0.0318  0.1332  0.9966
 9540TIP3    H150111   0.097   4.803   2.501  1.0174  0.4382 -0.7498
 9540TIP3    H250112   0.025   4.683   2.444 -0.5783 -0.0147  2.1119
 9541TIP3   OH250113   6.189   5.658   1.483  0.2490 -0.5139 -0.3776
 9541TIP3    H150114   6.165   5.703   1.564  2.1165 -0.4795  0.1634
 9541TIP3    H250115   6.119   5.594   1.470 -2.0302  1.9330 -0.7191
 9542TIP3   OH250116   2.896   2.503   0.398  0.4601 -0.4041  0.0974
 9542TIP3    H150117   2.836   2.497   0.324  1.5102 -0.5286 -0.7562
 9542TIP3    H250118   2.860   2.442   0.463 -0.9453  0.3576  0.0441
 9543TIP3   OH250119   0.770   6.597   0.485 -0.2917  0.0599  0.1242
 9543TIP3    H150120   0.863   6.612   0.470 -0.0918 -0.4629  0.8119
 9543TIP3    H250121   0.762   6.592   0.581 -1.1243  0.7641  0.1031
 9544TIP3   OH250122   0.605   4.508  12.895 -0.7300  0.1713  0.1669
 9544TIP3    H150123   0.620   4.573  12.964  0.1189  0.1426  0.0123
 9544TIP3    H250124   0.692   4.489  12.860 -1.0081 -0.7763 -0.0375
 9545TIP3   OH250125   2.883   4.133  14.247 -0.3616  0.2871 -0.4335
 9545TIP3    H150126   2.818   4.101  14.184 -2.0668  0.0350  1.4066
 9545TIP3    H250127   2.873   4.228  14.245 -0.9620  0.2402 -0.0107
 9546TIP3   OH250128   1.458   6.436  14.227  0.5738  0.4282 -0.4244
 9546TIP3    H150129   1.527   6.485  14.181  0.1535  0.2112 -1.3035
 9546TIP3    H250130   1.397   6.411  14.158 -0.1499  0.2166  0.2851
 9547TIP3   OH250131   4.062   2.545  16.652  0.7559 -0.5754  0.0327
 9547TIP3    H150132   3.985   2.522  16.601  1.2940 -2.1906 -0.0840
 9547TIP3    H250133   4.112   2.604  16.596 -0.2913  0.3313  0.0377
 9548TIP3   OH250134   3.665   2.068  14.041 -0.4722 -0.3345 -0.1066
 9548TIP3    H150135   3.702   2.019  14.114 -2.2041 -0.3210  0.8110
 9548TIP3    H250136   3.726   2.141  14.028  0.3302 -0.8470  0.7194
 9549TIP3   OH250137   5.003   6.633  11.913 -0.6961 -0.3233  0.3112
 9549TIP3    H150138   4.954   6.690  11.973 -1.7777 -0.7861 -0.1072
 9549TIP3    H250139   4.939   6.568  11.885 -0.6559  0.7384 -2.4698
 9550TIP3   OH250140   3.286   5.019   5.532  0.1609 -0.5630 -0.4070
 9550TIP3    H150141   3.287   5.017   5.628 -0.4310  0.0764 -0.3837
 9550TIP3    H250142   3.251   5.105   5.511 -0.0144 -0.8312 -1.2032
 9551TIP3   OH250143   6.054   5.391   2.003  0.0110 -0.4908  0.1622
 9551TIP3    H150144   5.963   5.373   2.027 -0.0425 -1.2280 -0.5591
 9551TIP3    H250145   6.104   5.366   2.080 -0.3658 -0.4740  0.4142
 9552TIP3   OH250146   5.525   2.046  16.749  0.2703  0.1382 -0.7007
 9552TIP3    H150147   5.587   2.119  16.760 -1.3629  1.2877  1.2017
 9552TIP3    H250148   5.461   2.078  16.685 -0.9769  0.7794  0.8295
 9553TIP3   OH250149   0.667   2.242   1.622 -0.1444  0.1149  0.1610
 9553TIP3    H150150   0.592   2.183   1.610  0.6232 -0.7084 -0.6414
 9553TIP3    H250151   0.742   2.191   1.593  0.5221  1.5116 -0.6154
 9554TIP3   OH250152   5.904   4.704   4.833  0.9740  0.3121  0.4340
 9554TIP3    H150153   5.832   4.701   4.770  0.3289  0.9443  1.1343
 9554TIP3    H250154   5.861   4.716   4.918  1.9946  2.8477  0.6327
 9555TIP3   OH250155   1.388   5.260   3.332  0.2438 -0.3968  0.0793
 9555TIP3    H150156   1.375   5.355   3.327 -0.0101 -0.5379 -2.9600
 9555TIP3    H250157   1.477   5.249   3.364  0.9339  0.9128 -1.3310
 9556TIP3   OH250158   4.565   3.198   5.365  0.7230 -0.6050  0.2394
 9556TIP3    H150159   4.506   3.211   5.290  1.3713 -1.6604 -0.4599
 9556TIP3    H250160   4.506   3.178   5.438 -0.1087  3.0430  0.6623
 9557TIP3   OH250161   4.224   2.993   2.145 -0.3614  0.2745 -0.7746
 9557TIP3    H150162   4.240   3.033   2.230 -1.0323  1.4666 -1.1935
 9557TIP3    H250163   4.205   2.902   2.164  0.0307  0.4184  0.3056
 9558TIP3   OH250164   0.052   4.439   0.657  0.5784  0.3986  0.2247
 9558TIP3    H150165   0.074   4.528   0.629  0.7082  0.8824  1.8117
 9558TIP3    H250166   0.020   4.396   0.578 -1.6503  2.5372 -0.0880
 9559TIP3   OH250167   2.433   4.425   6.146  0.2881  0.2784 -0.0819
 9559TIP3    H150168   2.482   4.482   6.205  0.3995 -1.2494  1.3350
 9559TIP3    H250169   2.392   4.360   6.203 -0.9111 -0.2892 -1.5383
 9560TIP3   OH250170   5.114   4.475   5.096  0.1088 -0.7601 -0.3021
 9560TIP3    H150171   5.141   4.383   5.103 -0.3520 -1.0026 -1.5437
 9560TIP3    H250172   5.034   4.480   5.148  0.1484 -1.0594 -0.2079
 9561TIP3   OH250173   4.290   5.308  11.513 -0.0271 -0.6182  0.1670
 9561TIP3    H150174   4.195   5.306  11.512 -0.0087 -1.8310  0.5689
 9561TIP3    H250175   4.316   5.230  11.561  1.1392  0.9222  2.1321
 9562TIP3   OH250176   6.302   5.319   4.960 -0.2372  0.9993  0.3065
 9562TIP3    H150177   6.297   5.373   4.881 -0.1816 -0.4250 -0.7111
 9562TIP3    H250178   6.394   5.293   4.965 -0.9635 -2.2709 -1.5573
 9563TIP3   OH250179   3.010   0.966   6.160 -0.1419 -0.2189 -0.2857
 9563TIP3    H150180   3.075   0.905   6.195  1.4550  2.1721  1.0317
 9563TIP3    H250181   3.025   0.966   6.065  1.8980  0.3957  0.0156
 9564TIP3   OH250182   1.350   6.726   0.762 -0.6611 -0.0453  0.0432
 9564TIP3    H150183   1.432   6.720   0.810  0.0832  0.9129 -1.0791
 9564TIP3    H250184   1.284   6.693   0.823  0.5071 -0.5397  1.0595
 9565TIP3   OH250185   2.354   4.144   1.736 -0.5843 -0.8233 -0.5225
 9565TIP3    H150186   2.266   4.145   1.699 -0.2620  1.8153 -1.3497
 9565TIP3    H250187   2.354   4.215   1.801  0.4172 -1.9703  0.7720
 9566TIP3   OH250188   5.675   2.894   5.471 -0.2361 -0.3110 -0.1093
 9566TIP3    H150189   5.613   2.821   5.475  0.7881 -1.3640 -2.3903
 9566TIP3    H250190   5.657   2.935   5.386  0.6493  0.7937  0.2221
 9567TIP3   OH250191   3.092   3.382   5.454  0.1932  0.7633 -0.1537
 9567TIP3    H150192   3.167   3.434   5.482  2.2699 -2.0640 -0.1816
 9567TIP3    H250193   3.068   3.331   5.531 -0.9695  0.8027 -0.4809
 9568TIP3   OH250194   0.866   3.730   4.273 -0.1192  0.2562  0.3408
 9568TIP3    H150195   0.925   3.786   4.222  0.0714  0.8416  1.1983
 9568TIP3    H250196   0.873   3.644   4.231  0.5399  0.5737 -0.2132
 9569TIP3   OH250197   0.471   6.128  12.660 -0.5512 -0.2764  0.6086
 9569TIP3    H150198   0.377   6.145  12.662 -0.3240  1.0020  0.9935
 9569TIP3    H250199   0.511   6.215  12.663  0.6549 -0.8478  1.5787
 9570TIP3   OH250200   5.498   4.903  14.606  0.1218 -0.1420  1.1032
 9570TIP3    H150201   5.441   4.850  14.551  1.7483 -0.9509  0.1399
 9570TIP3    H250202   5.525   4.976  14.550  1.9198 -1.0617  0.7195
 9571TIP3   OH250203   2.377   4.133  12.075 -0.0547 -0.7963  0.0798
 9571TIP3    H150204   2.413   4.219  12.097 -1.2639 -0.4349  0.6760
 9571TIP3    H250205   2.443   4.071  12.106 -0.2223 -0.1651  1.7971
 9572TIP3   OH250206   4.529   4.239   3.733 -0.1978 -0.3173 -0.2354
 9572TIP3    H150207   4.543   4.331   3.710 -1.8245 -0.9668 -4.2469
 9572TIP3    H250208   4.448   4.240   3.785 -0.3452  0.5043 -0.4604
 9573TIP3   OH250209   5.397   5.686   3.382 -0.3766 -0.0766 -0.2677
 9573TIP3    H150210   5.415   5.613   3.323 -1.3553 -0.3063 -0.2965
 9573TIP3    H250211   5.302   5.694   3.381 -0.2076  1.8562 -1.0410
 9574TIP3   OH250212   0.874   6.316   1.487 -0.7139  0.9340  0.0727
 9574TIP3    H150213   0.894   6.409   1.491 -1.3853  1.1193 -0.8317
 9574TIP3    H250214   0.813   6.307   1.414 -0.0230 -0.3300 -0.3730
 9575TIP3   OH250215   2.090   1.399   6.332 -0.4757 -0.1867 -0.3930
 9575TIP3    H150216   2.009   1.354   6.357  0.1303 -0.4485  1.2115
 9575TIP3    H250217   2.061   1.482   6.295 -1.4640  0.2161  1.2198
 9576TIP3   OH250218   4.054   3.683   0.890 -0.4870 -0.3653 -0.1644
 9576TIP3    H150219   4.015   3.627   0.823 -0.6226  0.2250 -0.5805
 9576TIP3    H250220   4.133   3.718   0.848 -0.3608 -0.3098  0.1202
 9577TIP3   OH250221   2.865   2.849   4.184 -0.3668 -0.1494 -0.6517
 9577TIP3    H150222   2.919   2.863   4.106  0.7277 -1.7602 -0.2086
 9577TIP3    H250223   2.779   2.825   4.150 -0.0150 -0.4093 -1.3633
 9578TIP3   OH250224   2.967   0.002   2.825 -0.3608 -0.5625  0.5294
 9578TIP3    H150225   2.910   0.037   2.756 -1.5657 -0.3514  1.6201
 9578TIP3    H250226   2.927   0.032   2.907  1.0894 -0.7615  1.3244
 9579TIP3   OH250227   1.652   2.234   3.816 -0.2096 -0.0135  0.2137
 9579TIP3    H150228   1.592   2.260   3.885 -0.5053  0.6675 -0.2966
 9579TIP3    H250229   1.666   2.140   3.830  1.7932  0.6310  2.7533
 9580TIP3   OH250230   3.606   1.741  12.607 -0.0601 -0.2618 -0.1369
 9580TIP3    H150231   3.648   1.774  12.527  0.8315 -0.0836  0.3975
 9580TIP3    H250232   3.677   1.700  12.657 -0.9150 -1.8423 -0.1800
 9581TIP3   OH250233   0.827   5.728  15.468 -0.5711 -0.7241  0.1536
 9581TIP3    H150234   0.914   5.764  15.448 -1.0472  0.2819 -0.1443
 9581TIP3    H250235   0.834   5.697  15.558 -0.1845  0.2186  0.4526
 9582TIP3   OH250236   3.894   3.081  16.349  0.3431  0.0071  0.1532
 9582TIP3    H150237   3.825   3.043  16.403  0.0010 -0.5354 -0.6505
 9582TIP3    H250238   3.963   3.106  16.411 -1.3557  2.2972  1.1475
 9583TIP3   OH250239   3.898   3.270   1.451  0.2872 -0.6384 -0.0230
 9583TIP3    H150240   3.853   3.319   1.383 -1.2010  2.5343  3.0720
 9583TIP3    H250241   3.847   3.189   1.462 -1.7790  0.6415  0.0144
 9584TIP3   OH250242   0.078   3.060   3.437 -0.3706 -0.1348  0.0034
 9584TIP3    H150243   0.014   3.038   3.505 -1.2083  0.5282 -0.5577
 9584TIP3    H250244   0.052   3.147   3.407  1.0054  0.2872  0.0017
 9585TIP3   OH250245   0.728   6.254   5.518  0.3293 -0.3122  0.4498
 9585TIP3    H150246   0.795   6.246   5.585 -0.1034  1.8743  1.1807
 9585TIP3    H250247   0.763   6.205   5.443  1.4277 -1.6147  1.7689
 9586TIP3   OH250248   0.687   5.910   5.562 -0.4880  0.2493  0.2809
 9586TIP3    H150249   0.634   5.971   5.510 -1.2187 -0.0313  0.6837
 9586TIP3    H250250   0.664   5.824   5.529 -0.5338  0.1056  0.6884
 9587TIP3   OH250251   5.402   6.122   4.230  0.0989  0.2115 -0.7136
 9587TIP3    H150252   5.396   6.034   4.193  0.7514 -0.9649  1.8537
 9587TIP3    H250253   5.454   6.111   4.309 -1.2876  2.5982  0.5900
 9588TIP3   OH250254   4.441   1.877  13.367  0.4381  0.4634 -0.7978
 9588TIP3    H150255   4.420   1.965  13.398  0.5540 -0.2681  1.5286
 9588TIP3    H250256   4.383   1.820  13.418 -0.0324 -0.7688 -2.6797
 9589TIP3   OH250257   0.143   5.649   0.935  0.2153 -0.4868 -0.3439
 9589TIP3    H150258   0.132   5.613   1.023  0.2988  2.3816  0.9125
 9589TIP3    H250259   0.095   5.590   0.878 -1.5154 -1.3126  1.9000
 9590TIP3   OH250260   1.015   6.486   0.711  0.7057  0.0040  0.0465
 9590TIP3    H150261   0.927   6.503   0.745  0.0418 -2.1998 -0.4737
 9590TIP3    H250262   1.036   6.565   0.660 -2.2077 -0.6074 -2.2943
 9591TIP3   OH250263   1.806   4.293  11.210  0.5907  0.2979 -0.2633
 9591TIP3    H150264   1.844   4.317  11.126  1.9225  0.2993  0.3219
 9591TIP3    H250265   1.877   4.252  11.258 -0.6952 -1.5108  0.1356
 9592TIP3   OH250266   5.001   1.794  14.002  0.2848 -0.2017  0.1182
 9592TIP3    H150267   5.091   1.796  14.035  0.7030 -0.3703 -0.9809
 9592TIP3    H250268   5.001   1.725  13.935 -0.7792 -0.5332  0.4498
 9593TIP3   OH250269   3.146   0.723  10.762  0.6029  0.2540  0.0041
 9593TIP3    H150270   3.232   0.741  10.723  1.2739 -0.3026  1.1810
 9593TIP3    H250271   3.128   0.632  10.738  1.0110 -0.0847  0.9561
 9594TIP3   OH250272   4.957   0.930   0.224  0.2011  0.3783 -0.0774
 9594TIP3    H150273   4.912   1.004   0.263 -2.1586 -0.3858 -1.2893
 9594TIP3    H250274   4.971   0.956   0.133 -0.8926 -0.7725 -0.5771
 9595TIP3   OH250275   0.635   3.827  12.626  0.1350  0.3048  1.1197
 9595TIP3    H150276   0.697   3.800  12.559 -0.3456 -0.4555  0.9674
 9595TIP3    H250277   0.556   3.852  12.578 -0.6320 -1.4086  1.4556
 9596TIP3   OH250278   5.581   5.737  12.098  0.2686  0.6377  0.3665
 9596TIP3    H150279   5.618   5.721  12.184 -0.9721 -0.4139  0.7266
 9596TIP3    H250280   5.566   5.650  12.061  0.4378  1.0710 -0.7644
 9597TIP3   OH250281   0.952   3.996   4.658 -0.1422 -0.4843  0.1601
 9597TIP3    H150282   0.912   3.918   4.620 -1.4641  0.8765 -1.3301
 9597TIP3    H250283   0.977   4.049   4.583 -1.4900  1.6158  1.1582
 9598TIP3   OH250284   2.791   2.456  12.616 -0.2082  0.2852  0.1931
 9598TIP3    H150285   2.842   2.422  12.689 -2.2163 -0.4585  1.3023
 9598TIP3    H250286   2.740   2.382  12.585 -0.9838  1.1118 -0.5620
 9599TIP3   OH250287   5.976   1.712  16.831 -0.0055  0.0788  0.5259
 9599TIP3    H150288   5.913   1.783  16.846  1.4847  1.2079  1.6436
 9599TIP3    H250289   5.962   1.688  16.739 -1.8493  0.5010  0.6682
 9600TIP3   OH250290   3.984   4.550   3.836 -0.3719 -0.7614 -0.3526
 9600TIP3    H150291   3.939   4.480   3.789 -0.5121 -0.1485 -1.1484
 9600TIP3    H250292   4.077   4.532   3.823 -0.3708 -1.7216  0.8369
 9601TIP3   OH250293   1.971   6.130   4.267  0.3885  0.0366  0.0778
 9601TIP3    H150294   2.013   6.048   4.240  0.0078  0.1066 -0.7454
 9601TIP3    H250295   2.027   6.199   4.233 -0.2277  0.1282 -0.7640
 9602TIP3   OH250296   5.843   2.772  11.580  0.7485 -0.9975 -0.4154
 9602TIP3    H150297   5.861   2.690  11.533  0.6060  0.3257 -2.8742
 9602TIP3    H250298   5.903   2.771  11.654  1.4867 -2.8447 -1.0061
 9603TIP3   OH250299   1.921   6.541  12.016 -0.1107 -0.0820 -0.7243
 9603TIP3    H150300   1.913   6.591  12.097  0.5941 -1.6396  0.3346
 9603TIP3    H250301   1.989   6.587  11.966  0.2320  0.2634  0.0513
 9604TIP3   OH250302   1.930   1.226   2.887 -0.2881  0.3849  0.4957
 9604TIP3    H150303   1.889   1.155   2.937  0.3960  0.6981  1.5198
 9604TIP3    H250304   1.890   1.305   2.923 -0.6760  0.5520 -0.2964
 9605TIP3   OH250305   4.784   2.205   0.009  0.3165  0.3722 -0.3618
 9605TIP3    H150306   4.807   2.188  -0.083 -1.1699  0.7271 -0.8205
 9605TIP3    H250307   4.700   2.161   0.021 -0.2983  1.7239  0.3655
 9606TIP3   OH250308   5.742   2.357  11.181 -0.6503 -0.6628 -0.0018
 9606TIP3    H150309   5.685   2.281  11.169 -0.7006 -0.4107 -1.4299
 9606TIP3    H250310   5.703   2.425  11.127 -0.2890  0.2249  0.8360
 9607TIP3   OH250311   0.446   6.190  11.448  0.0577  0.1876 -0.6053
 9607TIP3    H150312   0.412   6.245  11.518  0.9594  0.1666 -0.1539
 9607TIP3    H250313   0.392   6.212  11.372  0.8693  2.2304 -0.6198
 9608TIP3   OH250314   6.475   0.097  14.666  0.2007  0.0155 -1.2097
 9608TIP3    H150315   6.439   0.055  14.588 -0.2161 -0.4829 -0.7571
 9608TIP3    H250316   6.495   0.186  14.639 -0.4304 -0.0042 -1.7492
 9609TIP3   OH250317   1.327   5.967  15.539 -0.0750 -0.0585  0.1702
 9609TIP3    H150318   1.355   5.890  15.587 -0.0084  0.1591  0.4764
 9609TIP3    H250319   1.407   6.003  15.500  0.1743  0.8859  1.5081
 9610TIP3   OH250320   6.608   3.096   4.351  0.4040 -0.2578  0.1816
 9610TIP3    H150321   6.629   3.188   4.338  0.4107  0.0124  1.9527
 9610TIP3    H250322   6.530   3.081   4.297 -0.5032  1.1953  1.0447
 9611TIP3   OH250323   3.950   1.498  14.948 -0.2690 -0.3368  0.5494
 9611TIP3    H150324   4.007   1.470  15.020 -0.3696  0.4524  0.9391
 9611TIP3    H250325   3.984   1.451  14.872  0.6489 -0.1995  0.8607
 9612TIP3   OH250326   0.598   3.500   5.380  0.4882 -0.0773  0.5522
 9612TIP3    H150327   0.610   3.595   5.375 -1.2771  0.0714 -1.5805
 9612TIP3    H250328   0.575   3.483   5.471  1.1533  1.4800  1.0339
 9613TIP3   OH250329   0.702   0.650   3.301  0.2585  0.3287  0.2624
 9613TIP3    H150330   0.645   0.649   3.379 -1.1858 -0.0931 -0.7685
 9613TIP3    H250331   0.739   0.562   3.298 -0.0600  0.1926  0.2175
 9614TIP3   OH250332   1.908   3.330   2.453  0.1003  0.8287 -0.2092
 9614TIP3    H150333   1.992   3.368   2.478  2.0625 -2.2002 -1.8741
 9614TIP3    H250334   1.912   3.325   2.357 -1.6167 -0.1141 -0.2474
 9615TIP3   OH250335   3.646   5.749   4.482 -0.6559  0.1699 -0.3145
 9615TIP3    H150336   3.603   5.825   4.519  0.0200 -0.5468  2.0208
 9615TIP3    H250337   3.610   5.675   4.531  0.9237 -0.7222 -0.4768
 9616TIP3   OH250338   0.649   5.084   1.530  0.3527 -0.1527  0.0263
 9616TIP3    H150339   0.598   5.009   1.559  0.7646 -0.1120  0.8648
 9616TIP3    H250340   0.740   5.059   1.544  0.4801  0.6351  0.6447
 9617TIP3   OH250341   2.650   2.610   5.328  0.4159  0.2449 -0.1635
 9617TIP3    H150342   2.598   2.689   5.312 -1.3754 -1.3429 -2.5390
 9617TIP3    H250343   2.595   2.557   5.386  0.5307 -0.2877 -0.5375
 9618TIP3   OH250344   2.102   4.900   3.869 -0.0894 -0.0731 -0.6156
 9618TIP3    H150345   2.007   4.886   3.861  0.0627 -0.6867 -1.3678
 9618TIP3    H250346   2.112   4.995   3.871 -0.7616 -0.0080 -0.0088
 9619TIP3   OH250347   5.373   0.336   1.519  0.3595 -0.0249 -0.2032
 9619TIP3    H150348   5.461   0.373   1.513  0.4985 -0.3355 -0.1076
 9619TIP3    H250349   5.369   0.298   1.607  0.4723 -0.8479 -0.5393
 9620TIP3   OH250350   1.887   3.878   6.050  0.2394  0.4061  0.0933
 9620TIP3    H150351   1.960   3.889   6.112  0.0394 -0.6019  0.5103
 9620TIP3    H250352   1.901   3.792   6.012 -0.8783  0.0951  0.3682
 9621TIP3   OH250353   2.001   4.442  12.387  0.0638 -0.3625  0.1147
 9621TIP3    H150354   2.045   4.502  12.447  1.5899 -1.4021  0.0542
 9621TIP3    H250355   2.065   4.373  12.370 -1.0056 -1.0461 -1.2693
 9622TIP3   OH250356   2.453   3.929  17.191  0.5536 -0.2958  0.0048
 9622TIP3    H150357   2.482   4.017  17.215  1.7852 -0.6140 -0.2955
 9622TIP3    H250358   2.533   3.884  17.165 -0.2106 -1.2091 -0.7821
 9623TIP3   OH250359   5.578   4.750   5.141  0.6878  0.6674 -0.1370
 9623TIP3    H150360   5.523   4.807   5.194  1.3805  1.4640 -0.2591
 9623TIP3    H250361   5.537   4.664   5.148 -0.1408  1.0936  0.3755
 9624TIP3   OH250362   6.197   5.128  13.814 -0.0433 -0.9723 -0.3013
 9624TIP3    H150363   6.226   5.071  13.884 -0.8834 -1.9681 -0.7535
 9624TIP3    H250364   6.240   5.095  13.735  1.9446  0.9463 -0.0743
 9625TIP3   OH250365   0.216   0.258  11.437 -0.2808  0.3025  0.5969
 9625TIP3    H150366   0.237   0.219  11.523 -0.6322  0.7583  0.8919
 9625TIP3    H250367   0.283   0.325  11.425  0.0148 -0.0422  0.3273
 9626TIP3   OH250368   3.820   2.932   3.638 -0.1249 -0.5031  0.5043
 9626TIP3    H150369   3.827   2.948   3.733 -1.0325 -2.8273  0.9988
 9626TIP3    H250370   3.906   2.955   3.604  0.7269 -1.1512  2.1473
 9627TIP3   OH250371   3.356   0.052   0.066  0.0612 -0.0877  0.2811
 9627TIP3    H150372   3.367   0.010   0.152  1.6382  1.1399  0.6900
 9627TIP3    H250373   3.331   0.142   0.087  0.2634  0.1619 -0.5549
 9628TIP3   OH250374   4.685   5.638  16.125 -0.4348  0.5643  0.1170
 9628TIP3    H150375   4.621   5.708  16.108 -2.0904 -0.9574 -0.0746
 9628TIP3    H250376   4.640   5.578  16.184  1.1361 -0.1169  0.6386
 9629TIP3   OH250377   2.256   3.919   4.019  0.1804  0.4407  0.1100
 9629TIP3    H150378   2.173   3.911   4.067 -0.0006 -1.9927 -0.5449
 9629TIP3    H250379   2.231   3.959   3.935 -0.5255 -1.0935 -0.4478
 9630TIP3   OH250380   4.958   2.045  14.364 -0.3603 -0.0428 -0.1182
 9630TIP3    H150381   4.924   2.017  14.449  0.2638 -2.0342 -0.5104
 9630TIP3    H250382   4.900   2.117  14.338 -1.8554 -0.8163  1.0116
 9631TIP3   OH250383   3.257   4.654  15.283  0.3621  0.6449 -0.1884
 9631TIP3    H150384   3.207   4.720  15.235  0.9114  1.9382  0.9958
 9631TIP3    H250385   3.325   4.625  15.222  0.6380  1.7836 -0.4209
 9632TIP3   OH250386   6.240   2.324  13.306  1.2435  0.6907 -0.1161
 9632TIP3    H150387   6.205   2.307  13.218 -2.0533  3.1047  0.6510
 9632TIP3    H250388   6.188   2.269  13.364  1.3795  1.3730  0.6555
 9633TIP3   OH250389   1.147   1.224  15.297  0.0686 -0.1121  0.0499
 9633TIP3    H150390   1.072   1.175  15.264  0.2642 -0.3339 -0.0735
 9633TIP3    H250391   1.219   1.200  15.238 -0.3316  1.9859 -1.3270
 9634TIP3   OH250392   5.722   2.801   0.246  0.5256  0.1075 -0.0147
 9634TIP3    H150393   5.733   2.773   0.155  1.2392  0.5687 -0.0763
 9634TIP3    H250394   5.811   2.825   0.274  0.3923 -0.5540  0.9709
 9635TIP3   OH250395   1.511   1.786   2.443 -0.2534  0.9327  0.2251
 9635TIP3    H150396   1.522   1.692   2.430 -1.2961  0.7885  0.3811
 9635TIP3    H250397   1.435   1.794   2.500 -0.9480  1.9104 -0.8187
 9636TIP3   OH250398   4.154   1.493  12.554 -0.3284  0.0220  0.5353
 9636TIP3    H150399   4.237   1.452  12.579 -0.1005  0.9350  1.2906
 9636TIP3    H250400   4.114   1.518  12.637 -0.2852  1.7100  0.0508
 9637TIP3   OH250401   3.564   0.168  11.962  0.4111  0.4422  0.3670
 9637TIP3    H150402   3.587   0.075  11.958  1.3528  0.6402  1.1579
 9637TIP3    H250403   3.638   0.210  12.006  0.6146  1.7836 -1.1963
 9638TIP3   OH250404   3.177   2.959   1.152  0.2698 -0.4769 -0.3350
 9638TIP3    H150405   3.154   2.879   1.103 -0.1922 -0.2731 -0.4548
 9638TIP3    H250406   3.208   3.020   1.085 -0.3466 -0.2038 -0.3789
 9639TIP3   OH250407   3.161   4.607   5.873  0.3975 -0.4300  1.0763
 9639TIP3    H150408   3.091   4.653   5.828 -0.0369 -2.5782 -0.5259
 9639TIP3    H250409   3.117   4.545   5.930  0.9901 -0.1828  1.8206
 9640TIP3   OH250410   0.860   5.159  17.150 -0.1730 -0.7138  0.4477
 9640TIP3    H150411   0.791   5.179  17.087 -1.0914 -1.6520  1.1333
 9640TIP3    H250412   0.814   5.120  17.224  1.2578 -2.8280  0.2571
 9641TIP3   OH250413   3.482   4.182  10.925  0.6993  0.4256 -0.1134
 9641TIP3    H150414   3.532   4.260  10.900  2.0722 -0.6421 -0.7783
 9641TIP3    H250415   3.422   4.167  10.852 -0.3364  1.4689  0.5010
 9642TIP3   OH250416   0.630   3.824   4.755 -0.2728 -0.5398 -0.3471
 9642TIP3    H150417   0.689   3.802   4.683 -0.6057 -3.4615  0.2436
 9642TIP3    H250418   0.645   3.756   4.821 -0.5220  1.6450  2.0483
 9643TIP3   OH250419   2.994   4.980  12.209 -0.2415 -0.3402  0.4412
 9643TIP3    H150420   2.953   5.061  12.178 -1.6993 -0.9795  0.6342
 9643TIP3    H250421   3.079   5.007  12.242  0.7854  0.5740 -2.8015
 9644TIP3   OH250422   5.353   3.975  14.922 -0.1736 -0.3776  0.6798
 9644TIP3    H150423   5.401   3.899  14.956  1.0735  0.1880  0.2187
 9644TIP3    H250424   5.345   4.033  14.998 -0.0898 -0.4570  0.7507
 9645TIP3   OH250425   1.161   2.219   4.318 -0.2138  0.2902 -0.0196
 9645TIP3    H150426   1.127   2.295   4.271  3.2084  0.5328 -2.3029
 9645TIP3    H250427   1.118   2.144   4.276 -0.2880  0.7380 -0.7534
 9646TIP3   OH250428   0.542   4.765  15.649  0.3768 -0.2581  0.2457
 9646TIP3    H150429   0.574   4.833  15.591  0.9194 -0.7729 -0.0689
 9646TIP3    H250430   0.507   4.812  15.725  2.6090  0.2938  0.9626
 9647TIP3   OH250431   6.745   5.858   3.644  0.4679 -0.3376  0.5357
 9647TIP3    H150432   6.743   5.786   3.581  0.9894 -0.6098  0.8305
 9647TIP3    H250433   6.754   5.815   3.729  1.9052  0.1248  0.6239
 9648TIP3   OH250434   2.837   6.642   3.281 -0.5596  0.5939  0.3341
 9648TIP3    H150435   2.930   6.625   3.298 -0.4264  0.8946 -0.0758
 9648TIP3    H250436   2.813   6.580   3.213 -0.6602  0.5069  0.4499
 9649TIP3   OH250437   3.755   5.891   4.903 -0.0842 -0.2002 -0.5633
 9649TIP3    H150438   3.786   5.856   4.987  1.5749 -1.6356 -1.7483
 9649TIP3    H250439   3.663   5.867   4.899  0.0360 -0.8323  0.4805
 9650TIP3   OH250440   2.445   4.204  13.702  0.0717  0.5331 -0.1297
 9650TIP3    H150441   2.427   4.245  13.786  2.4237 -0.6389  1.0156
 9650TIP3    H250442   2.512   4.259  13.662  1.1485 -0.5532  0.1322
 9651TIP3   OH250443   0.984   2.841   3.503  0.6974 -0.4612 -0.3387
 9651TIP3    H150444   0.998   2.903   3.575  2.5606 -1.0570 -0.1609
 9651TIP3    H250445   1.040   2.873   3.433 -2.4462  1.1310 -2.2268
 9652TIP3   OH250446   4.157   2.888   4.589  0.1096 -0.5052  0.8980
 9652TIP3    H150447   4.215   2.814   4.610 -0.2253 -0.4492  2.0747
 9652TIP3    H250448   4.069   2.850   4.590  0.0295 -0.3323  0.3462
 9653TIP3   OH250449   5.495   6.578  16.399 -0.4112  0.3550 -0.3318
 9653TIP3    H150450   5.497   6.663  16.443  0.9922 -1.0916  2.5369
 9653TIP3    H250451   5.582   6.568  16.362 -0.4268 -0.0412 -0.2564
 9654TIP3   OH250452   2.186   6.474   2.063  0.1097  0.0157 -0.0505
 9654TIP3    H150453   2.273   6.514   2.059 -0.0492  0.2873 -0.9460
 9654TIP3    H250454   2.153   6.480   1.973 -1.1949  0.7265  0.4724
 9655TIP3   OH250455   1.365   4.797  12.752 -0.0776 -0.4902  0.0541
 9655TIP3    H150456   1.348   4.708  12.722 -0.9364  0.0194 -1.0138
 9655TIP3    H250457   1.460   4.808  12.743  0.1475 -1.5752  1.0070
 9656TIP3   OH250458   1.459   1.590  17.273  0.6451  0.3664  0.3043
 9656TIP3    H150459   1.526   1.656  17.285  1.7156 -0.9295  1.6294
 9656TIP3    H250460   1.412   1.587  17.356 -0.9059  1.0757 -0.5275
 9657TIP3   OH250461   2.198   5.053   4.889  0.2287  0.0743 -0.1243
 9657TIP3    H150462   2.104   5.037   4.891  0.0030  1.2333 -0.8761
 9657TIP3    H250463   2.225   5.027   4.802  0.6576 -0.5057  0.1792
 9658TIP3   OH250464   3.439   4.555   1.396  0.7943  0.0753 -0.2058
 9658TIP3    H150465   3.390   4.525   1.319 -0.9996 -2.3057  1.7680
 9658TIP3    H250466   3.522   4.507   1.392  0.0609 -1.2714  0.1203
 9659TIP3   OH250467   3.590   6.419  14.537 -0.1835 -0.1797 -0.0073
 9659TIP3    H150468   3.530   6.454  14.471  0.2054 -0.3804 -0.4759
 9659TIP3    H250469   3.573   6.325  14.539  0.0935 -0.2335 -0.1234
 9660TIP3   OH250470   4.151   5.280  16.150 -0.3733  0.9001 -0.1760
 9660TIP3    H150471   4.193   5.202  16.114 -0.9695 -0.1855  1.4300
 9660TIP3    H250472   4.208   5.352  16.124  0.8471 -0.2075 -0.6160
 9661TIP3   OH250473   3.420   2.727   1.972  0.1656  0.0032 -0.2151
 9661TIP3    H150474   3.359   2.729   2.046 -0.0074  0.0710 -0.3611
 9661TIP3    H250475   3.470   2.647   1.985  0.3011  0.1398  0.1102
 9662TIP3   OH250476   0.789   6.255  14.128  0.0151  0.2055 -0.4029
 9662TIP3    H150477   0.791   6.307  14.048 -2.2216  0.1969 -0.5024
 9662TIP3    H250478   0.812   6.316  14.197  0.0125  0.6927 -0.8251
 9663TIP3   OH250479   4.918   4.253   3.217 -0.7853  0.2143 -0.3151
 9663TIP3    H150480   4.856   4.201   3.268  0.0440  0.0107  0.4949
 9663TIP3    H250481   4.941   4.327   3.273  0.9243 -0.5568  0.0450
 9664TIP3   OH250482   0.935   0.441  10.945  0.1059  0.0318  0.4457
 9664TIP3    H150483   0.873   0.512  10.958  0.3744  0.3102  0.2001
 9664TIP3    H250484   1.021   0.481  10.954  0.3023  0.0970 -1.4245
 9665TIP3   OH250485   4.748   0.369   5.773  0.4648 -0.7393  0.0139
 9665TIP3    H150486   4.708   0.380   5.687 -1.4367  0.7882  1.0537
 9665TIP3    H250487   4.831   0.415   5.766 -0.3521  0.6902 -0.5682
 9666TIP3   OH250488   3.321   6.417   2.738  0.3834  0.5894 -0.4314
 9666TIP3    H150489   3.317   6.381   2.826  0.3794  1.1352 -0.2111
 9666TIP3    H250490   3.273   6.500   2.743  0.1055  0.4673 -1.0174
 9667TIP3   OH250491   2.570   1.821   3.419  0.0969 -0.3318 -0.2160
 9667TIP3    H150492   2.643   1.766   3.447 -1.1472 -1.7148  0.3687
 9667TIP3    H250493   2.570   1.894   3.481 -0.0135 -1.1809  0.8086
 9668TIP3   OH250494   4.848   3.823   1.056 -0.4427 -0.4538  0.0494
 9668TIP3    H150495   4.861   3.787   1.144 -0.5639 -2.2672 -0.6530
 9668TIP3    H250496   4.935   3.827   1.017 -0.1548  1.9862  0.8267
 9669TIP3   OH250497   0.155   3.624  14.456  0.5923  0.0159 -0.0987
 9669TIP3    H150498   0.193   3.581  14.533  1.7317  3.9113  1.6263
 9669TIP3    H250499   0.072   3.660  14.488  1.0758  1.6705 -0.6715
 9670TIP3   OH250500   2.088   5.809  16.868 -0.1160  0.4464 -0.8086
 9670TIP3    H150501   2.126   5.812  16.955 -1.0655  1.2411 -0.4068
 9670TIP3    H250502   2.128   5.883  16.821  1.0398 -0.5013 -1.3271
 9671TIP3   OH250503   4.756   3.684  14.377  0.1444 -0.5026 -0.0167
 9671TIP3    H150504   4.688   3.698  14.443  1.9812 -3.1039  2.5270
 9671TIP3    H250505   4.826   3.744  14.402  0.1591 -0.2488 -0.6548
 9672TIP3   OH250506   1.038   2.417  14.937 -0.2590  0.1293 -0.2525
 9672TIP3    H150507   0.978   2.380  14.872 -0.0211  0.2082 -0.5216
 9672TIP3    H250508   1.118   2.435  14.887  0.0247 -0.0857  0.1269
 9673TIP3   OH250509   4.208   3.760  14.743 -0.1952 -0.5459  0.1019
 9673TIP3    H150510   4.216   3.712  14.661  0.4063  0.0540 -0.1955
 9673TIP3    H250511   4.252   3.705  14.808  1.1034 -0.0757 -0.3708
 9674TIP3   OH250512   3.848   5.560  16.627  0.3785 -0.5917 -0.0301
 9674TIP3    H150513   3.794   5.482  16.621 -1.3719  0.6723 -1.3369
 9674TIP3    H250514   3.895   5.562  16.544  2.1324 -1.4373  0.9124
 9675TIP3   OH250515   0.368   4.645  16.893  0.8357 -0.2651  0.3231
 9675TIP3    H150516   0.421   4.669  16.817  0.0428 -0.9155 -0.4535
 9675TIP3    H250517   0.363   4.725  16.945  0.1640  0.6262 -1.0596
 9676TIP3   OH250518   5.536   0.891  11.476 -0.0878 -0.0247 -0.2674
 9676TIP3    H150519   5.442   0.912  11.474  0.3315  2.0164 -0.3294
 9676TIP3    H250520   5.555   0.854  11.390 -0.9353 -0.8841 -0.0854
 9677TIP3   OH250521   3.330   0.652   2.846 -0.1885 -0.3486 -0.0082
 9677TIP3    H150522   3.279   0.668   2.926 -0.0374 -1.1029  0.2362
 9677TIP3    H250523   3.421   0.669   2.872 -0.1057 -0.8883  0.0645
 9678TIP3   OH250524   5.732   0.237  13.475  0.4177  0.8751 -0.9217
 9678TIP3    H150525   5.727   0.278  13.561 -1.8499 -0.5338 -0.3417
 9678TIP3    H250526   5.753   0.145  13.493 -0.4579  0.4852 -1.8310
 9679TIP3   OH250527   2.888   1.086   5.691 -0.0666 -0.2195  0.5908
 9679TIP3    H150528   2.853   1.171   5.717  2.0295  0.7935  0.2214
 9679TIP3    H250529   2.935   1.103   5.609  2.0572 -1.3007  1.5297
 9680TIP3   OH250530   4.588   6.560   6.186 -0.1597 -0.0874  0.0145
 9680TIP3    H150531   4.610   6.556   6.279 -2.2986  0.1268  0.5726
 9680TIP3    H250532   4.550   6.474   6.166 -0.2501  0.0703 -0.5013
 9681TIP3   OH250533   4.800   2.993   6.121  1.3531  0.0763  0.4836
 9681TIP3    H150534   4.858   3.004   6.197  2.5504  1.1070 -0.5477
 9681TIP3    H250535   4.859   3.002   6.045 -0.2013  1.3737 -0.5972
 9682TIP3   OH250536   2.487   4.155  15.876  0.4563 -0.5375 -0.4388
 9682TIP3    H150537   2.480   4.245  15.844 -1.4222 -0.5972 -0.2494
 9682TIP3    H250538   2.576   4.149  15.910  0.9254  0.9546 -1.3219
 9683TIP3   OH250539   3.825   0.570   3.081  0.7051  0.3990 -0.1359
 9683TIP3    H150540   3.818   0.532   3.168  1.6814 -1.3645 -0.8176
 9683TIP3    H250541   3.847   0.497   3.023  1.6721  1.8027 -1.6160
 9684TIP3   OH250542   1.463   6.191   2.542 -0.5055 -0.5534 -0.6041
 9684TIP3    H150543   1.490   6.280   2.517 -1.5507  0.3009  1.2036
 9684TIP3    H250544   1.372   6.184   2.514 -1.0128 -0.3584  0.9524
 9685TIP3   OH250545   4.266   6.701   4.031 -0.4701  0.1341 -0.0571
 9685TIP3    H150546   4.186   6.650   4.022  0.0536 -0.4372 -1.6366
 9685TIP3    H250547   4.248   6.782   3.984  0.4700 -0.7244 -1.9623
 9686TIP3   OH250548   1.024   2.181   6.566  0.0493 -0.4487  0.1516
 9686TIP3    H150549   0.962   2.137   6.508 -0.8010  1.2191 -0.2253
 9686TIP3    H250550   1.093   2.213   6.508  1.9570 -3.3712  0.7084
 9687TIP3   OH250551   2.666   4.946   3.043  0.3010  0.1086 -0.0672
 9687TIP3    H150552   2.703   4.962   3.130 -1.0818  0.7171  0.4214
 9687TIP3    H250553   2.704   5.015   2.988  0.9820 -0.1268  0.1032
 9688TIP3   OH250554   2.240   3.652  13.008 -0.1765 -0.0729 -0.1499
 9688TIP3    H150555   2.330   3.621  13.022  0.0432 -0.1493 -1.6732
 9688TIP3    H250556   2.191   3.573  12.986 -0.4130  0.1034 -0.2574
 9689TIP3   OH250557   6.586   3.113  14.542  0.1328 -0.0293 -0.1055
 9689TIP3    H150558   6.570   3.119  14.448 -1.0052  2.1886  0.1889
 9689TIP3    H250559   6.586   3.019  14.560  1.1040 -0.5085 -2.4282
 9690TIP3   OH250560   1.879   0.385   3.757  0.2724 -0.5599  0.4737
 9690TIP3    H150561   1.946   0.329   3.796  0.2079 -1.1664 -0.2784
 9690TIP3    H250562   1.812   0.324   3.726 -0.7971  0.0661  1.5393
 9691TIP3   OH250563   5.848   5.988   1.124 -0.9365  0.0036 -0.4941
 9691TIP3    H150564   5.761   5.947   1.125 -1.4656  1.0674 -2.2379
 9691TIP3    H250565   5.881   5.974   1.036 -0.2028  1.4407 -0.4595
 9692TIP3   OH250566   5.232   4.963  16.717 -0.1010  0.4762 -0.0983
 9692TIP3    H150567   5.189   4.910  16.649  0.1373  0.4431 -0.2216
 9692TIP3    H250568   5.259   5.043  16.672  0.8957  0.0567 -0.2653
 9693TIP3   OH250569   1.964   0.709  14.894 -0.1574  0.3615  0.7214
 9693TIP3    H150570   2.038   0.678  14.843  0.2505  0.8394  1.0146
 9693TIP3    H250571   1.939   0.635  14.948  0.6102  0.4378  1.1900
 9694TIP3   OH250572   3.870   2.931   2.597  0.0091 -0.1103  0.4827
 9694TIP3    H150573   3.900   2.919   2.507  0.9801  0.1329  0.7707
 9694TIP3    H250574   3.950   2.938   2.649 -0.5326 -0.6460  1.4263
 9695TIP3   OH250575   3.048   4.849  11.260  0.5691 -0.6616  0.5750
 9695TIP3    H150576   3.119   4.859  11.324  0.5897  1.0051  0.2950
 9695TIP3    H250577   3.079   4.780  11.201  1.4157 -0.8090  1.1800
 9696TIP3   OH250578   3.952   6.528   0.444 -0.3630  0.1077 -0.4627
 9696TIP3    H150579   3.975   6.616   0.414  0.9589 -1.1818 -3.3350
 9696TIP3    H250580   4.012   6.470   0.399 -2.1779 -2.4304  0.2643
 9697TIP3   OH250581   5.769   1.159   5.669 -0.3506  0.6009  0.4308
 9697TIP3    H150582   5.714   1.213   5.726 -0.7723 -0.9256  1.4756
 9697TIP3    H250583   5.709   1.125   5.603 -0.2949  0.4625  0.4522
 9698TIP3   OH250584   6.093   2.878  15.016  1.2670  0.3372 -0.3583
 9698TIP3    H150585   6.041   2.957  15.001  0.9805  0.2873  0.3630
 9698TIP3    H250586   6.161   2.905  15.078  0.0006 -0.4481  1.4157
 9699TIP3   OH250587   6.760   4.881  14.431 -0.1948  0.0014 -0.0786
 9699TIP3    H150588   6.796   4.880  14.342  0.3713  0.3274  0.1433
 9699TIP3    H250589   6.695   4.951  14.430  0.3515  0.5193 -0.0339
 9700TIP3   OH250590   3.175   3.786   3.365 -0.8493  0.5554  0.0892
 9700TIP3    H150591   3.202   3.865   3.411 -1.0846  0.1470  0.9347
 9700TIP3    H250592   3.239   3.776   3.295  0.3375  0.4093  1.1782
 9701TIP3   OH250593   0.427   1.468  14.776 -0.3359 -0.7006  0.1778
 9701TIP3    H150594   0.396   1.473  14.686 -1.2165 -0.9507  0.4599
 9701TIP3    H250595   0.480   1.388  14.779 -0.5613 -0.8545 -0.0347
 9702TIP3   OH250596   1.961   6.586  10.610  0.3578  0.2561 -0.3832
 9702TIP3    H150597   1.926   6.499  10.630  2.7650 -0.6516  0.1352
 9702TIP3    H250598   1.932   6.603  10.520 -0.9319 -0.6720 -0.1593
 9703TIP3   OH250599   5.940   2.736  12.835  0.6462  0.0155 -0.4561
 9703TIP3    H150600   5.849   2.739  12.865  0.5433  0.0478 -0.7744
 9703TIP3    H250601   5.988   2.785  12.901  0.7952 -2.0597  1.0279
 9704TIP3   OH250602   4.369   6.018  17.203 -0.2571  0.1100  0.1548
 9704TIP3    H150603   4.398   6.083  17.139  1.0948 -0.8224 -0.1986
 9704TIP3    H250604   4.444   5.959  17.214 -1.2262 -1.0120  0.9579
 9705TIP3   OH250605   3.704   1.611  17.048  0.3560 -1.0092  0.1946
 9705TIP3    H150606   3.792   1.620  17.012 -0.1283  0.0688 -0.7989
 9705TIP3    H250607   3.681   1.700  17.075 -0.9595 -1.0045 -0.8921
 9706TIP3   OH250608   5.767   2.160   2.956 -0.2345  0.1132 -0.0664
 9706TIP3    H150609   5.799   2.245   2.985  0.0485  0.1871 -0.5928
 9706TIP3    H250610   5.672   2.168   2.958 -0.2069  1.2201 -2.3779
 9707TIP3   OH250611   4.938   0.856   1.329 -0.4434 -0.1207  0.1362
 9707TIP3    H150612   4.887   0.855   1.411 -1.1392  0.8390 -0.2772
 9707TIP3    H250613   5.028   0.844   1.358 -0.7162 -0.1417  1.0161
 9708TIP3   OH250614   1.042   1.620   3.435 -0.1950  0.8781 -0.4308
 9708TIP3    H150615   1.079   1.577   3.512  0.1577  0.1629 -0.9916
 9708TIP3    H250616   0.947   1.605   3.442 -0.1299  0.5026 -0.3207
 9709TIP3   OH250617   0.848   3.679   0.752  0.4622  0.2130 -0.2156
 9709TIP3    H150618   0.878   3.702   0.840  0.2442 -0.5269  0.0514
 9709TIP3    H250619   0.781   3.613   0.766 -0.1175  0.6509 -0.9021
 9710TIP3   OH250620   3.466   1.015   4.208 -0.1426 -0.6192 -0.1000
 9710TIP3    H150621   3.543   1.026   4.264 -0.6956 -0.6425  0.6768
 9710TIP3    H250622   3.441   1.105   4.186  0.2248 -0.6178 -0.5231
 9711TIP3   OH250623   3.046   4.856   5.571  0.7577  0.3500  0.4909
 9711TIP3    H150624   2.995   4.832   5.649  1.0406  0.8130  0.8190
 9711TIP3    H250625   3.107   4.922   5.602  0.1419  1.3289 -0.3626
 9712TIP3   OH250626   1.983   2.348   5.719  0.1892 -0.4258 -0.4049
 9712TIP3    H150627   1.903   2.323   5.765 -1.1128  3.3438 -0.4256
 9712TIP3    H250628   1.995   2.280   5.653 -1.5924 -2.3837  1.2336
 9713TIP3   OH250629   0.388   3.321  14.091  0.0640  0.1589 -0.3737
 9713TIP3    H150630   0.320   3.264  14.055 -1.0858  1.3027 -0.0662
 9713TIP3    H250631   0.464   3.264  14.102 -0.9039 -1.1915 -0.5518
 9714TIP3   OH250632   0.167   4.380  15.067 -0.7361 -0.0255  0.4381
 9714TIP3    H150633   0.124   4.413  14.988  0.3794 -1.7977 -0.9707
 9714TIP3    H250634   0.224   4.451  15.095 -0.6557  0.3977 -0.7532
 9715TIP3   OH250635   0.230   3.559  16.991 -0.2195  0.0269 -0.0602
 9715TIP3    H150636   0.225   3.568  16.896 -0.0381 -3.6154 -0.4806
 9715TIP3    H250637   0.140   3.574  17.021 -0.2664  1.2543 -0.7565
 9716TIP3   OH250638   6.176   5.012  15.710  0.5096 -0.2233 -0.3950
 9716TIP3    H150639   6.175   4.949  15.783 -1.2725  1.3032  0.9535
 9716TIP3    H250640   6.129   4.968  15.640  0.9147 -1.1209 -0.1223
 9717TIP3   OH250641   3.173   2.113   6.195 -0.1601  0.3668  0.5511
 9717TIP3    H150642   3.099   2.157   6.153  0.0943  0.3952  0.1315
 9717TIP3    H250643   3.144   2.098   6.285 -0.8144  0.0623  0.2937
 9718TIP3   OH250644   1.801   3.618  12.844  0.1248 -0.0255 -0.7037
 9718TIP3    H150645   1.708   3.593  12.843 -0.3923  1.7675 -2.1478
 9718TIP3    H250646   1.830   3.601  12.754  0.9582  0.2490 -0.4833
 9719TIP3   OH250647   4.395   3.256   1.006  0.1499  0.4408  0.0239
 9719TIP3    H150648   4.464   3.191   1.014 -0.0919  0.2252  0.3828
 9719TIP3    H250649   4.384   3.268   0.912  0.7416  0.5516 -0.0350
 9720TIP3   OH250650   5.376   4.709  14.920  0.1318  0.3502  0.3785
 9720TIP3    H150651   5.343   4.681  14.835 -0.9268  1.4010  0.4303
 9720TIP3    H250652   5.471   4.691  14.916 -0.0716 -0.6088 -0.5980
 9721TIP3   OH250653   0.983   2.023  11.823  0.6137 -0.2293  0.4693
 9721TIP3    H150654   0.998   1.957  11.891  0.9112 -0.3561  0.2807
 9721TIP3    H250655   0.977   1.973  11.742 -1.3147 -0.2309  0.5956
 9722TIP3   OH250656   6.589   4.580   4.660 -0.0961  0.6422 -0.1891
 9722TIP3    H150657   6.532   4.521   4.709 -0.5632  0.4541 -0.9544
 9722TIP3    H250658   6.677   4.551   4.680 -0.3416 -0.9073 -1.3087
 9723TIP3   OH250659   2.902   0.753  16.358 -0.4123 -0.5544  0.0517
 9723TIP3    H150660   2.925   0.807  16.433  1.0288  0.2440 -0.9305
 9723TIP3    H250661   2.954   0.788  16.286 -0.9742 -1.9659 -1.0813
 9724TIP3   OH250662   0.348   6.447  15.619 -0.5491 -0.2541  0.3743
 9724TIP3    H150663   0.266   6.494  15.608 -0.6964 -0.7059 -0.5324
 9724TIP3    H250664   0.359   6.398  15.537  0.7781  0.0595  0.3460
 9725TIP3   OH250665   3.914   6.558  16.112 -0.1046 -0.1656  0.1406
 9725TIP3    H150666   3.961   6.641  16.116 -2.2481  1.0098  2.9114
 9725TIP3    H250667   3.828   6.581  16.078 -0.0534 -1.6052 -1.0111
 9726TIP3   OH250668   0.505   1.488   3.359 -0.2739  0.3601  0.1201
 9726TIP3    H150669   0.489   1.506   3.452  0.9497  1.0397  0.2131
 9726TIP3    H250670   0.545   1.569   3.326 -0.0039 -0.1545 -0.8184
 9727TIP3   OH250671   3.078   3.038  15.736  0.6138  0.1618  0.1342
 9727TIP3    H150672   3.035   2.976  15.795  0.0850 -0.1311 -0.5461
 9727TIP3    H250673   3.148   2.987  15.694  3.0583  1.1873  2.8018
 9728TIP3   OH250674   3.006   5.680   3.263  0.4644  0.0702  0.0383
 9728TIP3    H150675   3.025   5.587   3.251  1.8624  0.2021  1.0701
 9728TIP3    H250676   3.083   5.725   3.229 -0.9465  0.9541 -2.0887
 9729TIP3   OH250677   4.095   4.190   3.985  0.6065  0.2230  0.0252
 9729TIP3    H150678   4.004   4.219   3.978  1.0807  2.2662  1.6787
 9729TIP3    H250679   4.095   4.127   4.056  0.4700  0.1263 -0.0595
 9730TIP3   OH250680   4.025   5.258  11.546  0.1876  0.6283 -0.1813
 9730TIP3    H150681   3.934   5.284  11.559  0.4979  0.7665  1.8440
 9730TIP3    H250682   4.019   5.173  11.502 -1.0114 -0.6438  2.2782
 9731TIP3   OH250683   4.703   3.551  17.208 -0.7852 -0.0956 -0.5312
 9731TIP3    H150684   4.647   3.552  17.131  0.6928  2.3785 -1.6389
 9731TIP3    H250685   4.645   3.571  17.282 -1.8604 -0.5405 -1.2543
 9732TIP3   OH250686   3.144   4.509  12.574 -0.3784  0.4661 -0.1060
 9732TIP3    H150687   3.102   4.424  12.559 -0.9237  1.0565 -2.0825
 9732TIP3    H250688   3.097   4.546  12.649 -0.9051 -0.4710  0.0390
 9733TIP3   OH250689   1.444   6.125   4.210 -0.0530  0.1919  0.2545
 9733TIP3    H150690   1.382   6.127   4.137  1.4443  0.4094 -1.0138
 9733TIP3    H250691   1.466   6.216   4.225 -0.2746  0.1384  0.9246
 9734TIP3   OH250692   1.603   4.336   5.518  0.0056  0.0117  0.1652
 9734TIP3    H150693   1.581   4.415   5.568 -0.8819  0.6123 -1.1636
 9734TIP3    H250694   1.606   4.267   5.585  0.5293  1.1054  1.2977
 9735TIP3   OH250695   6.000   2.898   0.503 -0.4660  0.7079 -0.3232
 9735TIP3    H150696   6.072   2.866   0.556 -1.2504  1.9659  1.5583
 9735TIP3    H250697   5.960   2.819   0.465  0.7951 -0.1102  0.0350
 9736TIP3   OH250698   5.608   0.556   1.155 -0.0297  0.3136  0.5433
 9736TIP3    H150699   5.644   0.641   1.176 -0.9509  0.5608  1.1892
 9736TIP3    H250700   5.671   0.516   1.095  1.5791  0.5029  2.0498
 9737TIP3   OH250701   6.077   1.021   2.150  0.2989  0.2723 -0.3472
 9737TIP3    H150702   6.143   0.992   2.088  2.3943  0.5631  1.6562
 9737TIP3    H250703   6.113   0.996   2.236 -1.4246  1.9378  0.8937
 9738TIP3   OH250704   5.713   4.487   5.371  0.2953  0.3707 -0.3773
 9738TIP3    H150705   5.620   4.466   5.379  0.6627 -0.7404  1.2908
 9738TIP3    H250706   5.728   4.557   5.434  0.8547 -0.3955  0.3595
 9739TIP3   OH250707   3.424   5.176   2.752 -0.1539 -0.3474  0.0155
 9739TIP3    H150708   3.435   5.090   2.793  0.8163  0.3325  1.2292
 9739TIP3    H250709   3.341   5.170   2.706 -0.0365 -1.9822 -0.0181
 9740TIP3   OH250710   0.325   1.141  12.128 -0.2817 -0.2799 -0.2037
 9740TIP3    H150711   0.414   1.144  12.092 -0.0777  0.3737  0.3561
 9740TIP3    H250712   0.299   1.049  12.116  1.1783 -0.9339  1.3135
 9741TIP3   OH250713   3.301   2.244  14.808 -0.2209 -0.1343  0.6984
 9741TIP3    H150714   3.358   2.294  14.866 -0.2879  0.5475  0.1751
 9741TIP3    H250715   3.237   2.307  14.775 -1.7039 -1.0097  1.7793
 9742TIP3   OH250716   2.142   2.150  12.184 -0.1397 -0.5279  0.3154
 9742TIP3    H150717   2.153   2.064  12.145  0.5283 -0.7080  0.8993
 9742TIP3    H250718   2.154   2.136  12.278  0.8909  0.3580  0.3216
 9743TIP3   OH250719   3.882   4.997   1.876 -0.1668  0.3137 -0.1489
 9743TIP3    H150720   3.805   4.966   1.828 -0.3493 -0.4253  0.6152
 9743TIP3    H250721   3.847   5.025   1.961  0.3934  0.0717  0.1582
 9744TIP3   OH250722   5.764   5.082   1.071 -0.3759 -0.1705 -0.0121
 9744TIP3    H150723   5.701   5.015   1.100 -0.4412 -0.5025 -0.9005
 9744TIP3    H250724   5.822   5.035   1.011  0.2075  0.3378  0.1523
 9745TIP3   OH250725   6.464   6.190   0.422  0.0360 -0.1824  0.1657
 9745TIP3    H150726   6.395   6.175   0.486  0.7734 -0.1890  0.9674
 9745TIP3    H250727   6.505   6.104   0.410 -0.6671 -0.3700 -0.9888
 9746TIP3   OH250728   5.730   4.045   1.669 -0.5335  0.0954  0.7767
 9746TIP3    H150729   5.819   4.061   1.636  0.0225 -0.0622  2.1718
 9746TIP3    H250730   5.713   3.953   1.647 -0.2673  0.0647  0.6963
 9747TIP3   OH250731   3.831   1.731   6.458  0.2130 -0.4291 -0.8584
 9747TIP3    H150732   3.790   1.719   6.544 -2.0106  1.4328 -1.5992
 9747TIP3    H250733   3.816   1.649   6.412  3.5945 -2.4163  1.3059
 9748TIP3   OH250734   5.654   3.785  15.106 -0.3367  0.0585 -0.1252
 9748TIP3    H150735   5.612   3.739  15.033 -1.2759  0.4137  0.1809
 9748TIP3    H250736   5.674   3.872  15.071  3.3437 -1.1724 -1.3705
 9749TIP3   OH250737   2.323   1.259   0.906  0.0198 -0.3459  0.3146
 9749TIP3    H150738   2.397   1.286   0.959  0.4905 -0.7578 -0.1205
 9749TIP3    H250739   2.288   1.182   0.951  0.5279 -0.8009 -0.0668
 9750TIP3   OH250740   4.345   0.883   0.996  0.3890  0.1538  0.0994
 9750TIP3    H150741   4.367   0.861   1.086 -0.6334  0.0916  0.3445
 9750TIP3    H250742   4.429   0.885   0.950  0.6019 -3.5749  0.1860
 9751TIP3   OH250743   3.868   1.935   4.010  0.2953  0.2838  1.0093
 9751TIP3    H150744   3.862   2.028   3.989  1.2253  0.6093  2.1601
 9751TIP3    H250745   3.806   1.922   4.082 -0.3600 -0.1406  0.3794
 9752TIP3   OH250746   2.318   4.890   5.209 -0.8440 -0.3562  0.5173
 9752TIP3    H150747   2.321   4.973   5.162  3.4711 -0.5216  0.3205
 9752TIP3    H250748   2.293   4.826   5.143 -1.8166  0.4133  0.1218
 9753TIP3   OH250749   1.796   0.580   2.645  0.0658  0.0734  0.2741
 9753TIP3    H150750   1.787   0.667   2.684 -1.0186  0.3141 -0.4939
 9753TIP3    H250751   1.890   0.568   2.635  0.2426  0.9565  0.8471
 9754TIP3   OH250752   5.342   4.214  16.027 -0.2973  0.0732  0.3900
 9754TIP3    H150753   5.323   4.191  16.118 -2.4964  0.9416  0.1749
 9754TIP3    H250754   5.407   4.284  16.033  0.9010 -1.0680  1.2126
 9755TIP3   OH250755   4.682   4.928   5.012 -0.3638  0.5010 -0.0054
 9755TIP3    H150756   4.621   4.857   4.992  1.3899 -0.6058 -1.6425
 9755TIP3    H250757   4.697   4.921   5.106 -0.5240 -1.0388 -0.0808
 9756TIP3   OH250758   4.499   2.279  12.390  0.0570 -0.4312 -0.2167
 9756TIP3    H150759   4.573   2.339  12.396 -0.7346  0.5504 -0.1334
 9756TIP3    H250760   4.531   2.197  12.428  1.4162 -0.3226 -1.1096
 9757TIP3   OH250761   2.518   2.628   5.617 -0.2025  0.2561  0.3598
 9757TIP3    H150762   2.474   2.701   5.662 -1.6422 -0.4163  0.0748
 9757TIP3    H250763   2.447   2.570   5.592  0.8323 -0.6205 -0.5608
 9758TIP3   OH250764   0.475   2.050   6.380 -0.3508  0.1099 -0.1288
 9758TIP3    H150765   0.529   2.006   6.446 -1.0935 -1.9604 -0.8452
 9758TIP3    H250766   0.392   2.068   6.425 -0.4455 -0.2692 -0.1440
 9759TIP3   OH250767   3.041   3.550   2.354 -0.3969 -0.7101 -0.1406
 9759TIP3    H150768   3.015   3.507   2.435 -0.1935 -0.2918  0.1494
 9759TIP3    H250769   2.960   3.589   2.320 -0.2452  0.1957  0.5221
 9760TIP3   OH250770   1.926   1.069   1.926  0.2873  0.3859  0.3264
 9760TIP3    H150771   1.961   0.998   1.980 -2.6570 -1.5927 -0.2333
 9760TIP3    H250772   1.956   1.049   1.838 -0.3207 -0.0250  0.2110
 9761TIP3   OH250773   6.631   0.175   3.047 -0.0226 -0.1411 -0.1733
 9761TIP3    H150774   6.711   0.159   2.997  0.8419  1.0809  0.7845
 9761TIP3    H250775   6.562   0.134   2.996  1.0716 -0.3014 -1.5506
 9762TIP3   OH250776   5.885   6.654  12.271  0.2218 -0.8423  0.2011
 9762TIP3    H150777   5.889   6.749  12.261  1.7924 -0.8069  1.0602
 9762TIP3    H250778   5.937   6.636  12.349  1.4476 -2.5672 -0.9768
 9763TIP3   OH250779   4.301   5.453  15.589  0.2710 -0.3844  0.1573
 9763TIP3    H150780   4.326   5.540  15.621 -0.2926 -0.6045  1.1884
 9763TIP3    H250781   4.249   5.415  15.659 -0.0092 -1.3204 -0.5486
 9764TIP3   OH250782   2.646   2.065  16.930 -0.4462  0.1351  0.7940
 9764TIP3    H150783   2.690   2.045  16.847  0.1122 -1.5552  1.4641
 9764TIP3    H250784   2.553   2.054  16.911 -0.3285 -0.1170  0.3513
 9765TIP3   OH250785   5.239   5.396  13.087  0.0846  0.4300 -0.0945
 9765TIP3    H150786   5.251   5.315  13.036 -1.3306 -0.7254  1.3578
 9765TIP3    H250787   5.145   5.411  13.086  0.2553  1.5239  0.4908
 9766TIP3   OH250788   0.642   3.973  16.871  0.2418 -0.2412  0.2209
 9766TIP3    H150789   0.557   3.950  16.907 -0.3291  0.2529 -0.7836
 9766TIP3    H250790   0.700   3.978  16.947 -0.2825 -2.0264  0.7727
 9767TIP3   OH250791   6.173   4.901  11.961  0.6100  0.0663  0.3502
 9767TIP3    H150792   6.191   4.832  12.025  1.2101 -0.3262 -0.2389
 9767TIP3    H250793   6.142   4.855  11.883  0.7694  0.4800  0.0415
 9768TIP3   OH250794   3.751   1.431  12.571 -0.4262  0.7789  0.1844
 9768TIP3    H150795   3.809   1.429  12.495  1.1476  1.7110  1.3585
 9768TIP3    H250796   3.719   1.341  12.579  0.5303  0.3527 -0.6944
 9769TIP3   OH250797   2.586   2.075  12.250  0.0216 -0.3744  0.2819
 9769TIP3    H150798   2.612   2.010  12.184 -1.0485  1.2885 -1.8309
 9769TIP3    H250799   2.604   2.032  12.333  2.7599 -1.9978 -1.0679
 9770TIP3   OH250800   0.476   3.029   4.071 -0.6053  0.0976 -0.1706
 9770TIP3    H150801   0.505   3.118   4.093 -0.5716  0.3577 -1.2566
 9770TIP3    H250802   0.556   2.976   4.075 -0.4705  0.2845 -0.4140
 9771TIP3   OH250803   1.220   6.203  12.848 -0.2356 -0.0068 -0.2880
 9771TIP3    H150804   1.308   6.240  12.855 -0.6327  0.8565  0.2816
 9771TIP3    H250805   1.234   6.109  12.845  0.7121  0.1218 -0.2302
 9772TIP3   OH250806   2.557   5.088  14.001  0.4495  0.1185 -0.7235
 9772TIP3    H150807   2.587   5.013  14.053 -0.6730 -1.0908 -1.7588
 9772TIP3    H250808   2.600   5.077  13.916  0.0820  0.4932 -0.9605
 9773TIP3   OH250809   5.475   5.402   2.789 -0.1732 -0.8787 -0.0744
 9773TIP3    H150810   5.391   5.366   2.816 -0.8115  0.8076  0.2705
 9773TIP3    H250811   5.489   5.368   2.701 -2.4252  0.7840 -1.1248
 9774TIP3   OH250812   0.179   0.058  12.026 -0.0390 -0.8584 -0.9423
 9774TIP3    H150813   0.178   0.153  12.014 -4.0105 -0.8900 -1.5799
 9774TIP3    H250814   0.135   0.024  11.949  0.4061 -3.1660 -0.2144
 9775TIP3   OH250815   5.133   2.806   1.058  0.0211  0.3818 -0.2535
 9775TIP3    H150816   5.116   2.893   1.021  0.3295 -0.7121 -3.0839
 9775TIP3    H250817   5.055   2.788   1.111  0.3161  2.6967  1.0495
 9776TIP3   OH250818   0.670   5.513   4.758  0.3333 -0.5387 -0.5408
 9776TIP3    H150819   0.678   5.575   4.831 -0.8634 -2.4651  1.3005
 9776TIP3    H250820   0.594   5.459   4.781 -0.0762 -1.1835 -3.2481
 9777TIP3   OH250821   3.047   5.146   2.079 -0.0777  0.1085  0.2700
 9777TIP3    H150822   2.982   5.106   2.137  0.4689  0.6100  1.2418
 9777TIP3    H250823   3.009   5.140   1.992  0.3642 -3.4156  0.2308
 9778TIP3   OH250824   5.716   5.161   4.649 -0.0622  0.7682  0.1773
 9778TIP3    H150825   5.781   5.104   4.691  0.4957  0.8903 -0.5169
 9778TIP3    H250826   5.656   5.100   4.606 -0.2009  0.6683  0.5067
 9779TIP3   OH250827   0.188   3.792  10.884  0.4892 -0.3412 -0.6050
 9779TIP3    H150828   0.253   3.741  10.835 -0.2904 -0.9912 -0.9845
 9779TIP3    H250829   0.127   3.822  10.817 -0.5400 -1.1590 -0.0430
 9780TIP3   OH250830   1.227   5.514  16.724 -0.4307  0.4444  0.3953
 9780TIP3    H150831   1.201   5.424  16.743 -0.9426  0.3665 -0.6278
 9780TIP3    H250832   1.190   5.566  16.795 -0.7427 -0.0667  0.6024
 9781TIP3   OH250833   3.730   5.858  13.975 -0.1239  0.1440  0.2074
 9781TIP3    H150834   3.796   5.793  14.001 -0.4801  0.3825  1.7751
 9781TIP3    H250835   3.659   5.806  13.938  1.0391 -0.0989 -1.7401
 9782TIP3   OH250836   4.222   3.726  13.768 -0.6066 -0.4643  0.2255
 9782TIP3    H150837   4.156   3.779  13.813 -0.0531 -0.4882  1.0897
 9782TIP3    H250838   4.295   3.786  13.753 -1.5892  0.0892 -2.5362
 9783TIP3   OH250839   5.476   1.434  13.056  0.3660  0.2405  0.3555
 9783TIP3    H150840   5.442   1.456  13.143 -0.5219 -1.2561  0.3999
 9783TIP3    H250841   5.409   1.465  12.995  0.0017 -0.6253  0.3179
 9784TIP3   OH250842   4.532   0.727   4.395 -0.3609 -0.1880  0.1419
 9784TIP3    H150843   4.483   0.688   4.323 -0.5569  1.0087 -0.3927
 9784TIP3    H250844   4.623   0.700   4.381 -0.1182  1.3785 -1.5187
 9785TIP3   OH250845   2.601   4.839   4.893  0.2664  0.2503 -0.2794
 9785TIP3    H150846   2.604   4.757   4.844  0.3413 -1.0958  1.9237
 9785TIP3    H250847   2.692   4.854   4.920 -0.0144  0.1822  0.7191
 9786TIP3   OH250848   3.317   6.265   1.001 -0.8144 -0.1035  0.2369
 9786TIP3    H150849   3.391   6.283   0.942 -0.6711  0.4254  0.5688
 9786TIP3    H250850   3.240   6.267   0.944 -0.7327  0.9391  0.1461
 9787TIP3   OH250851   6.722   4.723   3.483 -0.3465  0.1338 -0.0280
 9787TIP3    H150852   6.680   4.649   3.440 -0.9146 -0.5735  1.7220
 9787TIP3    H250853   6.782   4.684   3.547 -0.9107  1.1764  1.1604
 9788TIP3   OH250854   3.804   2.434   0.043  0.4133  0.0330 -0.5303
 9788TIP3    H150855   3.773   2.365   0.102 -2.8775  3.0523  1.3865
 9788TIP3    H250856   3.735   2.442  -0.023  1.6270  0.3143 -1.7844
 9789TIP3   OH250857   5.682   3.543   4.978 -0.2370  0.0159 -0.0233
 9789TIP3    H150858   5.729   3.562   4.897 -0.0776 -1.2606 -0.2406
 9789TIP3    H250859   5.674   3.448   4.979 -1.6256  0.1298  0.6848
 9790TIP3   OH250860   1.363   6.213   6.018  0.2958 -0.0128 -0.0541
 9790TIP3    H150861   1.442   6.262   6.041  0.1061  0.6594 -0.8459
 9790TIP3    H250862   1.312   6.211   6.099  0.9495 -0.1336  0.3623
 9791TIP3   OH250863   4.735   3.919   4.323 -0.0190 -0.4052 -0.2853
 9791TIP3    H150864   4.659   3.879   4.282  1.0582 -1.7248 -1.0257
 9791TIP3    H250865   4.796   3.847   4.336 -0.0531  0.1195  3.0206
 9792TIP3   OH250866   3.735   5.389   0.286  0.1323  0.2042 -0.0215
 9792TIP3    H150867   3.816   5.372   0.239 -1.2429 -1.2833 -1.9429
 9792TIP3    H250868   3.674   5.420   0.219 -1.5559 -0.9239  0.9469
 9793TIP3   OH250869   3.556   1.140  14.538  0.0530 -0.6396  0.8467
 9793TIP3    H150870   3.475   1.146  14.487  0.3723  0.8710  0.4883
 9793TIP3    H250871   3.542   1.065  14.596 -0.7571 -1.7094 -0.6790
 9794TIP3   OH250872   3.185   0.073   5.167 -0.3675  0.0369  0.1891
 9794TIP3    H150873   3.149   0.108   5.249  1.6560  1.4145  0.5257
 9794TIP3    H250874   3.109   0.063   5.110 -1.4607  1.5597  1.3393
 9795TIP3   OH250875   3.635   6.400   1.377  0.7375  0.4863  0.1833
 9795TIP3    H150876   3.629   6.306   1.393  1.4118  0.3013 -0.5950
 9795TIP3    H250877   3.728   6.415   1.361  0.5106  1.1351 -0.5548
 9796TIP3   OH250878   0.562   6.115  14.146  0.7753 -0.4188  0.2148
 9796TIP3    H150879   0.643   6.165  14.133  0.4482  0.0903  0.1190
 9796TIP3    H250880   0.572   6.038  14.091 -0.6368  1.7386 -3.2705
 9797TIP3   OH250881   0.488   4.219  12.515  0.3267  0.0656  0.3934
 9797TIP3    H150882   0.529   4.275  12.449  0.5063 -1.7062 -1.0566
 9797TIP3    H250883   0.561   4.182  12.564  0.3802 -1.1085 -0.5359
 9798TIP3   OH250884   6.001   1.073   1.535 -0.0320 -0.1194 -0.8098
 9798TIP3    H150885   5.932   1.133   1.563 -0.9008 -2.1370  1.5937
 9798TIP3    H250886   6.074   1.093   1.593  0.7670  0.6822 -2.0639
 9799TIP3   OH250887   1.289   2.043   2.858  0.3891  0.0941 -0.5619
 9799TIP3    H150888   1.199   2.064   2.831 -0.0644 -0.7367  0.2785
 9799TIP3    H250889   1.337   2.125   2.847  0.2208 -0.1830 -3.8542
 9800TIP3   OH250890   5.720   2.621  12.466 -0.3983 -0.4815  0.3042
 9800TIP3    H150891   5.751   2.668  12.542 -1.3317 -1.3795  1.2682
 9800TIP3    H250892   5.703   2.688  12.400 -1.0512  0.4484  1.4167
 9801TIP3   OH250893   2.647   0.489  14.121 -0.0038 -0.4986 -0.0754
 9801TIP3    H150894   2.631   0.397  14.102  0.4065 -0.6501  0.2948
 9801TIP3    H250895   2.621   0.535  14.041 -0.9266 -0.8587  0.0145
 9802TIP3   OH250896   1.208   1.035  12.334  0.3286  0.5490  0.2773
 9802TIP3    H150897   1.227   1.129  12.330 -0.8304  0.7515 -0.6846
 9802TIP3    H250898   1.141   1.021  12.268  0.0628 -0.8657  0.8235
 9803TIP3   OH250899   3.866   3.493   0.730  0.3855 -0.0008  0.2724
 9803TIP3    H150900   3.807   3.543   0.673 -0.6640 -1.9648 -0.4199
 9803TIP3    H250901   3.884   3.412   0.681  0.6063 -1.1063  2.1205
 9804TIP3   OH250902   4.503   2.097   1.435  0.3678  0.1912 -0.4792
 9804TIP3    H150903   4.542   2.049   1.508 -0.0188 -0.8366 -0.9443
 9804TIP3    H250904   4.488   2.185   1.470 -0.7736 -0.5671  1.0080
 9805TIP3   OH250905   4.932   3.111   0.103  0.1160 -0.1646  0.5062
 9805TIP3    H150906   4.984   3.048   0.154 -0.7514  0.3285  2.0421
 9805TIP3    H250907   4.854   3.062   0.077  1.1761 -0.8257 -1.5751
 9806TIP3   OH250908   0.670   0.284   1.015 -0.4593 -0.1236  0.3704
 9806TIP3    H150909   0.693   0.313   1.103 -0.5511 -0.8191  0.6292
 9806TIP3    H250910   0.753   0.285   0.967  0.0677 -2.1477  1.1628
 9807TIP3   OH250911   2.924   6.516   5.633 -0.1615 -0.7138  0.5856
 9807TIP3    H150912   2.999   6.571   5.611 -0.2879 -0.6705  0.2712
 9807TIP3    H250913   2.962   6.434   5.664  0.0188 -2.4325 -3.8253
 9808TIP3   OH250914   4.262   3.945  12.614  0.8150 -0.6367 -0.0626
 9808TIP3    H150915   4.323   3.907  12.677  0.3752 -0.3094  0.5565
 9808TIP3    H250916   4.176   3.933  12.653  0.3474 -2.1961 -1.4922
 9809TIP3   OH250917   3.348   0.117  14.390 -0.2997 -0.2496  0.0878
 9809TIP3    H150918   3.379   0.070  14.467 -0.1036  1.2544  0.9496
 9809TIP3    H250919   3.334   0.049  14.324  0.7191 -1.4175  1.0509
 9810TIP3   OH250920   0.731   3.012   1.341  0.1604  0.1107 -0.3248
 9810TIP3    H150921   0.683   3.086   1.304 -0.9358 -0.0570  0.7285
 9810TIP3    H250922   0.809   3.051   1.380 -1.1948  0.9485  1.6418
 9811TIP3   OH250923   2.954   3.938   5.231 -0.2903  0.0323  0.1019
 9811TIP3    H150924   2.867   3.917   5.266 -0.9669  1.5271 -0.5975
 9811TIP3    H250925   3.011   3.868   5.262 -1.8521 -1.2307  0.1808
 9812TIP3   OH250926   6.292   3.676   0.186 -0.0885  0.5407  0.6140
 9812TIP3    H150927   6.234   3.734   0.237 -0.3348  0.9649 -0.1465
 9812TIP3    H250928   6.376   3.720   0.186 -0.8743  2.0983 -1.9900
 9813TIP3   OH250929   5.666   4.871   3.362  0.2024 -0.1050  0.1347
 9813TIP3    H150930   5.679   4.847   3.270  1.2447 -0.6586  0.4269
 9813TIP3    H250931   5.648   4.965   3.359 -2.0846 -0.5456 -0.8404
 9814TIP3   OH250932   1.283   2.368  14.773  0.0815  0.4629  0.0467
 9814TIP3    H150933   1.329   2.436  14.822 -0.4036 -0.1858  1.4359
 9814TIP3    H250934   1.316   2.286  14.809 -1.4308 -0.0157  0.4069
 9815TIP3   OH250935   0.526   5.513   2.287  0.2341 -0.8330  0.2626
 9815TIP3    H150936   0.504   5.490   2.197 -0.2873 -0.0878  0.1914
 9815TIP3    H250937   0.544   5.429   2.330  0.5254 -1.1845 -0.5445
 9816TIP3   OH250938   6.102   1.117  15.970  0.0208  0.2531 -0.0884
 9816TIP3    H150939   6.051   1.198  15.970  0.9646  0.8586 -0.2531
 9816TIP3    H250940   6.039   1.049  15.993 -0.5089  1.2132  1.3721
 9817TIP3   OH250941   3.494   0.033   3.414  0.7100 -0.5021 -0.3856
 9817TIP3    H150942   3.514   0.026   3.321 -0.0091 -1.0224 -0.5059
 9817TIP3    H250943   3.410   0.080   3.417  1.1516  0.2701  0.0364
 9818TIP3   OH250944   0.089   1.862   0.433  0.1948 -0.1302  0.2852
 9818TIP3    H150945   0.158   1.797   0.450  1.3683  0.9277 -0.3076
 9818TIP3    H250946   0.007   1.815   0.447  1.0064 -1.9768 -0.9578
 9819TIP3   OH250947   5.880   5.084   5.455  0.5036 -0.5014 -0.0461
 9819TIP3    H150948   5.876   5.155   5.391  0.1433 -1.5305 -1.1738
 9819TIP3    H250949   5.802   5.096   5.509  1.8423  1.5787  1.5303
 9820TIP3   OH250950   4.155   5.601  17.031 -0.3858  0.1318 -0.3993
 9820TIP3    H150951   4.114   5.622  16.947 -0.3214  1.5762 -0.0765
 9820TIP3    H250952   4.082   5.596  17.092 -0.2547  1.0273 -0.1601
 9821TIP3   OH250953   0.244   5.141   0.360 -0.2010  0.1073  0.0770
 9821TIP3    H150954   0.335   5.111   0.352 -0.0579  0.5152  0.1731
 9821TIP3    H250955   0.241   5.185   0.445 -1.3013 -2.7719  1.5968
 9822TIP3   OH250956   5.048   6.754   5.633  0.0846  0.6272  0.0585
 9822TIP3    H150957   4.991   6.807   5.688 -3.5129 -1.9292 -0.9739
 9822TIP3    H250958   5.082   6.686   5.692 -2.2101 -0.9430 -0.3402
 9823TIP3   OH250959   4.385   2.453   0.687  0.6174 -0.4150  0.0494
 9823TIP3    H150960   4.390   2.490   0.599  1.3189  0.5267  0.4871
 9823TIP3    H250961   4.430   2.369   0.679  3.8150  1.2164  0.3198
 9824TIP3   OH250962   5.247   4.987  11.793 -0.0771 -0.4430 -0.1753
 9824TIP3    H150963   5.296   5.069  11.789 -0.6127 -0.1032  0.0857
 9824TIP3    H250964   5.184   5.000  11.864  1.5448 -2.0248  1.6113
 9825TIP3   OH250965   2.236   5.020   5.731 -0.0112  0.6014 -0.2186
 9825TIP3    H150966   2.200   5.064   5.808 -0.7941  2.7271 -1.7613
 9825TIP3    H250967   2.160   4.980   5.689  0.0767  1.2798 -1.0408
 9826TIP3   OH250968   1.534   3.526   2.324  0.5645  0.2637 -0.1426
 9826TIP3    H150969   1.583   3.496   2.247 -1.2515  0.7293 -1.5088
 9826TIP3    H250970   1.447   3.488   2.313 -0.7971  3.2989 -0.1969
 9827TIP3   OH250971   6.365   3.046   4.258 -0.0924 -0.8887  0.2477
 9827TIP3    H150972   6.357   2.965   4.308  0.9027 -2.5630 -2.1907
 9827TIP3    H250973   6.308   3.034   4.182 -1.1577  1.3565  0.6555
 9828TIP3   OH250974   2.640   4.462   2.781  0.2950  0.3025 -0.3946
 9828TIP3    H150975   2.682   4.486   2.864  1.8438  0.6289 -1.2381
 9828TIP3    H250976   2.586   4.538   2.759 -1.1040 -0.2834  0.9059
 9829TIP3   OH250977   0.993   1.099  11.803 -0.6468  0.0342  0.1106
 9829TIP3    H150978   0.989   1.083  11.897 -0.2914  0.4497  0.1986
 9829TIP3    H250979   1.074   1.149  11.790 -0.0648 -1.0711 -0.5731
 9830TIP3   OH250980   5.440   6.148  13.865 -0.1525 -0.1000  0.2604
 9830TIP3    H150981   5.433   6.112  13.953 -1.4985 -2.1769 -0.6648
 9830TIP3    H250982   5.366   6.111  13.817  1.5904 -0.5177 -2.2682
 9831TIP3   OH250983   1.806   2.874   0.367 -0.4328  0.3889 -0.3752
 9831TIP3    H150984   1.808   2.779   0.357 -1.3334  0.4358 -1.1436
 9831TIP3    H250985   1.875   2.906   0.309  0.3529  0.1680  0.4318
 9832TIP3   OH250986   0.960   3.777   3.565 -0.2327 -0.1326 -0.5613
 9832TIP3    H150987   0.891   3.813   3.510 -1.7167 -0.7932  0.8172
 9832TIP3    H250988   1.036   3.833   3.550 -1.5786  1.6266 -0.8396
 9833TIP3   OH250989   0.201   0.398   1.060  0.3018 -0.4723 -0.7242
 9833TIP3    H150990   0.195   0.305   1.039  1.2572 -0.2588 -2.1091
 9833TIP3    H250991   0.206   0.441   0.974  2.4222  0.6337 -0.1015
 9834TIP3   OH250992   1.064   5.538  16.973  0.0953  0.1280 -0.1856
 9834TIP3    H150993   1.151   5.514  17.006 -0.5001 -1.4488  0.3328
 9834TIP3    H250994   1.023   5.583  17.047  0.8973  1.9642 -0.8496
 9835TIP3   OH250995   3.742   4.461   1.834  0.3690 -0.7110  0.0063
 9835TIP3    H150996   3.712   4.532   1.890 -0.9960 -0.6300 -0.7992
 9835TIP3    H250997   3.696   4.384   1.868 -1.5750 -0.4185 -1.8296
 9836TIP3   OH250998   2.521   3.854   2.194  0.3652 -0.1619  0.0705
 9836TIP3    H150999   2.529   3.761   2.214  0.0035  0.0867  1.3894
 9836TIP3    H251000   2.445   3.860   2.136  1.5216 -0.9043 -1.5593
 9837TIP3   OH251001   4.092   1.611  14.119  0.0519 -0.1720 -0.1163
 9837TIP3    H151002   4.011   1.637  14.163 -0.0445 -0.7507  0.0419
 9837TIP3    H251003   4.071   1.619  14.025  0.2304  0.9634 -0.0724
 9838TIP3   OH251004   4.120   6.074   2.621  0.1831 -0.4748 -0.8310
 9838TIP3    H151005   4.198   6.030   2.656  0.1982  0.2568  0.0623
 9838TIP3    H251006   4.126   6.061   2.526  2.0387  0.6080 -0.8855
 9839TIP3   OH251007   5.797   2.550   0.847 -0.1909  0.0895  0.0304
 9839TIP3    H151008   5.703   2.564   0.835  0.0763  0.7595 -1.4308
 9839TIP3    H251009   5.833   2.638   0.857  0.3845 -0.0970 -0.3356
 9840TIP3   OH251010   4.942   4.478  11.799  0.2881 -0.2567 -0.1036
 9840TIP3    H151011   4.960   4.493  11.706  0.0462  1.8722  0.1610
 9840TIP3    H251012   4.878   4.406  11.799 -1.8203  1.5251 -1.7688
 9841TIP3   OH251013   2.382   6.735   4.958 -0.5328  0.7927 -0.1904
 9841TIP3    H151014   2.379   6.716   4.864  0.0379  2.6658 -0.6145
 9841TIP3    H251015   2.314   6.801   4.971  0.8877  2.1800  0.2979
 9842TIP3   OH251016   1.755   2.477   2.165  0.2773  0.0097 -0.0357
 9842TIP3    H151017   1.741   2.483   2.070 -0.3795 -0.2162  0.0395
 9842TIP3    H251018   1.807   2.554   2.187  1.1745 -0.3920 -0.7150
 9843TIP3   OH251019   5.259   1.227   2.790  0.1442  0.3695 -0.2804
 9843TIP3    H151020   5.284   1.279   2.866 -2.0876 -0.6493  1.2159
 9843TIP3    H251021   5.191   1.279   2.746  1.3800  0.9272 -1.5698
 9844TIP3   OH251022   6.218   4.901   2.386  0.0385  0.6789  0.3678
 9844TIP3    H151023   6.214   4.916   2.481 -0.8068 -3.3531  1.0413
 9844TIP3    H251024   6.306   4.867   2.371 -0.9277 -1.9095  0.2903
 9845TIP3   OH251025   1.227   1.715   3.026  0.8364  0.6983 -0.2237
 9845TIP3    H151026   1.303   1.736   2.971  1.4978  0.7525  0.7008
 9845TIP3    H251027   1.165   1.786   3.011 -0.0562 -0.5639 -2.8264
 9846TIP3   OH251028   2.740   5.883  12.043  0.1580 -0.9096  0.3034
 9846TIP3    H151029   2.816   5.885  12.101  0.9547 -0.7742 -0.7331
 9846TIP3    H251030   2.697   5.967  12.057 -0.6076 -1.5552  1.9464
 9847TIP3   OH251031   5.979   4.302   4.041  0.3437 -0.8680 -0.3903
 9847TIP3    H151032   6.022   4.368   4.095  0.0636 -0.1860 -0.9954
 9847TIP3    H251033   5.965   4.345   3.957 -3.1547 -0.4390  0.3430
 9848TIP3   OH251034   2.438   0.800  15.994  0.6551  0.2017 -0.3685
 9848TIP3    H151035   2.344   0.817  15.984  0.2966 -0.5195  1.4373
 9848TIP3    H251036   2.480   0.884  15.975 -0.3955  0.6436 -0.7753
 9849TIP3   OH251037   0.859   2.440   0.172 -0.0700  1.1592 -0.8195
 9849TIP3    H151038   0.852   2.488   0.255 -0.2471  0.6985 -0.5658
 9849TIP3    H251039   0.947   2.461   0.140 -0.3291  2.0580 -0.9673
 9850TIP3   OH251040   4.904   2.750   5.471  0.0234 -0.6630 -0.1346
 9850TIP3    H151041   4.972   2.761   5.538 -0.1037  0.2692 -0.1458
 9850TIP3    H251042   4.836   2.699   5.514 -0.3144  0.4248  0.6498
 9851TIP3   OH251043   4.032   2.065  13.811 -0.3684  0.3054 -0.3146
 9851TIP3    H151044   4.102   2.128  13.824  0.1307 -0.3073 -0.0102
 9851TIP3    H251045   3.961   2.116  13.772  0.7970  0.6033 -2.0671
 9852TIP3   OH251046   3.753   6.662  12.817  0.6725  0.4911  0.2691
 9852TIP3    H151047   3.679   6.623  12.771  0.2043  1.3687  0.2735
 9852TIP3    H251048   3.824   6.599  12.806  0.3465  0.3326 -0.9852
 9853TIP3   OH251049   4.198   2.488  15.955 -0.6182 -0.1002 -0.2699
 9853TIP3    H151050   4.274   2.434  15.976  0.0748 -0.4109 -3.3458
 9853TIP3    H251051   4.166   2.454  15.872 -1.9272  2.3961 -0.8570
 9854TIP3   OH251052   0.015   3.372  15.591 -0.4176 -0.0788 -0.8460
 9854TIP3    H151053   0.004   3.392  15.498 -1.5263  0.1750 -0.6658
 9854TIP3    H251054   0.083   3.432  15.621  0.7383 -0.9116 -1.7416
 9855TIP3   OH251055   1.697   0.196  14.304  0.2774 -0.0998  0.6951
 9855TIP3    H151056   1.729   0.136  14.372 -0.2899  0.5187  1.5118
 9855TIP3    H251057   1.706   0.283  14.342  1.1974  0.3582 -0.5369
 9856TIP3   OH251058   2.415   5.625  11.860 -0.5491 -0.4775 -0.0066
 9856TIP3    H151059   2.413   5.712  11.819  1.3420 -0.7679 -0.7873
 9856TIP3    H251060   2.485   5.631  11.925 -0.7483 -1.2756  0.2889
 9857TIP3   OH251061   4.372   2.587  17.075  0.2993 -0.1762 -0.2261
 9857TIP3    H151062   4.442   2.539  17.119  0.4095 -0.0038 -0.2147
 9857TIP3    H251063   4.376   2.556  16.984 -0.4501 -1.1311  0.0601
 9858TIP3   OH251064   3.627   4.342   1.097  0.8316 -0.4413 -0.3879
 9858TIP3    H151065   3.613   4.434   1.073 -0.6380 -0.2250  1.1777
 9858TIP3    H251066   3.549   4.297   1.065  1.5439 -1.1540 -1.1333
 9859TIP3   OH251067   3.300   5.373  11.839 -0.2128  0.6158 -0.6827
 9859TIP3    H151068   3.288   5.352  11.746 -0.7228  0.4761 -0.5847
 9859TIP3    H251069   3.216   5.408  11.867 -0.6912 -1.1796  0.2150
 9860TIP3   OH251070   4.353   2.654  12.811  0.7812  0.4416 -0.0315
 9860TIP3    H151071   4.352   2.703  12.729  0.5975  0.6317  0.0838
 9860TIP3    H251072   4.417   2.584  12.796 -0.2931 -0.3929 -0.8366
 9861TIP3   OH251073   3.033   3.182  15.983 -0.0368 -0.0149  0.0740
 9861TIP3    H151074   3.047   3.223  16.068 -1.7216  0.3121  0.2140
 9861TIP3    H251075   2.961   3.120  15.997  0.7120 -1.0935 -0.7571
 9862TIP3   OH251076   3.993   0.165  15.405 -0.1869 -0.2978 -0.6392
 9862TIP3    H151077   4.073   0.119  15.429  0.0592  0.3547 -0.1664
 9862TIP3    H251078   3.980   0.146  15.312  0.4643 -0.4887 -0.6887
 9863TIP3   OH251079   3.609   5.830  16.540 -0.1172  0.1079  0.0701
 9863TIP3    H151080   3.569   5.916  16.535  1.5775  0.8648 -1.1163
 9863TIP3    H251081   3.703   5.848  16.545  0.3871 -1.6737 -1.9717
 9864TIP3   OH251082   0.168   0.710   3.127  0.3266 -0.2035 -0.4794
 9864TIP3    H151083   0.085   0.746   3.096  0.2177  0.0861  0.1382
 9864TIP3    H251084   0.198   0.772   3.193 -0.4528 -1.8352  1.4808
 9865TIP3   OH251085   3.281   0.486  16.255  0.3608 -0.1797  0.4001
 9865TIP3    H151086   3.280   0.522  16.344  2.5873  0.0468  0.3766
 9865TIP3    H251087   3.276   0.564  16.198  0.7855 -0.1949  0.3394
 9866TIP3   OH251088   3.220   0.122   2.930  0.2383  0.6217  0.7851
 9866TIP3    H151089   3.160   0.070   2.876  0.9761 -1.5085  1.9905
 9866TIP3    H251090   3.284   0.157   2.868 -0.7997  0.8494 -0.1647
 9867TIP3   OH251091   1.680   1.056  14.259 -0.0456  0.5472 -0.1733
 9867TIP3    H151092   1.720   0.978  14.222  0.1000 -0.4422  2.0161
 9867TIP3    H251093   1.587   1.048  14.236 -0.2492 -0.9042  1.0806
 9868TIP3   OH251094   0.023   4.435   0.365 -0.0413  0.1256  0.4717
 9868TIP3    H151095  -0.043   4.397   0.307 -0.2303 -1.1456  1.4813
 9868TIP3    H251096   0.029   4.527   0.339  0.3118 -0.5615 -1.9379
 9869TIP3   OH251097   5.875   1.553   5.459  0.2432 -0.2261  0.4909
 9869TIP3    H151098   5.782   1.542   5.477  0.6761 -1.4921  2.0329
 9869TIP3    H251099   5.897   1.638   5.497 -0.7893  1.2210 -2.0377
 9870TIP3   OH251100   4.135   2.350  15.722 -0.3210 -0.5553  0.0951
 9870TIP3    H151101   4.103   2.378  15.636  0.2097  0.1293  0.1193
 9870TIP3    H251102   4.063   2.299  15.759 -0.9351  0.0059 -0.3261
 9871TIP3   OH251103   1.595   2.653  12.979  0.1589  0.3221  0.0505
 9871TIP3    H151104   1.587   2.558  12.970 -0.2310  0.4463 -0.9971
 9871TIP3    H251105   1.514   2.688  12.942 -0.7371  0.9776  2.5536
 9872TIP3   OH251106   2.276   0.816   2.577 -0.1583  0.0641  0.6474
 9872TIP3    H151107   2.231   0.748   2.627  1.4616 -0.9599  0.7450
 9872TIP3    H251108   2.367   0.812   2.607  1.0812 -1.2017 -2.9375
 9873TIP3   OH251109   3.682   1.695   1.319 -1.0767  0.3861  0.0130
 9873TIP3    H151110   3.675   1.600   1.327 -0.7945  0.3296 -0.4229
 9873TIP3    H251111   3.619   1.728   1.384 -0.5375 -0.0835  0.7851
 9874TIP3   OH251112   5.024   5.400   1.780  0.2050  0.2360  0.3526
 9874TIP3    H151113   4.940   5.360   1.756 -1.3744  3.2490  0.5190
 9874TIP3    H251114   5.065   5.422   1.697  0.0407  0.2899  0.2853
 9875TIP3   OH251115   1.871   5.084  17.113  0.0985 -0.0071 -0.5991
 9875TIP3    H151116   1.879   5.100  17.207  0.1975  0.9501 -0.7683
 9875TIP3    H251117   1.799   5.141  17.085 -0.6167 -1.0457 -0.9254
 9876TIP3   OH251118   6.691   1.227   0.116  0.1115  0.0942 -0.1201
 9876TIP3    H151119   6.625   1.250   0.050  0.3266 -1.7466 -1.0037
 9876TIP3    H251120   6.771   1.268   0.085  0.0104 -0.0078 -0.5174
 9877TIP3   OH251121   6.180   0.139   2.911 -0.1482 -0.1703  0.0839
 9877TIP3    H151122   6.134   0.128   2.827  1.7807  0.1483 -1.0631
 9877TIP3    H251123   6.168   0.055   2.956 -2.5731  0.2219  0.2133
 9878TIP3   OH251124   2.736   2.189   5.153 -0.1243  0.6653 -0.3354
 9878TIP3    H151125   2.802   2.253   5.125  1.5722 -0.6165  0.6466
 9878TIP3    H251126   2.772   2.153   5.234 -2.2063  0.1694  0.3755
 9879TIP3   OH251127   5.146   1.416   4.912 -0.0615  0.3281  0.4099
 9879TIP3    H151128   5.135   1.510   4.893 -1.7060  0.5026  2.1712
 9879TIP3    H251129   5.169   1.378   4.827  0.2209  2.2572 -0.4197
 9880TIP3   OH251130   5.273   4.261   1.550 -0.5103  0.1042  0.5310
 9880TIP3    H151131   5.186   4.263   1.508 -0.5938  1.5184  0.7355
 9880TIP3    H251132   5.258   4.294   1.638  0.3514  1.0983  0.3219
 9881TIP3   OH251133   6.420   0.395  14.914  0.3609 -0.7148 -1.0638
 9881TIP3    H151134   6.381   0.372  14.830  0.5221 -2.3694 -0.6904
 9881TIP3    H251135   6.354   0.449  14.957 -0.0165 -0.4694 -1.9303
 9882TIP3   OH251136   6.648   5.000  12.155  0.1577  0.4122  0.0661
 9882TIP3    H151137   6.699   4.939  12.208  2.2025 -0.0665 -2.3210
 9882TIP3    H251138   6.564   4.955  12.141 -0.0598  0.1670  2.1002
 9883TIP3   OH251139   5.553   0.649   6.549 -0.2330  0.7636  0.2904
 9883TIP3    H151140   5.460   0.625   6.544 -0.1290  0.5535 -0.8485
 9883TIP3    H251141   5.588   0.592   6.618 -0.4335 -0.9356 -0.9661
 9884TIP3   OH251142   1.651   3.869   1.211 -0.6890  0.3718  1.0470
 9884TIP3    H151143   1.572   3.918   1.190 -1.7105 -0.6040  2.4917
 9884TIP3    H251144   1.635   3.781   1.176  0.1617  0.4192  0.5117
 9885TIP3   OH251145   0.467   5.283   3.101  0.2906  0.3049  0.1283
 9885TIP3    H151146   0.482   5.189   3.100  0.1666  0.2900 -0.1138
 9885TIP3    H251147   0.550   5.321   3.070 -1.0502  0.1246 -3.9190
 9886TIP3   OH251148   1.141   0.402   2.678  0.1770  0.1082  0.3423
 9886TIP3    H151149   1.150   0.456   2.599  0.7331  0.6195  0.7551
 9886TIP3    H251150   1.048   0.379   2.681 -0.3620  2.3226  1.0137
 9887TIP3   OH251151   5.268   3.526  14.741 -0.0584  0.1749  0.7803
 9887TIP3    H151152   5.339   3.464  14.725  0.4035  0.6984  0.7719
 9887TIP3    H251153   5.189   3.472  14.747 -0.0333 -0.1892 -1.6730
 9888TIP3   OH251154   4.708   5.128  12.503 -0.0032  0.1201 -0.1261
 9888TIP3    H151155   4.641   5.157  12.565 -0.2037 -0.6762  0.0497
 9888TIP3    H251156   4.778   5.093  12.558 -0.8244 -1.9701 -0.3418
 9889TIP3   OH251157   5.156   4.159   0.284  0.1536 -0.1608  0.1212
 9889TIP3    H151158   5.150   4.147   0.189 -1.3194 -0.6096  0.2552
 9889TIP3    H251159   5.247   4.137   0.305 -0.3247 -3.1814 -0.7532
 9890TIP3   OH251160   0.818   2.996  13.192  0.1862 -0.1297  0.0035
 9890TIP3    H151161   0.822   3.073  13.136  1.1587  0.5079  0.9228
 9890TIP3    H251162   0.791   3.030  13.277  1.6158 -0.6381  0.6804
 9891TIP3   OH251163   3.037   6.316  12.206 -0.5904  0.4110 -0.0442
 9891TIP3    H151164   3.083   6.369  12.270 -0.4566 -2.5109  2.3914
 9891TIP3    H251165   2.947   6.314  12.236 -0.7397 -0.1295 -0.5138
 9892TIP3   OH251166   3.220   4.666  14.764 -0.2393  0.3241 -0.1260
 9892TIP3    H151167   3.173   4.748  14.749 -1.5052 -0.4360 -0.3776
 9892TIP3    H251168   3.304   4.693  14.803  0.0589  1.8446 -1.7305
 9893TIP3   OH251169   5.417   4.783  15.856 -0.5281  0.0218 -0.0588
 9893TIP3    H151170   5.445   4.843  15.925  1.1003 -1.0098  0.2093
 9893TIP3    H251171   5.327   4.760  15.879  0.2218 -0.8351  2.1285
 9894TIP3   OH251172   2.666   6.335  11.703 -0.5758  0.2643  0.2253
 9894TIP3    H151173   2.729   6.339  11.774  0.3732  1.0210 -0.6539
 9894TIP3    H251174   2.641   6.426  11.688 -0.5912  0.1318 -0.5690
 9895TIP3   OH251175   4.112   5.217  13.372  0.6427  0.4880 -0.1953
 9895TIP3    H151176   4.028   5.203  13.329  0.3530 -0.3973  0.6524
 9895TIP3    H251177   4.128   5.137  13.422  1.5357  1.0282  0.4055
 9896TIP3   OH251178   4.326   6.581   5.887 -0.2579  0.0704  0.1856
 9896TIP3    H151179   4.279   6.645   5.834  2.0193 -1.6812 -4.2020
 9896TIP3    H251180   4.389   6.632   5.937 -0.5706  1.5583 -0.9055
 9897TIP3   OH251181   4.225   1.068  14.446  0.3067  1.1114 -0.0647
 9897TIP3    H151182   4.305   1.055  14.394 -0.3002  0.1648 -0.7791
 9897TIP3    H251183   4.177   0.986  14.436 -0.3244  1.3270  1.1300
 9898TIP3   OH251184   4.381   1.127  16.594 -0.2657  0.7538 -0.5668
 9898TIP3    H151185   4.470   1.120  16.630  0.3535  0.1000 -2.1617
 9898TIP3    H251186   4.391   1.100  16.503 -2.3486 -0.6122 -0.4135
 9899TIP3   OH251187   3.537   2.149  13.191 -0.2293  0.6223 -0.5468
 9899TIP3    H151188   3.495   2.106  13.116  0.7906 -0.6077 -0.4264
 9899TIP3    H251189   3.627   2.163  13.164 -0.0567  0.9141  0.1562
 9900TIP3   OH251190   4.655   6.557   4.621  0.7061 -0.0286  0.1469
 9900TIP3    H151191   4.576   6.571   4.675  0.0612 -1.4296 -0.4165
 9900TIP3    H251192   4.714   6.507   4.678  1.2649  1.1261  0.6125
 9901TIP3   OH251193   1.791   2.146  13.290 -0.3949 -0.2470  0.4139
 9901TIP3    H151194   1.790   2.092  13.211  0.0507 -0.2596  0.4155
 9901TIP3    H251195   1.816   2.233  13.258  2.4968 -0.8516  0.9095
 9902TIP3   OH251196   4.815   0.279  11.547  0.0963 -0.1354 -0.2625
 9902TIP3    H151197   4.856   0.220  11.610 -1.4628 -1.2928 -0.3284
 9902TIP3    H251198   4.864   0.264  11.465  1.6626  0.8688  0.4556
 9903TIP3   OH251199   4.181   4.611  10.898 -0.6307 -0.0174  0.3282
 9903TIP3    H151200   4.142   4.524  10.905  1.0170 -0.6920  1.1753
 9903TIP3    H251201   4.231   4.608  10.816 -1.2584  0.4143 -0.0730
 9904TIP3   OH251202   6.574   2.809   2.331  0.0629  0.3280 -0.1999
 9904TIP3    H151203   6.520   2.877   2.290 -1.7250 -1.7002 -1.2980
 9904TIP3    H251204   6.511   2.745   2.364  1.6543  0.1283  2.5271
 9905TIP3   OH251205   5.338   2.992   5.284  0.3651 -0.1409  0.3830
 9905TIP3    H151206   5.314   3.059   5.220  0.8301  0.2420  0.6064
 9905TIP3    H251207   5.353   3.040   5.365  0.2889 -0.5649  0.6544
 9906TIP3   OH251208   6.028   6.068   3.791  0.6985 -0.4982 -0.1364
 9906TIP3    H151209   5.938   6.057   3.760  1.6022  0.9300 -3.4189
 9906TIP3    H251210   6.075   5.991   3.760  0.7740 -0.9825  1.1207
 9907TIP3   OH251211   1.826   2.075  16.660 -0.4085 -0.4221 -0.0188
 9907TIP3    H151212   1.861   2.016  16.593  0.0048 -0.0519 -0.1277
 9907TIP3    H251213   1.889   2.147  16.664  0.2841 -1.0757  1.6974
 9908TIP3   OH251214   5.840   2.990   5.660 -0.0700  0.1978 -0.2087
 9908TIP3    H151215   5.780   2.961   5.591  0.0830  0.1168 -0.3076
 9908TIP3    H251216   5.905   2.920   5.666 -0.1754  0.1305  0.1310
 9909TIP3   OH251217   3.683   0.167   2.011 -0.1520 -0.0621 -0.4502
 9909TIP3    H151218   3.608   0.218   1.980 -0.0589  0.3960  0.0875
 9909TIP3    H251219   3.738   0.230   2.057  0.6132 -0.3793 -0.9198
 9910TIP3   OH251220   5.076   0.441   4.506 -0.1312  0.4135 -0.6366
 9910TIP3    H151221   5.159   0.474   4.472  0.6984 -1.4660 -0.4824
 9910TIP3    H251222   5.011   0.468   4.441  1.0236 -0.6527 -2.2755
 9911TIP3   OH251223   2.100   4.049  15.285 -0.1220  0.1614  0.7073
 9911TIP3    H151224   2.173   4.081  15.338  0.8970  2.3876 -1.8753
 9911TIP3    H251225   2.023   4.090  15.323  0.5525  1.4792  0.6988
 9912TIP3   OH251226   6.746   4.861   5.197 -0.1856  0.9089  0.0245
 9912TIP3    H151227   6.788   4.927   5.142 -1.8042  1.9968  0.0693
 9912TIP3    H251228   6.716   4.909   5.274 -0.5433 -0.0601  0.5046
 9913TIP3   OH251229   5.034   0.611  13.681  0.5813  0.6322  0.3856
 9913TIP3    H151230   4.987   0.636  13.760 -0.1204  2.4104 -0.5641
 9913TIP3    H251231   5.040   0.516  13.685 -3.5913  0.2811  0.2699
 9914TIP3   OH251232   3.866   3.158  13.975 -0.3562 -0.0842 -0.2941
 9914TIP3    H151233   3.910   3.241  13.958 -0.3337 -0.0260  0.0546
 9914TIP3    H251234   3.797   3.154  13.910 -1.2537  0.8647  0.5936
 9915TIP3   OH251235   4.037   1.065  17.272  0.0021 -0.7140  0.0167
 9915TIP3    H151236   4.084   0.987  17.244  2.1246 -0.2621  2.1251
 9915TIP3    H251237   4.097   1.137  17.252  0.1130 -0.0878  2.4595
 9916TIP3   OH251238   6.178   3.962   4.279 -0.7622  0.2868  0.0270
 9916TIP3    H151239   6.133   3.917   4.351  0.6718 -1.4706 -0.1372
 9916TIP3    H251240   6.262   3.916   4.271  0.5420  2.7096 -0.5001
 9917TIP3   OH251241   0.833   6.206   0.421 -0.1767 -0.2796 -0.1237
 9917TIP3    H151242   0.754   6.214   0.475 -1.5990  1.2768 -2.3400
 9917TIP3    H251243   0.816   6.129   0.367  0.7143 -1.1147  0.7677
 9918TIP3   OH251244   0.276   6.244  14.736 -0.1053 -0.2996 -0.3576
 9918TIP3    H151245   0.367   6.220  14.751  0.5648  1.9833 -0.5786
 9918TIP3    H251246   0.257   6.212  14.648  0.7281 -0.0964 -0.6162
 9919TIP3   OH251247   0.531   5.810  13.451  0.0310 -0.6145  0.3974
 9919TIP3    H151248   0.616   5.770  13.468 -0.0211 -0.3852  1.2273
 9919TIP3    H251249   0.517   5.798  13.357  0.5907 -1.4127  0.4074
 9920TIP3   OH251250   0.897   0.005  12.610 -0.6311  0.1129  0.3828
 9920TIP3    H151251   0.959  -0.033  12.547 -0.9264 -0.2621  0.3191
 9920TIP3    H251252   0.946   0.076  12.652 -0.0933 -0.2988  0.4556
 9921TIP3   OH251253   2.390   1.217   1.571  0.0373 -0.2382  0.2339
 9921TIP3    H151254   2.368   1.302   1.533 -0.9464  0.0169  1.3394
 9921TIP3    H251255   2.481   1.226   1.599  0.4542 -0.1040 -1.1410
 9922TIP3   OH251256   0.586   6.300  11.167  0.4518  0.4717 -0.0570
 9922TIP3    H151257   0.668   6.304  11.217 -0.1273  0.8142  0.8819
 9922TIP3    H251258   0.543   6.383  11.185  0.0759  0.4608 -0.8732
 9923TIP3   OH251259   4.552   3.890   5.621 -0.2040 -0.0562  0.3149
 9923TIP3    H151260   4.626   3.829   5.623  1.1002  1.4775  0.1395
 9923TIP3    H251261   4.490   3.855   5.685 -0.1702 -2.3909 -0.8964
 9924TIP3   OH251262   6.309   0.434  13.232 -0.1609 -0.1256  0.7676
 9924TIP3    H151263   6.272   0.371  13.293  1.7186 -0.6472  1.4069
 9924TIP3    H251264   6.238   0.454  13.171 -1.0658 -2.1036  1.1488
 9925TIP3   OH251265   0.140   5.885   5.139  0.1137 -0.6941  0.2483
 9925TIP3    H151266   0.093   5.884   5.222 -0.8665 -0.6644 -0.2995
 9925TIP3    H251267   0.086   5.833   5.080 -0.7031  1.6943 -1.1704
 9926TIP3   OH251268   1.049   4.610   3.348 -0.4614  0.1433 -0.0308
 9926TIP3    H151269   1.094   4.658   3.418  0.6881 -1.0633  0.0835
 9926TIP3    H251270   1.012   4.679   3.292  0.8711  1.1719  0.3174
 9927TIP3   OH251271   0.250   5.937   2.858  0.0734  0.4953 -0.2136
 9927TIP3    H151272   0.187   6.006   2.839  0.6346  0.9763 -0.3657
 9927TIP3    H251273   0.288   5.916   2.772  0.0905  0.1924 -0.1295
 9928TIP3   OH251274   3.323   6.451  15.133 -0.3694 -0.2947  0.0846
 9928TIP3    H151275   3.263   6.526  15.128  0.9464  0.9358  2.2546
 9928TIP3    H251276   3.273   6.382  15.177 -0.6507  0.2728  0.6549
 9929TIP3   OH251277   0.983   2.529   1.364  0.5734  0.9200 -0.1808
 9929TIP3    H151278   0.902   2.479   1.378  1.4710 -0.6755 -0.5250
 9929TIP3    H251279   0.954   2.616   1.339 -1.0556  0.0884 -1.2584
 9930TIP3   OH251280   3.912   5.979  15.343 -0.0923 -0.0674  0.4099
 9930TIP3    H151281   3.892   6.071  15.359  3.3533  0.5227  1.6924
 9930TIP3    H251282   3.902   5.937  15.428  0.0962 -0.5125  0.2142
 9931TIP3   OH251283   1.864   1.801  14.813  0.2680 -0.0208  0.5468
 9931TIP3    H151284   1.857   1.709  14.789 -0.9021  1.0265 -3.4963
 9931TIP3    H251285   1.955   1.825  14.792  0.1761  0.0817  0.2611
 9932TIP3   OH251286   3.310   3.167   0.915  0.5710  0.4559 -0.1233
 9932TIP3    H151287   3.286   3.209   0.998  1.1707  0.9678 -0.2062
 9932TIP3    H251288   3.385   3.217   0.884 -0.3217  0.9586 -1.5181
 9933TIP3   OH251289   4.969   0.302  13.387  0.2275 -0.5127  0.0638
 9933TIP3    H151290   5.019   0.243  13.330  1.2672  1.3525 -1.0104
 9933TIP3    H251291   4.882   0.305  13.347  0.3201 -0.9139 -0.1745
 9934TIP3   OH251292   2.180   2.029   1.926  0.0709 -0.2231 -0.2595
 9934TIP3    H151293   2.214   2.005   1.840  0.2337 -0.5507 -0.1022
 9934TIP3    H251294   2.219   1.966   1.987 -0.3132 -0.2075  0.0093
 9935TIP3   OH251295   5.606   0.999   5.985 -0.1995  0.5834 -0.0592
 9935TIP3    H151296   5.525   0.987   6.033 -0.8260  0.4072 -1.1344
 9935TIP3    H251297   5.674   0.964   6.042 -1.1889 -1.7813 -0.2802
 9936TIP3   OH251298   3.710   5.001   5.721  0.0738 -0.0970 -0.0837
 9936TIP3    H151299   3.748   4.997   5.633 -0.8473 -0.3292 -0.4794
 9936TIP3    H251300   3.713   4.911   5.752  0.0849 -0.0720 -0.0130
 9937TIP3   OH251301   1.566   6.106  12.499  0.2319  0.1188 -0.4719
 9937TIP3    H151302   1.621   6.035  12.466  0.1561 -0.2569  0.2030
 9937TIP3    H251303   1.537   6.077  12.585  0.5630  1.1681  0.0070
 9938TIP3   OH251304   5.777   5.402   5.703 -0.4191 -0.2603 -0.0063
 9938TIP3    H151305   5.696   5.369   5.742 -0.0544 -0.2878  0.7249
 9938TIP3    H251306   5.749   5.444   5.622 -0.9130 -2.2636 -0.9054
 9939TIP3   OH251307   3.485   3.423   1.655 -0.0716  0.1246 -0.0616
 9939TIP3    H151308   3.416   3.391   1.713  2.3099 -1.7366  1.8029
 9939TIP3    H251309   3.504   3.348   1.598  1.4243  0.1230  0.4252
 9940TIP3   OH251310   3.499   6.515  14.260  0.4822  0.4867 -0.3446
 9940TIP3    H151311   3.530   6.605  14.265  0.9713  0.3592 -0.9669
 9940TIP3    H251312   3.550   6.476  14.189  1.3694 -0.6983  0.8873
 9941TIP3   OH251313   1.508   2.586   2.892  0.6220  0.3130 -1.0561
 9941TIP3    H151314   1.546   2.642   2.824 -0.8044  2.4599 -0.1646
 9941TIP3    H251315   1.515   2.639   2.972  0.4042 -1.3408  0.0837
 9942TIP3   OH251316   6.321   3.300   2.919 -0.1081  0.2407  0.0688
 9942TIP3    H151317   6.226   3.307   2.912 -0.0395  0.7824 -0.4155
 9942TIP3    H251318   6.350   3.280   2.830  0.1252 -1.3145  0.4832
 9943TIP3   OH251319   6.327   3.369  13.677  0.4019  0.3562 -0.6459
 9943TIP3    H151320   6.418   3.397  13.668  0.3049  0.5840 -0.8947
 9943TIP3    H251321   6.325   3.282  13.638  0.8897 -0.3676  0.8741
 9944TIP3   OH251322   1.401   5.780   5.807 -0.1337  0.4960 -0.0035
 9944TIP3    H151323   1.310   5.802   5.825 -0.6303  0.0467 -1.8348
 9944TIP3    H251324   1.450   5.818   5.880 -1.9018 -0.3695  1.6591
 9945TIP3   OH251325   2.255   6.731  10.950 -0.6281 -0.0367 -0.2802
 9945TIP3    H151326   2.337   6.682  10.952 -0.4823  0.2481  0.8686
 9945TIP3    H251327   2.281   6.821  10.930 -0.9045 -0.4098 -2.4873
 9946TIP3   OH251328   4.223   5.920  14.234 -0.2119  0.1840 -0.5315
 9946TIP3    H151329   4.281   5.974  14.288  0.7561 -2.6436  1.3674
 9946TIP3    H251330   4.270   5.911  14.151  1.4934 -1.0080  0.5383
 9947TIP3   OH251331   2.466   5.276  15.975  0.4859  0.0468 -0.1791
 9947TIP3    H151332   2.389   5.233  15.939 -0.2744  0.9107  0.3955
 9947TIP3    H251333   2.456   5.368  15.950  2.0396 -0.0846 -1.3148
 9948TIP3   OH251334   1.745   6.600   6.033  0.1866 -0.6008 -0.2855
 9948TIP3    H151335   1.803   6.546   6.087 -0.7799 -1.5128 -0.1451
 9948TIP3    H251336   1.689   6.645   6.096 -0.6320 -1.3120 -0.4888
 9949TIP3   OH251337   0.319   5.161  15.244  0.3651  0.0604  0.3802
 9949TIP3    H151338   0.400   5.207  15.221  0.3888 -1.5174 -2.8618
 9949TIP3    H251339   0.278   5.217  15.310  3.5110  1.4653  1.2521
 9950TIP3   OH251340   4.292   5.976   3.141 -0.3947 -0.3373 -0.1808
 9950TIP3    H151341   4.283   6.069   3.125 -1.9920 -0.5352 -0.5320
 9950TIP3    H251342   4.239   5.960   3.219  1.1038 -0.7004  0.7910
 9951TIP3   OH251343   5.311   5.704  15.168  0.7584 -0.1167  0.5148
 9951TIP3    H151344   5.235   5.712  15.110  0.7029  0.0481  0.6093
 9951TIP3    H251345   5.293   5.626  15.221 -0.0344  0.7367  1.5341
 9952TIP3   OH251346   1.412   1.761   0.795  0.3548 -0.5674  0.1093
 9952TIP3    H151347   1.406   1.827   0.864  1.1709  0.5475 -0.8460
 9952TIP3    H251348   1.378   1.681   0.834  0.3227  0.1730  1.6280
 9953TIP3   OH251349   2.600   0.842   2.479  0.3412 -0.7800  0.0584
 9953TIP3    H151350   2.621   0.898   2.554  0.1539 -0.9083  0.2112
 9953TIP3    H251351   2.608   0.753   2.514  2.2851 -0.8853 -0.6383
 9954TIP3   OH251352   1.558   6.376   0.742 -0.2766  0.0160 -0.6175
 9954TIP3    H151353   1.634   6.322   0.722  1.1867  0.1715  3.9514
 9954TIP3    H251354   1.576   6.460   0.700  2.9419  0.6079  1.8136
 9955TIP3   OH251355   0.303   5.556  17.199 -0.0393 -0.5764  0.0931
 9955TIP3    H151356   0.327   5.474  17.156 -0.4088  0.4682 -2.1371
 9955TIP3    H251357   0.209   5.550  17.213 -0.0849 -0.4671 -0.1776
 9956TIP3   OH251358   3.898   0.257   6.220  0.0638 -0.2130 -0.2889
 9956TIP3    H151359   3.979   0.266   6.271 -1.3773 -0.1990  2.0861
 9956TIP3    H251360   3.904   0.170   6.181  0.3471 -1.0326  1.5187
 9957TIP3   OH251361   6.491   6.424   4.093 -0.2912 -0.4420 -0.3676
 9957TIP3    H151362   6.483   6.340   4.049  1.1437  1.4093 -4.3619
 9957TIP3    H251363   6.421   6.478   4.056 -0.2549  0.6028  1.0244
 9958TIP3   OH251364   2.952   3.990  14.459  0.0841 -0.1007 -0.0707
 9958TIP3    H151365   2.939   4.006  14.366  0.6366 -0.7197 -0.2597
 9958TIP3    H251366   3.042   3.956  14.465 -0.0801 -0.4196  0.6401
 9959TIP3   OH251367   0.978   6.177  10.502  0.2332  0.6561 -0.6163
 9959TIP3    H151368   0.927   6.240  10.452 -1.0925 -0.5740 -0.8401
 9959TIP3    H251369   0.941   6.180  10.590 -1.8671 -1.9504 -1.3534
 9960TIP3   OH251370   4.306   4.000   1.902 -0.0811  0.4927 -0.1802
 9960TIP3    H151371   4.267   3.976   1.986 -3.5768 -0.5539 -2.0140
 9960TIP3    H251372   4.374   3.934   1.888 -0.6278 -0.3610  1.0528
 9961TIP3   OH251373   6.268   0.687  11.106  0.1774  0.5738 -0.3603
 9961TIP3    H151374   6.251   0.594  11.090  2.4457  0.2281 -0.9702
 9961TIP3    H251375   6.231   0.732  11.030 -2.3283  0.3404  0.6891
 9962TIP3   OH251376   0.416   2.102   3.207  0.0502  0.0940  0.5248
 9962TIP3    H151377   0.331   2.071   3.238 -1.1421  2.3292 -0.3904
 9962TIP3    H251378   0.470   2.106   3.286 -0.7150 -1.2492  1.1311
 9963TIP3   OH251379   2.381   2.271  14.425  0.4266  0.1952 -0.0301
 9963TIP3    H151380   2.420   2.338  14.369  1.5429 -0.2799  0.1683
 9963TIP3    H251381   2.361   2.199  14.366 -0.5553  0.5947 -0.2022
 9964TIP3   OH251382   1.337   6.593  14.563 -0.4058  0.1840  0.1749
 9964TIP3    H151383   1.309   6.635  14.644 -2.4456 -0.1895 -0.3258
 9964TIP3    H251384   1.306   6.651  14.493 -1.6962 -1.2348 -0.4509
 9965TIP3   OH251385   4.760   5.314   0.514 -0.5236 -0.6695  0.0422
 9965TIP3    H151386   4.683   5.370   0.514 -1.0255 -1.3594 -0.8944
 9965TIP3    H251387   4.807   5.337   0.434 -1.2258 -2.2468 -0.8396
 9966TIP3   OH251388   0.585   6.422  10.363  0.3660  0.5737 -0.2459
 9966TIP3    H151389   0.523   6.358  10.398  0.2746  1.4884  1.2962
 9966TIP3    H251390   0.532   6.500  10.346  0.3466  0.0518 -2.7711
 9967TIP3   OH251391   1.750   2.672   1.131 -0.2955  0.2244 -0.0866
 9967TIP3    H151392   1.655   2.660   1.140 -0.2001 -0.8996 -0.4819
 9967TIP3    H251393   1.786   2.649   1.216 -0.4561  1.6219  0.3698
 9968TIP3   OH251394   3.247   0.818  13.531 -0.8318  0.1110 -0.1181
 9968TIP3    H151395   3.299   0.881  13.481  0.4829 -1.2684 -0.5310
 9968TIP3    H251396   3.211   0.869  13.604  1.2692  1.0786  0.2813
 9969TIP3   OH251397   3.268   4.056  12.610  0.4139  0.0669 -0.6820
 9969TIP3    H151398   3.221   4.092  12.685  0.7941 -1.4423  0.2903
 9969TIP3    H251399   3.354   4.032  12.644  0.7107 -0.3173 -1.6731
 9970TIP3   OH251400   5.971   4.868   3.223 -0.2606 -1.0448 -0.0308
 9970TIP3    H151401   5.947   4.845   3.312  0.3456 -0.4168  0.2999
 9970TIP3    H251402   6.001   4.959   3.229  0.4488 -1.2250 -0.7474
 9971TIP3   OH251403   5.284   1.370   6.743  0.2581  0.0931 -0.0034
 9971TIP3    H151404   5.297   1.302   6.677  1.4776 -1.0011  1.3354
 9971TIP3    H251405   5.315   1.450   6.701  0.9970 -0.5842 -0.7749
 9972TIP3   OH251406   0.723   5.288   3.299 -0.1418 -0.1629  0.1919
 9972TIP3    H151407   0.644   5.342   3.290  0.4700  0.6015 -0.6958
 9972TIP3    H251408   0.792   5.350   3.321  0.0216 -0.9606  2.0406
 9973TIP3   OH251409   6.377   4.793  12.484 -0.2146 -0.0926 -0.2954
 9973TIP3    H151410   6.282   4.795  12.493 -0.2389  1.1360 -0.7533
 9973TIP3    H251411   6.393   4.810  12.391  0.3554 -3.4695 -0.8851
 9974TIP3   OH251412   2.835   2.192   5.417  0.4187  0.1712  0.4348
 9974TIP3    H151413   2.858   2.283   5.401  0.5381 -0.2896 -2.3071
 9974TIP3    H251414   2.876   2.171   5.501  2.2398  2.0312  0.0596
 9975TIP3   OH251415   0.034   5.690  12.351  0.0163 -0.3746 -0.2266
 9975TIP3    H151416   0.065   5.778  12.375  0.8096 -0.5569 -0.5695
 9975TIP3    H251417   0.066   5.633  12.421  0.9204 -0.6440 -0.8440
 9976TIP3   OH251418   2.847   1.443  11.983 -0.3945  0.4051 -0.1400
 9976TIP3    H151419   2.911   1.376  11.959 -0.6221  0.0592  0.2184
 9976TIP3    H251420   2.894   1.526  11.972 -0.3221  0.2314 -1.2523
 9977TIP3   OH251421   6.224   2.376  14.931 -0.5373 -0.2925  0.2813
 9977TIP3    H151422   6.221   2.286  14.963  1.6478 -2.2516 -4.4585
 9977TIP3    H251423   6.317   2.393  14.917 -1.0950  1.8981 -1.0063
 9978TIP3   OH251424   6.639   6.134   4.219 -0.2050  0.7975  0.7319
 9978TIP3    H151425   6.677   6.048   4.234 -1.5229 -0.2609 -1.7551
 9978TIP3    H251426   6.713   6.194   4.227  0.9964 -0.7016  1.1653
 9979TIP3   OH251427   3.458   3.061   5.872  0.0163 -0.3424  0.7619
 9979TIP3    H151428   3.521   3.131   5.886 -0.0244  0.4682 -2.5740
 9979TIP3    H251429   3.373   3.100   5.894  0.3056 -0.3431  1.9019
 9980TIP3   OH251430   0.505   1.984  13.867 -0.0174  0.1568 -0.3044
 9980TIP3    H151431   0.522   2.049  13.935 -0.7350  0.3547 -0.3022
 9980TIP3    H251432   0.502   1.901  13.914 -0.9864  0.3455 -0.0029
 9981TIP3   OH251433   4.069   2.030  10.488  0.3593  0.5311  0.0710
 9981TIP3    H151434   4.130   2.031  10.561  0.6671  0.7088 -0.1852
 9981TIP3    H251435   4.105   2.094  10.426  0.6068 -0.2976 -0.6501
 9982TIP3   OH251436   2.909   2.843  15.572  0.1318  0.4163 -0.0601
 9982TIP3    H151437   2.928   2.937  15.573 -3.8716  1.3645 -1.8332
 9982TIP3    H251438   2.894   2.823  15.479 -0.1291 -1.7227  0.4155
 9983TIP3   OH251439   3.665   4.929  12.769 -0.1926 -0.1593 -0.2749
 9983TIP3    H151440   3.689   4.836  12.769 -1.5019 -0.5204  0.8237
 9983TIP3    H251441   3.607   4.940  12.694 -1.8007 -0.7359  0.8524
 9984TIP3   OH251442   3.974   3.717   4.480  0.6600  0.1520  0.3986
 9984TIP3    H151443   4.001   3.635   4.519  1.1873 -0.3893 -1.0631
 9984TIP3    H251444   3.879   3.707   4.466  0.4379  0.4153  1.6488
 9985TIP3   OH251445   0.760   4.049   2.504 -0.9574  0.4112  0.4359
 9985TIP3    H151446   0.668   4.066   2.522 -0.9227  0.3613  0.6694
 9985TIP3    H251447   0.786   4.118   2.444 -0.7435  1.3733  1.6098
 9986TIP3   OH251448   2.629   2.343  13.821  0.2754 -0.3484 -0.3025
 9986TIP3    H151449   2.554   2.326  13.877  0.6133 -1.8392 -0.2884
 9986TIP3    H251450   2.673   2.258  13.812  1.5518  0.3527 -0.8926
 9987TIP3   OH251451   5.021   3.482   0.170  0.1064  0.1338  0.4462
 9987TIP3    H151452   5.021   3.570   0.132 -0.4159 -0.0668 -0.0340
 9987TIP3    H251453   4.984   3.427   0.101 -0.7655 -0.2594  1.2148
 9988TIP3   OH251454   4.543   0.611  12.323 -0.4334 -0.2019 -0.0892
 9988TIP3    H151455   4.628   0.595  12.365  0.5992 -1.2228 -2.5154
 9988TIP3    H251456   4.502   0.525  12.318 -0.8514  0.0248 -0.5826
 9989TIP3   OH251457   0.625   5.771  13.755 -0.4236 -0.2317 -0.5406
 9989TIP3    H151458   0.656   5.681  13.744 -1.8642 -0.8951  0.6807
 9989TIP3    H251459   0.532   5.767  13.734 -0.9931  0.5065  1.7263
 9990TIP3   OH251460   0.743   1.123  14.223  0.3617  0.2058 -0.1409
 9990TIP3    H151461   0.806   1.118  14.295 -0.4652 -1.4305  0.4869
 9990TIP3    H251462   0.669   1.172  14.259  0.2501  0.0132 -0.1087
 9991TIP3   OH251463   6.212   6.269  13.000  0.6766  0.5506  0.0913
 9991TIP3    H151464   6.142   6.297  13.058  0.1689  1.2654 -0.8422
 9991TIP3    H251465   6.170   6.264  12.914  2.0005  1.9997 -0.6623
 9992TIP3   OH251466   0.009   5.416  12.767  0.6272 -0.0876  0.3987
 9992TIP3    H151467  -0.025   5.328  12.752  0.7217 -0.0555 -0.0171
 9992TIP3    H251468   0.080   5.403  12.830 -0.8670 -0.0093  2.1184
 9993TIP3   OH251469   3.302   4.239   3.321  0.2430 -0.1145 -0.1733
 9993TIP3    H151470   3.283   4.231   3.228 -0.5368 -0.8866  0.0392
 9993TIP3    H251471   3.308   4.149   3.352 -0.9291  0.1120  0.7874
 9994TIP3   OH251472   3.309   3.183   3.012  0.3506 -0.0840  0.3386
 9994TIP3    H151473   3.220   3.209   2.984  0.1847 -1.0105 -0.0169
 9994TIP3    H251474   3.367   3.235   2.956  0.0235 -0.0425  0.0312
 9995TIP3   OH251475   1.754   0.796   5.538  0.2184 -0.1426 -0.1023
 9995TIP3    H151476   1.776   0.743   5.614 -1.6107 -2.0465 -0.8203
 9995TIP3    H251477   1.712   0.734   5.477 -3.3891  2.3868 -0.3563
 9996TIP3   OH251478   1.585   4.624   5.765 -0.1092 -0.2536  0.2218
 9996TIP3    H151479   1.604   4.717   5.754 -0.4762 -0.1675  0.3101
 9996TIP3    H251480   1.524   4.604   5.694  0.6649 -0.6361 -0.3486
 9997TIP3   OH251481   6.575   0.174   1.707  0.6985  0.3757  0.3261
 9997TIP3    H151482   6.613   0.143   1.625 -0.2483 -0.3546  0.1562
 9997TIP3    H251483   6.641   0.153   1.774  0.6513 -0.7882  0.0210
 9998TIP3   OH251484   3.820   0.881  14.605 -0.2696  0.3801  0.2787
 9998TIP3    H151485   3.883   0.840  14.545 -1.7046  0.6948 -1.5133
 9998TIP3    H251486   3.861   0.963  14.631  0.1558  0.5041 -0.7458
 9999TIP3   OH251487   2.458   1.260   3.668 -0.0819  0.4886 -0.1781
 9999TIP3    H151488   2.552   1.279   3.661  0.4271 -2.0095 -0.7030
 9999TIP3    H251489   2.452   1.189   3.732 -1.7265  1.3096  0.6135
10000TIP3   OH251490   3.418   4.132   3.758 -0.6635 -0.1454 -0.1517
10000TIP3    H151491   3.339   4.080   3.742 -0.2739 -0.6195 -0.5696
10000TIP3    H251492   3.478   4.107   3.687 -0.0160 -0.0315  0.3462
10001TIP3   OH251493   3.681   0.155   4.063  1.1134 -0.5535 -0.1080
10001TIP3    H151494   3.681   0.094   4.137  1.0422 -1.2037 -0.6331
10001TIP3    H251495   3.637   0.233   4.096  1.7293 -0.5713  0.7506
10002TIP3   OH251496   0.132   5.913   0.904  0.2644 -0.0808  0.3526
10002TIP3    H151497   0.223   5.922   0.934  0.0509  0.5030  0.8216
10002TIP3    H251498   0.115   5.819   0.908  0.5136 -0.0903  1.2492
10003TIP3   OH251499   4.249   5.737  12.776 -0.2784  0.6798  0.2670
10003TIP3    H151500   4.232   5.708  12.686  0.0468 -1.4844  0.8692
10003TIP3    H251501   4.339   5.708  12.793 -0.4252  0.8794  1.3701
10004TIP3   OH251502   1.552   0.727   3.864  0.2964  0.5841  0.0814
10004TIP3    H151503   1.552   0.691   3.952 -1.5088  0.5346  0.0691
10004TIP3    H251504   1.638   0.702   3.828  0.7188 -0.0832  1.5170
10005TIP3   OH251505   0.008   6.380   4.258  0.2403 -0.0974 -0.3202
10005TIP3    H151506   0.070   6.425   4.201 -0.7916 -1.0041 -2.2223
10005TIP3    H251507  -0.067   6.439   4.262 -0.8707 -1.2876 -2.3321
10006TIP3   OH251508   6.216   0.754  14.288 -0.3569  0.5160 -0.4402
10006TIP3    H151509   6.171   0.835  14.311  1.1822  0.7699  1.8533
10006TIP3    H251510   6.266   0.776  14.209 -1.5623  1.1903 -1.0222
10007TIP3   OH251511   5.341   3.353   1.636 -0.2410  0.3358 -0.5695
10007TIP3    H151512   5.349   3.279   1.575  2.9420  1.4585 -1.6078
10007TIP3    H251513   5.366   3.430   1.585  0.2546  1.6144  1.5173
10008TIP3   OH251514   4.205   4.005   0.919 -0.3617  0.2408 -0.2513
10008TIP3    H151515   4.262   3.948   0.970 -1.4950  0.0401  0.8048
10008TIP3    H251516   4.201   3.965   0.832  0.2208 -0.3476 -0.0055
10009TIP3   OH251517   0.163   3.110  13.644 -0.3093  0.1751 -0.1179
10009TIP3    H151518   0.238   3.148  13.688  0.4490 -1.7124  0.2561
10009TIP3    H251519   0.200   3.051  13.579 -1.4655  0.2565 -0.8808
10010TIP3   OH251520   4.193   0.139   2.139  0.6446 -0.3919 -0.0843
10010TIP3    H151521   4.215   0.088   2.217  1.6178 -2.6004 -1.7570
10010TIP3    H251522   4.264   0.203   2.130  1.0344 -0.7751  0.2846
10011TIP3   OH251523   0.202   6.765   3.814  0.1228  0.2062  0.2133
10011TIP3    H151524   0.124   6.810   3.781 -0.2693 -0.0174  0.8021
10011TIP3    H251525   0.222   6.811   3.896  0.6640  0.3221  0.0112
10012TIP3   OH251526   4.373   3.469   3.169  0.0451  0.2416  0.0272
10012TIP3    H151527   4.283   3.449   3.193 -0.7656  3.2660 -0.2927
10012TIP3    H251528   4.382   3.563   3.184  3.1847  0.0072  0.1107
10013TIP3   OH251529   0.154   5.639   4.391  0.6993  0.1146 -0.1909
10013TIP3    H151530   0.114   5.711   4.439  0.0216  0.1948 -0.8772
10013TIP3    H251531   0.092   5.619   4.321  1.2054 -0.6789 -0.4191
10014TIP3   OH251532   0.834   3.299  16.827 -0.2560 -0.3710 -0.0930
10014TIP3    H151533   0.833   3.308  16.923  0.6637 -0.8018 -0.0271
10014TIP3    H251534   0.818   3.205  16.812  0.7977 -0.5223 -0.3080
10015TIP3   OH251535   5.229   1.108  16.229  0.2477 -1.0652  0.2451
10015TIP3    H151536   5.305   1.155  16.195  0.0358 -1.6897 -1.1517
10015TIP3    H251537   5.253   1.015  16.221 -0.6637 -1.2630 -0.2310
10016TIP3   OH251538   2.109   6.450  11.216 -0.6284 -0.2637 -0.6728
10016TIP3    H151539   2.048   6.454  11.143 -0.0153  1.2596 -1.1272
10016TIP3    H251540   2.179   6.393  11.185 -0.0087  0.9565 -1.5834
10017TIP3   OH251541   1.207   3.156  15.629  0.0149  0.4092 -0.1031
10017TIP3    H151542   1.165   3.235  15.596  1.3392  0.8151 -0.8402
10017TIP3    H251543   1.284   3.145  15.574 -0.9784 -2.2893 -1.0349
10018TIP3   OH251544   2.489   2.033   4.299 -0.3889 -0.1839 -0.1615
10018TIP3    H151545   2.443   2.111   4.328 -2.1995 -0.6655 -1.6341
10018TIP3    H251546   2.569   2.067   4.257 -1.2620  0.8832 -0.9798
10019TIP3   OH251547   4.077   0.919  13.288 -0.3952 -0.0595 -0.6107
10019TIP3    H151548   4.080   0.998  13.343  0.2952  0.8793 -1.9663
10019TIP3    H251549   4.031   0.854  13.342  0.1635  0.8709  1.0257
10020TIP3   OH251550   6.460   5.802   0.157  0.4972 -0.5471  0.4135
10020TIP3    H151551   6.513   5.828   0.232  1.0223  0.3730 -0.2578
10020TIP3    H251552   6.401   5.734   0.191  0.2745  0.3183  1.8187
10021TIP3   OH251553   3.910   4.657  17.053 -0.0650  0.2393 -0.1322
10021TIP3    H151554   3.981   4.709  17.015  0.5903 -0.1136  0.5840
10021TIP3    H251555   3.905   4.688  17.144 -0.4865 -0.1023 -0.0397
10022TIP3   OH251556   4.076   6.695  12.975  0.0720 -0.2046  0.7048
10022TIP3    H151557   4.051   6.784  12.950 -0.6032 -0.4643  0.4271
10022TIP3    H251558   3.999   6.642  12.953  0.5381 -0.8841  0.7035
10023TIP3   OH251559   6.462   0.865   5.487  0.1075  0.3486 -0.7008
10023TIP3    H151560   6.396   0.897   5.549  0.6719  1.6542 -0.7506
10023TIP3    H251561   6.516   0.805   5.539 -0.3477  0.2529 -0.3315
10024TIP3   OH251562   0.767   0.326  12.578  0.6110  0.2061  0.2535
10024TIP3    H151563   0.684   0.312  12.531  0.7217  1.2615 -0.2842
10024TIP3    H251564   0.758   0.275  12.659 -0.6221  0.4118  0.2571
10025TIP3   OH251565   5.810   0.240  16.053  0.1716  0.5505 -0.2040
10025TIP3    H151566   5.822   0.334  16.062  0.1241  0.3947  1.7358
10025TIP3    H251567   5.855   0.203  16.129 -1.9947 -0.8050  0.4635
10026TIP3   OH251568   3.756   6.157   3.347  0.3660  0.6027 -0.3532
10026TIP3    H151569   3.797   6.134   3.431  0.6609  0.5756 -0.5054
10026TIP3    H251570   3.705   6.235   3.366  1.7205  1.5478 -0.5223
10027TIP3   OH251571   3.147   1.405   2.176 -0.4710  0.2618 -0.6780
10027TIP3    H151572   3.240   1.398   2.156  0.0114  0.3261  1.4851
10027TIP3    H251573   3.123   1.320   2.213 -0.8445  0.8370  0.4301
10028TIP3   OH251574   3.062   4.163  15.995  0.1163  0.6131 -0.4071
10028TIP3    H151575   3.154   4.164  15.968  0.5662 -0.2849  1.0391
10028TIP3    H251576   3.056   4.230  16.063  0.3042 -1.0846  1.3283
10029TIP3   OH251577   6.264   6.217  10.666  0.1611 -0.2577 -0.3348
10029TIP3    H151578   6.342   6.214  10.611  0.4468 -2.0540  0.1444
10029TIP3    H251579   6.258   6.309  10.694  0.1235  0.6521 -3.1678
10030TIP3   OH251580   0.825   3.074   3.161 -0.3345 -0.3075 -0.6510
10030TIP3    H151581   0.760   3.009   3.191  0.8821 -0.9314  0.6887
10030TIP3    H251582   0.908   3.027   3.164  0.6910  1.5238  1.0855
10031TIP3   OH251583   3.436   3.901  16.192  0.0746 -0.0456 -0.2357
10031TIP3    H151584   3.357   3.908  16.245  0.9652 -1.0307  1.2760
10031TIP3    H251585   3.478   3.986  16.200 -0.3143  0.1410 -0.1821
10032TIP3   OH251586   6.525   4.209  14.327  0.0790 -0.3087 -0.0824
10032TIP3    H151587   6.440   4.219  14.283 -0.5593 -4.6228 -0.0893
10032TIP3    H251588   6.505   4.219  14.420 -0.3902 -0.9505 -0.1088
10033TIP3   OH251589   4.332   3.748  11.099  0.3596  0.0427  0.4518
10033TIP3    H151590   4.400   3.802  11.139 -0.9236  2.3465 -0.4337
10033TIP3    H251591   4.327   3.671  11.157  0.9425  1.6666  2.7611
10034TIP3   OH251592   3.212   2.864  16.880  0.1917  0.3267 -0.2531
10034TIP3    H151593   3.254   2.849  16.964  0.0609 -1.5902 -0.5003
10034TIP3    H251594   3.236   2.787  16.828  0.9184  1.8311 -2.2321
10035TIP3   OH251595   3.567   0.209  11.685  0.3105 -0.6406 -0.3026
10035TIP3    H151596   3.570   0.247  11.772 -2.0828 -0.3114 -0.3197
10035TIP3    H251597   3.540   0.118  11.699 -0.5827 -0.4516 -0.7015
10036TIP3   OH251598   6.061   5.349   4.126 -0.4677  0.1246  0.1167
10036TIP3    H151599   5.972   5.364   4.158 -1.1584 -1.4363 -0.9434
10036TIP3    H251600   6.074   5.416   4.059 -0.7098  0.5781  0.5181
10037TIP3   OH251601   2.163   5.241  11.793  0.0553 -0.1097  0.0663
10037TIP3    H151602   2.176   5.290  11.712  0.9116  0.3606  0.4854
10037TIP3    H251603   2.141   5.307  11.858 -1.8721 -0.6182 -0.0383
10038TIP3   OH251604   2.543   1.091   2.068  0.4856 -0.1485 -0.2308
10038TIP3    H151605   2.479   1.060   2.004 -0.0650  0.1694  0.1735
10038TIP3    H251606   2.510   1.061   2.152  1.4440 -0.9619 -0.1254
10039TIP3   OH251607   5.462   3.442   2.589  0.3284  0.2705 -0.3499
10039TIP3    H151608   5.500   3.465   2.504  0.7236 -0.4280 -0.3719
10039TIP3    H251609   5.378   3.487   2.591  0.0144 -0.2531 -1.4004
10040TIP3   OH251610   4.007   0.731  14.497 -0.4795 -0.0732 -0.2186
10040TIP3    H151611   3.977   0.663  14.558 -1.2232  0.5706  0.1487
10040TIP3    H251612   4.096   0.750  14.524 -0.1917 -1.0341 -0.4431
10041TIP3   OH251613   0.703   2.527   0.550 -0.1893 -0.4605 -0.0544
10041TIP3    H151614   0.627   2.529   0.608 -0.2509  1.1874 -0.1847
10041TIP3    H251615   0.669   2.548   0.463  0.0361 -2.1315 -0.5602
10042TIP3   OH251616   0.001   0.979   1.034 -0.3395  0.0947  0.1726
10042TIP3    H151617   0.028   1.026   1.113 -1.0506 -0.6564  0.8736
10042TIP3    H251618   0.083   0.964   0.986  0.0296  1.0391  0.4898
10043TIP3   OH251619   1.467   3.554   0.521  0.5024  0.3380 -0.4173
10043TIP3    H151620   1.436   3.601   0.598 -0.4253 -2.0715  0.7131
10043TIP3    H251621   1.439   3.609   0.447 -2.0289  0.7466  0.8010
10044TIP3   OH251622   0.005   2.853   2.464 -0.0088 -0.5691  0.1848
10044TIP3    H151623  -0.071   2.874   2.410 -0.6718  0.1260  1.3705
10044TIP3    H251624   0.000   2.758   2.475 -1.6698 -0.3526  1.6217
10045TIP3   OH251625   0.972   2.682  11.971  0.1589  0.0742  0.0534
10045TIP3    H151626   1.024   2.631  11.910 -1.3527 -0.5077 -0.7777
10045TIP3    H251627   0.889   2.699  11.924 -0.2917  1.2168  1.2216
10046TIP3   OH251628   3.254   0.086   1.669 -0.1145 -0.1520  0.8209
10046TIP3    H151629   3.342   0.054   1.686  0.5258 -0.6794 -2.8956
10046TIP3    H251630   3.259   0.180   1.687  0.7371 -0.4677  2.2794
10047TIP3   OH251631   6.048   3.607  15.437  0.0659  0.2163  0.7084
10047TIP3    H151632   6.006   3.682  15.480 -0.5829 -0.8279  1.9361
10047TIP3    H251633   6.121   3.584  15.495  1.2915  0.9336 -0.5262
10048TIP3   OH251634   0.691   1.249  12.489 -0.0432 -0.2217  0.3392
10048TIP3    H151635   0.702   1.247  12.394  1.3384 -0.6169  0.4958
10048TIP3    H251636   0.608   1.295  12.503  0.4080  1.0094 -0.9994
10049TIP3   OH251637   6.633   2.010  12.079 -0.1918  0.1025  0.1427
10049TIP3    H151638   6.625   2.100  12.112 -1.1447 -0.1896  0.7354
10049TIP3    H251639   6.595   2.013  11.991  0.3635  0.4157 -0.0889
10050TIP3   OH251640   3.028   6.022  16.238  0.1883 -0.1309  0.7571
10050TIP3    H151641   2.939   6.055  16.235  0.4051  0.3774 -0.5799
10050TIP3    H251642   3.021   5.935  16.277 -0.8733 -0.0342  0.7794
10051TIP3   OH251643   3.907   4.746  12.936 -0.0896  0.4192  0.7544
10051TIP3    H151644   3.837   4.811  12.928 -0.2748  0.2501  0.9977
10051TIP3    H251645   3.908   4.700  12.853 -2.2776 -1.6176  1.8069
10052TIP3   OH251646   5.485   2.456   1.334 -0.1832 -0.4087 -0.1537
10052TIP3    H151647   5.556   2.502   1.289 -0.1193 -1.0422 -0.6981
10052TIP3    H251648   5.513   2.453   1.426 -1.7307  3.6333  0.5558
10053TIP3   OH251649   0.460   0.930   3.267 -0.1506  0.2168  0.6591
10053TIP3    H151650   0.411   0.874   3.328 -0.4939 -0.3165 -0.0982
10053TIP3    H251651   0.466   1.014   3.311 -0.2757 -0.2108  1.4948
10054TIP3   OH251652   5.578   0.349   1.764 -0.3172  0.8311 -0.4637
10054TIP3    H151653   5.671   0.328   1.752  0.0341  2.6099 -1.0531
10054TIP3    H251654   5.548   0.289   1.832  1.4370  0.6757  0.1940
10055TIP3   OH251655   2.908   5.406  12.078 -0.2310  0.9449 -0.5125
10055TIP3    H151656   3.000   5.433  12.083 -0.3828  1.2901  0.4959
10055TIP3    H251657   2.862   5.465  12.138 -0.6258 -1.2644  1.4385
10056TIP3   OH251658   1.406   3.620  14.467  0.3187 -0.7305 -0.5561
10056TIP3    H151659   1.351   3.578  14.401 -1.5149 -0.1776  0.5872
10056TIP3    H251660   1.360   3.605  14.550  1.9679 -0.3761  0.4426
10057TIP3   OH251661   3.487   3.178   0.554 -0.0738 -0.5581  0.1536
10057TIP3    H151662   3.500   3.167   0.648 -0.9762  0.6276  0.4308
10057TIP3    H251663   3.400   3.142   0.538 -0.6553  0.8348  0.0903
10058TIP3   OH251664   1.111   0.579  15.138  0.5181  0.2218  0.0859
10058TIP3    H151665   1.127   0.621  15.223  0.0076  0.3097  0.1398
10058TIP3    H251666   1.184   0.518  15.127 -0.2091 -0.8941  1.2877
10059TIP3   OH251667   0.188   1.921   6.123 -0.4181 -0.3962 -0.3588
10059TIP3    H151668   0.118   1.955   6.179 -0.4228 -1.6003  0.3796
10059TIP3    H251669   0.215   1.840   6.165  1.4520  0.0720 -0.6324
10060TIP3   OH251670   3.874   3.835  15.157 -0.7004 -0.2883 -0.3316
10060TIP3    H151671   3.928   3.803  15.085 -3.6179 -0.1908 -2.6399
10060TIP3    H251672   3.795   3.781  15.154 -1.7253  1.0441  1.5331
10061TIP3   OH251673   2.298   5.846  12.615  0.6422  0.3216  0.2270
10061TIP3    H151674   2.317   5.798  12.695  0.5377  0.0941  0.1143
10061TIP3    H251675   2.374   5.904  12.604  1.2985 -0.6076 -0.2339
10062TIP3   OH251676   0.208   2.107   4.537 -0.3639  0.0909 -0.4289
10062TIP3    H151677   0.202   2.095   4.442  4.4871 -2.5666 -0.5652
10062TIP3    H251678   0.194   2.019   4.573 -2.4510  1.1259  1.4420
10063TIP3   OH251679   1.559   3.850   2.935  0.0621 -0.3173  0.5462
10063TIP3    H151680   1.590   3.844   3.025 -0.8781 -1.5862  0.7958
10063TIP3    H251681   1.607   3.782   2.888 -0.5687 -0.6886  0.4267
10064TIP3   OH251682   5.477   2.518  12.777  0.6344 -0.0343  0.1433
10064TIP3    H151683   5.408   2.452  12.781  0.5581 -0.0389 -1.3099
10064TIP3    H251684   5.546   2.479  12.724  0.7076  0.9291 -0.4986
10065TIP3   OH251685   0.978   6.379   6.262 -0.6052 -0.6333 -0.5504
10065TIP3    H151686   0.957   6.423   6.179 -2.1000 -1.5746 -0.6884
10065TIP3    H251687   0.946   6.439   6.330  1.7073  0.7073 -0.5821
10066TIP3   OH251688   1.965   4.032  14.862  0.4594 -0.4380 -0.1230
10066TIP3    H151689   2.039   4.090  14.846 -0.0381  1.1297  2.7852
10066TIP3    H251690   2.004   3.947  14.883  1.4351  0.1907  0.6497
10067TIP3   OH251691   5.017   4.011   5.220  0.5678  0.4233  0.3663
10067TIP3    H151692   5.089   3.986   5.161  1.1181  1.2035  0.7003
10067TIP3    H251693   4.940   4.012   5.164  0.7919 -0.5746  0.0306
10068TIP3   OH251694   1.380   4.642  13.915 -0.0711 -0.1265  0.0859
10068TIP3    H151695   1.453   4.581  13.914 -1.1315 -1.4764  1.6500
10068TIP3    H251696   1.332   4.624  13.834  0.3384 -0.4839 -0.0766
10069TIP3   OH251697   5.182   5.127   5.303 -0.3921  0.4865  0.8408
10069TIP3    H151698   5.142   5.213   5.318 -1.2657  0.2470 -0.0436
10069TIP3    H251699   5.123   5.084   5.241  0.8801 -0.1626  0.0718
10070TIP3   OH251700   2.948   0.055   1.630 -0.2128 -0.4942 -0.0350
10070TIP3    H151701   2.925  -0.015   1.568 -1.9648  0.6638 -0.7335
10070TIP3    H251702   3.033   0.029   1.665  0.2799 -1.7553 -2.0841
10071TIP3   OH251703   6.022   4.749  11.686  0.1889 -0.6914 -0.1113
10071TIP3    H151704   5.943   4.802  11.678 -0.0571 -0.9402  0.6085
10071TIP3    H251705   6.056   4.743  11.597  0.4761  1.0740 -0.1516
10072TIP3   OH251706   1.908   1.932   3.579 -0.1701  0.7569 -0.1291
10072TIP3    H151707   1.998   1.926   3.547 -0.5970 -1.3787 -0.9859
10072TIP3    H251708   1.859   1.970   3.507 -0.4516 -0.6358 -0.6816
10073TIP3   OH251709   4.900   5.814   3.046  0.0186 -0.0574  0.0034
10073TIP3    H151710   4.940   5.728   3.036  0.9690  0.2509  0.9794
10073TIP3    H251711   4.937   5.848   3.128 -1.3769  0.7159  0.3215
10074TIP3   OH251712   3.313   6.718   1.020 -0.2813  0.3752  0.5826
10074TIP3    H151713   3.392   6.771   1.028 -0.0318 -0.1272  1.5546
10074TIP3    H251714   3.279   6.737   0.933 -0.4045  2.4277  1.0577
10075TIP3   OH251715   2.350   1.791   6.416 -0.0948 -0.3701  0.2726
10075TIP3    H151716   2.428   1.738   6.434  0.0430 -0.0273  0.6922
10075TIP3    H251717   2.321   1.761   6.329  1.3035  0.4488 -0.5111
10076TIP3   OH251718   6.085   1.777   6.176  0.1708  0.5243 -0.4964
10076TIP3    H151719   6.095   1.754   6.268 -0.4402 -0.7508 -0.7346
10076TIP3    H251720   6.121   1.702   6.129  2.6106  2.1537 -1.3080
10077TIP3   OH251721   2.575   1.210  11.446 -0.3418  0.0595 -0.4214
10077TIP3    H151722   2.517   1.228  11.520 -1.4706 -0.7044 -1.1186
10077TIP3    H251723   2.556   1.120  11.421  1.1652 -0.2129 -0.6589
10078TIP3   OH251724   3.980   5.880  14.817 -0.3195  0.2404  0.0285
10078TIP3    H151725   3.962   5.815  14.885 -0.3044  0.0150 -0.1818
10078TIP3    H251726   3.968   5.833  14.735  0.2951  0.3367 -0.1235
10079TIP3   OH251727   0.460   3.008   1.856  0.4944  0.4896  0.0543
10079TIP3    H151728   0.373   2.970   1.859 -0.1033  1.8528  0.3790
10079TIP3    H251729   0.519   2.933   1.850 -0.6274 -0.4902  1.0626
10080TIP3   OH251730   3.105   1.220  15.511 -0.3562  0.0403 -0.3110
10080TIP3    H151731   3.053   1.168  15.573 -1.8290  0.7603 -0.9209
10080TIP3    H251732   3.041   1.278  15.469  1.0416  1.3558 -0.6561
10081TIP3   OH251733   4.277   3.199   5.806 -0.1776  0.1925 -0.1781
10081TIP3    H151734   4.227   3.119   5.789  0.3020  0.0960 -1.1620
10081TIP3    H251735   4.252   3.224   5.895 -1.2080 -0.4163 -0.2829
10082TIP3   OH251736   1.026   2.262   2.167  0.5489  0.1990 -0.4113
10082TIP3    H151737   1.052   2.173   2.145  0.3894  0.7586 -2.9796
10082TIP3    H251738   0.933   2.268   2.142  0.1682  0.6879  1.0292
10083TIP3   OH251739   2.391   3.764   4.603 -0.7320 -0.6748 -0.2391
10083TIP3    H151740   2.394   3.859   4.598 -1.7555 -0.4852  2.1721
10083TIP3    H251741   2.344   3.737   4.524  1.8452  0.6007 -2.2901
10084TIP3   OH251742   4.960   6.208  13.068  0.3204 -0.1804 -0.8302
10084TIP3    H151743   5.015   6.142  13.026 -0.1045  0.3340 -2.2433
10084TIP3    H251744   4.896   6.158  13.119  0.0147 -0.8588 -1.8650
10085TIP3   OH251745   4.534   0.105  15.665 -0.5129  0.1033  0.3296
10085TIP3    H151746   4.447   0.127  15.698 -1.5709 -3.7881  0.3969
10085TIP3    H251747   4.590   0.109  15.742 -1.3819 -1.0367  1.0371
10086TIP3   OH251748   0.913   1.173  13.297  0.1281  0.2155 -0.1516
10086TIP3    H151749   0.886   1.181  13.388 -1.9113  2.1587 -0.8762
10086TIP3    H251750   0.908   1.079  13.278 -1.5565  0.0213  1.1334
10087TIP3   OH251751   0.441   3.323  17.047  0.5236  0.0155  0.2478
10087TIP3    H151752   0.476   3.374  16.974  1.3055 -1.1593 -0.2212
10087TIP3    H251753   0.346   3.333  17.039  0.6944  2.0893  0.6935
10088TIP3   OH251754   0.679   2.912   5.790  0.1626  0.4139 -0.1533
10088TIP3    H151755   0.647   2.828   5.823 -1.8215  0.5150 -1.6897
10088TIP3    H251756   0.690   2.966   5.869  1.6379 -1.3256  0.8584
10089TIP3   OH251757   0.919   1.190   4.454 -1.2526  0.1458 -0.2681
10089TIP3    H151758   0.894   1.212   4.544 -0.6936 -0.4709  0.0413
10089TIP3    H251759   0.884   1.103   4.440 -0.9730  0.0689 -0.5008
10090TIP3   OH251760   1.421   4.957   6.053 -0.3287  0.7701  0.3883
10090TIP3    H151761   1.389   5.031   6.104 -1.1904  0.3619  0.4592
10090TIP3    H251762   1.388   4.973   5.964  0.8800  1.3065  0.0288
10091TIP3   OH251763   0.884   3.012   0.567 -0.3611 -0.3508 -0.0066
10091TIP3    H151764   0.967   2.968   0.550  0.4632  1.2202 -0.1210
10091TIP3    H251765   0.889   3.041   0.658 -1.0419 -0.7988  0.1788
10092TIP3   OH251766   6.085   0.670  17.233  0.0521  0.6152 -0.4244
10092TIP3    H151767   6.079   0.597  17.295  0.0663  0.6796 -0.3482
10092TIP3    H251768   6.028   0.737  17.271 -0.9638  0.1698 -1.1450
10093TIP3   OH251769   4.510   2.563  13.153 -0.1311 -0.2825  0.0509
10093TIP3    H151770   4.485   2.632  13.093 -0.0008 -0.2388  0.0470
10093TIP3    H251771   4.427   2.530  13.188 -0.3642 -2.0524 -2.0873
10094TIP3   OH251772   1.002   6.686  16.034  0.0287  0.2513 -0.1275
10094TIP3    H151773   0.923   6.737  16.052  0.6217  0.9057  0.6492
10094TIP3    H251774   1.046   6.680  16.119  1.1540  0.4709 -0.6943
10095TIP3   OH251775   2.142   3.456  14.405 -0.3557 -0.0403  0.5854
10095TIP3    H151776   2.100   3.491  14.326  1.0470  1.3084  0.4071
10095TIP3    H251777   2.132   3.361  14.398 -0.2647  0.0701 -1.2058
10096TIP3   OH251778   6.153   4.007  11.651  0.1667 -0.5743  0.0369
10096TIP3    H151779   6.246   4.027  11.635 -0.1427  1.4046  0.5424
10096TIP3    H251780   6.151   3.965  11.736  0.7623 -2.0210 -0.6571
10097TIP3   OH251781   1.738   6.792  13.084  0.5164 -0.1476  0.1704
10097TIP3    H151782   1.751   6.821  13.174 -0.2404  0.6226  0.0367
10097TIP3    H251783   1.759   6.699  13.085  1.4669  0.0701  0.9332
10098TIP3   OH251784   5.637   3.972  11.559 -0.5492  0.2841 -0.2079
10098TIP3    H151785   5.590   4.018  11.628  1.1701  0.6806  0.7241
10098TIP3    H251786   5.584   3.987  11.480 -1.3781  1.6649  0.5835
10099TIP3   OH251787   1.830   5.726  13.891  0.4438  0.0363 -0.1354
10099TIP3    H151788   1.911   5.695  13.932  0.1851  0.1934  0.5054
10099TIP3    H251789   1.859   5.790  13.826  0.8342  0.1145  0.1135
10100TIP3   OH251790   1.667   0.350  11.824  0.1457 -0.8933  0.2195
10100TIP3    H151791   1.711   0.376  11.905 -0.5952 -0.7500  0.5779
10100TIP3    H251792   1.708   0.267  11.800  2.1668  0.3329 -0.6599
10101TIP3   OH251793   4.129   2.554  12.902  0.6183 -0.1936 -0.2382
10101TIP3    H151794   4.102   2.611  12.974 -2.9897 -1.4989 -0.4422
10101TIP3    H251795   4.208   2.595  12.866  0.8635  1.9937  2.6560
10102TIP3   OH251796   1.943   4.965  12.760 -0.2524  0.3148 -0.4509
10102TIP3    H151797   1.895   5.022  12.699  0.5755  1.1176 -0.3699
10102TIP3    H251798   1.931   5.007  12.846  0.6733  0.5772 -0.4472
10103TIP3   OH251799   2.034   6.725  14.145  0.0288 -0.0265 -0.7270
10103TIP3    H151800   1.993   6.800  14.186  1.2784  0.1508  0.2305
10103TIP3    H251801   2.063   6.670  14.218  0.0661 -0.9113 -1.3995
10104TIP3   OH251802   1.276   0.785   6.042 -0.9051 -0.6366 -0.2822
10104TIP3    H151803   1.209   0.774   5.974 -0.0826 -2.3523 -0.8530
10104TIP3    H251804   1.228   0.814   6.119 -1.8147  1.6866 -1.6696
10105TIP3   OH251805   4.007   5.522   1.060 -0.3695 -0.1606  0.3810
10105TIP3    H151806   3.939   5.461   1.032 -2.4317  0.8293  3.0523
10105TIP3    H251807   3.967   5.608   1.052  1.0685  0.5445  0.6334
10106TIP3   OH251808   5.049   6.612   5.065  0.3980  0.7872  0.0662
10106TIP3    H151809   5.096   6.533   5.038 -0.0187  0.0388  1.5251
10106TIP3    H251810   5.107   6.684   5.038  0.2196  0.0611 -2.3895
10107TIP3   OH251811   1.739   0.035  14.558 -0.2053 -0.1541 -0.7274
10107TIP3    H151812   1.716   0.087  14.635  0.7873  2.2915 -2.0219
10107TIP3    H251813   1.814  -0.017  14.586  0.1092  0.6752 -0.0150
10108TIP3   OH251814   3.369   0.572   1.318 -0.4097  0.4456  0.1366
10108TIP3    H151815   3.282   0.589   1.352 -0.7228 -1.1135  0.1255
10108TIP3    H251816   3.360   0.581   1.223 -0.4438  0.7616  0.1686
10109TIP3   OH251817   6.003   3.589  12.289 -0.6109  0.5347  0.0651
10109TIP3    H151818   5.923   3.615  12.244 -1.1135 -2.8463 -1.1486
10109TIP3    H251819   6.063   3.662  12.275 -2.6972  2.1071 -1.0166
10110TIP3   OH251820   2.393   2.543  14.705  0.4463  0.5501  0.5394
10110TIP3    H151821   2.465   2.487  14.675 -0.5444  0.6966 -2.1808
10110TIP3    H251822   2.374   2.600  14.631 -1.5636  1.4751  1.7287
10111TIP3   OH251823   2.076   0.984   3.045 -0.3648 -0.5391 -0.2621
10111TIP3    H151824   1.987   0.959   3.020 -1.1012  1.8497 -0.2341
10111TIP3    H251825   2.131   0.957   2.972 -1.4984  0.2186 -1.4094
10112TIP3   OH251826   3.076   0.887   1.934  0.3417 -0.5556 -0.0288
10112TIP3    H151827   3.026   0.915   1.857 -0.6653 -0.8093  0.5346
10112TIP3    H251828   3.060   0.793   1.939 -1.7793 -0.1247  2.0607
10113TIP3   OH251829   2.004   4.999  16.489 -0.3317 -0.2396  0.2267
10113TIP3    H151830   1.946   4.924  16.485 -0.4703 -0.2116  1.5464
10113TIP3    H251831   2.088   4.966  16.456 -0.9400 -0.4187 -1.1652
10114TIP3   OH251832   2.681   5.594   5.710  0.5551  0.2119  0.4258
10114TIP3    H151833   2.654   5.565   5.797  0.2670  0.7120  0.5053
10114TIP3    H251834   2.729   5.676   5.725 -0.1073  0.6758  0.0583
10115TIP3   OH251835   5.914   2.238  16.164 -0.0058  0.6032  0.6630
10115TIP3    H151836   5.985   2.180  16.192 -0.4125 -0.9437 -1.4346
10115TIP3    H251837   5.873   2.267  16.246  1.5607 -0.3389  1.8069
10116TIP3   OH251838   6.271   5.741   5.736 -0.3672  0.1142  0.0942
10116TIP3    H151839   6.348   5.787   5.701  0.9254 -1.8515  0.2641
10116TIP3    H251840   6.233   5.698   5.659  0.4060 -1.2883  0.4822
10117TIP3   OH251841   3.335   5.078  11.673  0.1818  0.1085  0.2047
10117TIP3    H151842   3.417   5.082  11.723  0.9678  1.1725 -1.1480
10117TIP3    H251843   3.332   5.160  11.625 -1.1305 -0.4195 -0.6435
10118TIP3   OH251844   2.002   0.902   6.329 -0.0318  0.5381 -0.2343
10118TIP3    H151845   2.063   0.897   6.403 -0.9172 -2.5191  0.3952
10118TIP3    H251846   1.915   0.909   6.370 -0.3153  1.7226 -1.0446
10119TIP3   OH251847   2.631   6.471   3.640  0.6427 -0.3448 -0.1576
10119TIP3    H151848   2.605   6.552   3.684 -1.1688 -1.2670  0.5281
10119TIP3    H251849   2.646   6.497   3.549 -1.6368  0.4704 -0.3352
10120TIP3   OH251850   5.012   1.259  12.844  0.1674 -0.1183 -0.0696
10120TIP3    H151851   4.978   1.345  12.818  1.0543  0.3575  0.3263
10120TIP3    H251852   4.941   1.219  12.895 -0.0494  0.5932  0.1864
10121TIP3   OH251853   2.904   0.942  16.552 -0.2149 -0.4680 -0.6081
10121TIP3    H151854   2.823   0.970  16.594  1.0143  0.6032  1.1236
10121TIP3    H251855   2.953   1.024  16.537 -0.1914 -0.9235 -3.2369
10122TIP3   OH251856   0.798   0.325  14.285  0.5572  0.3867  0.3530
10122TIP3    H151857   0.799   0.420  14.288 -1.2522  0.4485 -0.2867
10122TIP3    H251858   0.762   0.304  14.199 -0.9018 -0.8407  1.2302
10123TIP3   OH251859   3.364   1.671   1.940  0.2032 -0.7928  0.8385
10123TIP3    H151860   3.437   1.665   2.002  0.1479 -1.5689  0.8355
10123TIP3    H251861   3.347   1.765   1.932  0.8613 -0.6347  1.2369
10124TIP3   OH251862   5.377   0.761   2.400  0.2901  0.0253 -0.4871
10124TIP3    H151863   5.337   0.848   2.394 -0.3361 -0.1562  0.8331
10124TIP3    H251864   5.327   0.717   2.469 -0.7018 -2.0738 -2.4825
10125TIP3   OH251865   0.428   3.362  16.482 -0.4321  0.4400 -0.4802
10125TIP3    H151866   0.414   3.291  16.544  2.1436  0.0644 -0.2523
10125TIP3    H251867   0.397   3.440  16.527 -1.6967 -0.2944 -0.0642
10126TIP3   OH251868   2.637   1.541  14.611 -0.0185 -0.0119  0.0385
10126TIP3    H151869   2.717   1.497  14.642  0.5341  1.1259  0.2561
10126TIP3    H251870   2.652   1.554  14.517 -0.3360 -0.5988 -0.0956
10127TIP3   OH251871   3.968   0.454   2.454  0.2399  0.3675 -0.1554
10127TIP3    H151872   3.943   0.527   2.398 -0.9389 -0.3974 -0.6478
10127TIP3    H251873   4.045   0.416   2.411 -1.2781 -0.8573 -1.8751
10128TIP3   OH251874   3.178   6.164  12.861 -0.0630  0.0936  0.8627
10128TIP3    H151875   3.223   6.242  12.828 -2.2679  0.7063 -0.8572
10128TIP3    H251876   3.213   6.092  12.809  0.5595  0.2210  1.1000
10129TIP3   OH251877   5.588   4.276   0.557 -0.3179  0.2921  0.1826
10129TIP3    H151878   5.525   4.317   0.498 -0.0644 -0.4800 -0.6409
10129TIP3    H251879   5.672   4.317   0.536 -0.2937  0.2827  0.2630
10130TIP3   OH251880   2.179   6.625  12.717 -0.2111  0.1306 -0.4273
10130TIP3    H151881   2.101   6.678  12.699  0.0024  0.9577  1.0203
10130TIP3    H251882   2.189   6.571  12.639 -1.0982  1.4095 -1.4645
10131TIP3   OH251883   2.623   1.733  15.601  0.0090  0.6024  0.4106
10131TIP3    H151884   2.534   1.728  15.567  0.3657 -0.8681 -0.3367
10131TIP3    H251885   2.621   1.681  15.681  0.1835  0.6078  0.4181
10132TIP3   OH251886   1.340   0.873  10.993  0.1715 -0.0379  0.5164
10132TIP3    H151887   1.340   0.968  10.992 -2.4191 -0.0098 -0.4586
10132TIP3    H251888   1.270   0.849  11.054  1.5605 -1.3328  1.6439
10133TIP3   OH251889   6.643   6.073  16.756 -0.1259  0.1262 -0.0450
10133TIP3    H151890   6.673   6.052  16.845  0.6979 -0.0369 -0.3592
10133TIP3    H251891   6.580   6.004  16.735 -0.3108  0.1520  0.4023
10134TIP3   OH251892   5.228   2.979  10.948  0.2605  0.2717  0.4486
10134TIP3    H151893   5.213   2.895  10.905 -1.3313  1.3375 -1.1517
10134TIP3    H251894   5.281   3.029  10.887  0.1404  0.8839  0.8353
10135TIP3   OH251895   6.520   5.477   0.339 -0.1995  0.2727 -0.2119
10135TIP3    H151896   6.554   5.565   0.326 -1.3816  0.8738  0.6575
10135TIP3    H251897   6.596   5.425   0.368  0.5347  0.9543 -0.9210
10136TIP3   OH251898   6.101   6.211   6.052 -0.0588  0.1178  0.4554
10136TIP3    H151899   6.154   6.249   6.122  1.1764 -0.6609 -0.0411
10136TIP3    H251900   6.164   6.181   5.987 -1.1200 -0.5709 -0.2897
10137TIP3   OH251901   1.929   3.628   5.948 -0.3583  0.7842  0.2463
10137TIP3    H151902   1.875   3.563   5.993 -0.7464  1.8022  1.3028
10137TIP3    H251903   1.932   3.599   5.857 -0.7494 -0.5501  0.6500
10138TIP3   OH251904   2.649   3.494  13.945  0.4723  0.2660 -0.1448
10138TIP3    H151905   2.744   3.492  13.933  0.7450 -0.4200  1.8732
10138TIP3    H251906   2.618   3.414  13.903  0.8540  0.2185 -0.3397
10139TIP3   OH251907   4.692   1.357   5.591  0.7608  0.0582  0.0628
10139TIP3    H151908   4.692   1.262   5.575  1.9866  0.0789 -0.1125
10139TIP3    H251909   4.600   1.379   5.602  0.6751 -1.7239  3.5315
10140TIP3   OH251910   2.328   2.439  10.299  0.2204 -0.0406  0.2237
10140TIP3    H151911   2.309   2.510  10.361 -0.3212  0.1676 -0.1726
10140TIP3    H251912   2.375   2.373  10.351 -0.2525  0.1165  0.8564
10141TIP3   OH251913   2.112   5.681   4.971  0.3844 -0.0129 -0.2595
10141TIP3    H151914   2.088   5.639   5.053  1.1155 -1.3081 -0.7017
10141TIP3    H251915   2.201   5.652   4.953 -0.3189 -1.0313 -2.3001
10142TIP3   OH251916   2.793   5.703   0.590  0.5246 -0.2396 -0.0501
10142TIP3    H151917   2.810   5.734   0.501  0.2491  1.0981  0.3583
10142TIP3    H251918   2.818   5.610   0.588  1.0479 -0.0823 -1.3670
10143TIP3   OH251919   2.570   5.129   4.705  0.6943 -0.5391 -0.6543
10143TIP3    H151920   2.571   5.043   4.748  1.8796  0.1532  0.7790
10143TIP3    H251921   2.654   5.169   4.730  0.4522  0.7616 -1.8568
10144TIP3   OH251922   6.347   0.233  13.963  0.1287  0.0401  0.2062
10144TIP3    H151923   6.359   0.138  13.965 -0.8228 -0.0905  0.1383
10144TIP3    H251924   6.356   0.256  13.870  1.2134  0.1425  0.3272
10145TIP3   OH251925   0.440   5.245  12.027  0.4282  0.5082  0.8468
10145TIP3    H151926   0.421   5.293  11.946 -0.0340 -2.5192 -0.8975
10145TIP3    H251927   0.364   5.261  12.083 -0.1323  1.0770 -0.0655
10146TIP3   OH251928   2.270   3.393  16.234 -0.4095  0.4496  0.0586
10146TIP3    H151929   2.352   3.433  16.203 -1.2558  0.8217 -1.8024
10146TIP3    H251930   2.208   3.466  16.237 -1.2616 -0.2255 -0.7751
10147TIP3   OH251931   1.061   5.887   5.388 -0.1368  0.0520  0.6040
10147TIP3    H151932   1.095   5.976   5.396 -0.5828  0.2721  0.1652
10147TIP3    H251933   1.090   5.842   5.467  4.2124 -0.8332 -1.3769
10148TIP3   OH251934   0.928   5.020  15.530  0.2883 -0.5610  0.3612
10148TIP3    H151935   0.848   4.974  15.505  0.8356 -0.9786 -0.6755
10148TIP3    H251936   0.990   5.000  15.459  0.8132  1.0319  0.3487
10149TIP3   OH251937   6.354   0.163  11.174 -0.6833  0.4197  0.2542
10149TIP3    H151938   6.295   0.092  11.151 -0.2270 -0.7601  2.5578
10149TIP3    H251939   6.370   0.152  11.268 -0.0157  3.1278  0.5143
10150TIP3   OH251940   5.513   6.301  12.573 -0.6717  0.0969  0.3407
10150TIP3    H151941   5.440   6.357  12.598 -1.0155 -0.0258 -0.3564
10150TIP3    H251942   5.588   6.335  12.622 -1.5470 -0.8447  2.3958
10151TIP3   OH251943   2.245   1.437  13.086 -0.2459 -0.4127 -0.0203
10151TIP3    H151944   2.258   1.415  12.994  0.4264 -0.4514  0.0824
10151TIP3    H251945   2.265   1.531  13.091  0.7630 -0.6340  0.2771
10152TIP3   OH251946   1.138   2.091  12.760 -0.0531 -0.4329  0.2176
10152TIP3    H151947   1.106   2.180  12.773 -0.3730 -0.6053  0.6303
10152TIP3    H251948   1.211   2.082  12.821  1.8657  0.4908 -1.8433
10153TIP3   OH251949   2.958   3.698   3.023  0.4562 -0.3164 -0.0468
10153TIP3    H151950   3.043   3.670   2.990  1.1653  0.4492  1.0950
10153TIP3    H251951   2.923   3.620   3.067  0.7794 -0.4962 -0.1061
10154TIP3   OH251952   5.321   4.155   4.585 -0.5220  0.0176  0.4338
10154TIP3    H151953   5.274   4.116   4.511  1.8364 -1.1748 -0.4983
10154TIP3    H251954   5.290   4.106   4.661  0.0409 -1.5317 -0.3132
10155TIP3   OH251955   3.135   5.443   4.164  0.4302  0.2398  0.8045
10155TIP3    H151956   3.190   5.387   4.109 -0.4601  1.7076 -1.6335
10155TIP3    H251957   3.159   5.532   4.139 -0.6909  0.9376  2.1374
10156TIP3   OH251958   0.926   5.420  11.779 -0.0759 -0.0342  0.7831
10156TIP3    H151959   0.955   5.334  11.809 -0.1284 -0.7085 -1.0824
10156TIP3    H251960   0.999   5.478  11.801  0.4203 -0.7449  1.0370
10157TIP3   OH251961   5.449   1.340  10.814  0.3282 -0.2784 -0.3368
10157TIP3    H151962   5.357   1.335  10.790 -0.0330  0.3627  0.8586
10157TIP3    H251963   5.486   1.256  10.786 -1.0488 -1.3468  0.9560
10158TIP3   OH251964   4.607   5.541   1.492 -0.3044  0.3024 -0.5487
10158TIP3    H151965   4.648   5.580   1.415 -1.3450  0.1482 -1.1910
10158TIP3    H251966   4.634   5.597   1.565  0.3814  0.6660 -1.0767
10159TIP3   OH251967   2.806   0.419   5.354  0.3539 -0.0546 -0.4879
10159TIP3    H151968   2.755   0.397   5.432  0.3795 -0.3005 -0.5424
10159TIP3    H251969   2.752   0.391   5.281  0.3546  0.1263 -0.5569
10160TIP3   OH251970   6.221   1.927  16.664 -0.0832 -0.8429 -0.5684
10160TIP3    H151971   6.168   1.985  16.717  0.3619 -0.1638 -0.8604
10160TIP3    H251972   6.161   1.893  16.598 -0.1894 -0.1996 -0.8036
10161TIP3   OH251973   6.047   0.525  12.220  0.4011 -0.0589 -0.6464
10161TIP3    H151974   6.003   0.448  12.255 -0.4800  0.1267 -1.3336
10161TIP3    H251975   6.046   0.588  12.292 -0.8119  0.0875 -0.7811
10162TIP3   OH251976   1.842   4.200   6.330  0.3450  0.7379 -0.1353
10162TIP3    H151977   1.769   4.170   6.275 -0.4539  0.0306  1.2780
10162TIP3    H251978   1.918   4.153   6.297 -0.5198 -1.3017  0.7150
10163TIP3   OH251979   4.230   0.818  15.194 -0.9090  0.3777 -0.3969
10163TIP3    H151980   4.178   0.744  15.162 -0.0225 -0.4093 -0.0228
10163TIP3    H251981   4.237   0.804  15.288 -0.3882  0.7180 -0.3803
10164TIP3   OH251982   5.266   3.752  14.169  0.2594  0.4743 -0.5259
10164TIP3    H151983   5.339   3.810  14.190 -1.0237  1.6641  0.8201
10164TIP3    H251984   5.190   3.794  14.210 -1.2341 -0.5566 -2.1557
10165TIP3   OH251985   5.595   1.185   4.984  0.1473  0.2942  0.2537
10165TIP3    H151986   5.665   1.139   4.939 -0.5631  0.9787 -1.5951
10165TIP3    H251987   5.640   1.244   5.045  1.0983 -1.0784  0.8931
10166TIP3   OH251988   4.427   3.720  12.104 -0.1805 -0.8361 -0.1739
10166TIP3    H151989   4.400   3.693  12.191 -0.7661  0.2098 -0.0278
10166TIP3    H251990   4.517   3.688  12.096 -1.0924 -3.4730 -0.3090
10167TIP3   OH251991   5.125   6.488   2.410 -0.2406 -0.1344  0.5158
10167TIP3    H151992   5.218   6.496   2.428  0.3550 -1.5717 -1.6529
10167TIP3    H251993   5.111   6.394   2.396 -1.4621  0.3573 -1.8244
10168TIP3   OH251994   3.579   0.754  15.622  0.0483  0.9024 -0.0381
10168TIP3    H151995   3.607   0.782  15.534 -0.7947  2.7994  0.2715
10168TIP3    H251996   3.488   0.725  15.610  0.2513  0.2401  0.0274
10169TIP3   OH251997   0.470   0.313   0.376 -0.9786 -0.4515 -0.0994
10169TIP3    H151998   0.547   0.261   0.354 -0.3959  0.2017  0.4047
10169TIP3    H251999   0.404   0.287   0.312 -0.2553 -0.8018 -0.6975
10170TIP3   OH252000   2.967   2.540  12.869 -0.2686 -0.4446  0.1257
10170TIP3    H152001   3.043   2.543  12.928  0.6455  3.0413 -1.0797
10170TIP3    H252002   2.891   2.535  12.927  0.6955  1.2679  1.5927
10171TIP3   OH252003   5.936   6.331  15.918 -0.0940  0.2182  0.2776
10171TIP3    H152004   5.872   6.288  15.974 -0.8185 -1.7225 -1.9858
10171TIP3    H252005   5.942   6.420  15.953 -2.1722 -0.2941  2.0425
10172TIP3   OH252006   3.669   4.834   0.709  0.1487  0.7700  0.0572
10172TIP3    H152007   3.699   4.744   0.719  0.7918  1.1102  1.3021
10172TIP3    H252008   3.575   4.831   0.729 -0.1794  0.1176 -1.4953
10173TIP3   OH252009   1.001   4.983  11.694  0.5305 -0.1108 -0.1833
10173TIP3    H152010   1.067   5.007  11.628  1.6199  1.4616  1.4188
10173TIP3    H252011   1.041   4.909  11.741  0.3110 -0.3873 -0.4243
10174TIP3   OH252012   5.931   2.673   0.402  0.3938  0.1803 -0.1046
10174TIP3    H152013   5.839   2.657   0.384 -0.3513  0.8144  2.8571
10174TIP3    H252014   5.955   2.608   0.468  1.2986  1.6785  1.0993
10175TIP3   OH252015   0.368   5.952   0.331  0.2562 -0.0954 -0.0915
10175TIP3    H152016   0.444   5.897   0.314  0.0594 -0.5084  0.3502
10175TIP3    H252017   0.362   6.009   0.255  1.8470  0.9145  0.5296
10176TIP3   OH252018   3.254   6.017   0.649 -0.1517  0.7271  0.2486
10176TIP3    H152019   3.290   5.971   0.573 -1.6661  0.9362 -0.6231
10176TIP3    H252020   3.216   6.097   0.612  0.2772  1.4727  1.4152
10177TIP3   OH252021   1.005   4.388  17.290 -0.2149 -0.3297 -0.2502
10177TIP3    H152022   0.989   4.481  17.301 -1.2449 -0.6266  0.7360
10177TIP3    H252023   1.057   4.363  17.366  0.8637 -0.3803 -0.9826
10178TIP3   OH252024   4.983   2.293   6.293  0.0609  0.2613  0.0740
10178TIP3    H152025   5.057   2.353   6.302 -0.4620  1.0677 -0.9025
10178TIP3    H252026   4.953   2.278   6.383  0.6073  0.9565  0.3735
10179TIP3   OH252027   3.146   3.940  12.283  0.2842  0.8288 -1.1223
10179TIP3    H152028   3.114   3.854  12.254 -0.3422 -0.1837  2.3829
10179TIP3    H252029   3.079   3.971  12.344  3.6620  0.7065  2.8704
10180TIP3   OH252030   0.464   4.521   1.789  0.6924  0.3548  0.2165
10180TIP3    H152031   0.528   4.535   1.719  0.3707  1.5078  0.1361
10180TIP3    H252032   0.382   4.503   1.743  1.1278 -2.0390  0.3216
10181TIP3   OH252033   0.957   2.717   0.384  0.2238 -0.2022  0.1049
10181TIP3    H152034   0.980   2.809   0.369 -1.3553  0.2548  0.3249
10181TIP3    H252035   0.863   2.713   0.364 -0.2505 -1.2492  2.3866
10182TIP3   OH252036   3.157   6.632  11.183 -0.3974 -0.4795 -0.1952
10182TIP3    H152037   3.197   6.679  11.257  0.0089 -0.7403 -0.2459
10182TIP3    H252038   3.163   6.540  11.208 -1.9371 -0.4681  0.2708
10183TIP3   OH252039   5.389   1.694   6.274 -0.1171  0.4278 -0.2444
10183TIP3    H152040   5.420   1.611   6.310 -0.5409  0.7564  0.8870
10183TIP3    H252041   5.420   1.760   6.336 -0.7489  1.0110 -0.5508
10184TIP3   OH252042   0.332   0.841  11.215 -0.2216  0.1529  0.1240
10184TIP3    H152043   0.288   0.794  11.144 -0.1417 -1.9464  1.4159
10184TIP3    H252044   0.422   0.854  11.183 -0.1893 -0.7650 -0.1884
10185TIP3   OH252045   0.535   3.276   3.640  0.1939  0.8551 -0.7205
10185TIP3    H152046   0.468   3.210   3.625 -0.3558  0.8270  1.6255
10185TIP3    H252047   0.617   3.232   3.620 -0.1762 -0.5289  0.6487
10186TIP3   OH252048   0.622   0.886  10.759 -0.4165 -0.9032  0.3012
10186TIP3    H152049   0.560   0.936  10.705  0.1400 -2.0049 -1.3756
10186TIP3    H252050   0.698   0.944  10.768 -0.8367 -0.3933  0.5844
10187TIP3   OH252051   0.054   1.283  12.545 -0.3110  0.3395  0.0813
10187TIP3    H152052   0.009   1.319  12.469 -0.4210 -1.1612 -0.5704
10187TIP3    H252053  -0.008   1.295  12.617 -0.4789  1.1413 -0.1941
10188TIP3   OH252054   0.112   3.095  15.503  0.0812 -0.7133 -0.8691
10188TIP3    H152055   0.052   3.163  15.472  1.2394  2.2679  2.9804
10188TIP3    H252056   0.061   3.046  15.568  0.8361 -0.1360  0.1743
10189TIP3   OH252057   1.446   0.982   4.356 -1.0265 -0.0550  0.0686
10189TIP3    H152058   1.467   1.074   4.342 -0.2820 -0.3941 -1.1533
10189TIP3    H252059   1.419   0.976   4.447 -1.0219  1.3644  0.1596
10190TIP3   OH252060   4.280   5.341   5.581 -0.3465 -0.0806  0.1938
10190TIP3    H152061   4.333   5.262   5.594 -0.4556  0.0694  1.5974
10190TIP3    H252062   4.314   5.404   5.643  0.5174  1.4177 -1.7437
10191TIP3   OH252063   4.623   5.433   4.637 -0.3153  0.6414  0.5653
10191TIP3    H152064   4.530   5.407   4.634 -0.5128  1.1099  2.3868
10191TIP3    H252065   4.629   5.491   4.712  1.8485 -0.8956  1.5981
10192TIP3   OH252066   0.996   0.960   4.029 -0.2251  0.7160 -0.5884
10192TIP3    H152067   0.998   0.869   4.001 -0.0790  0.3258  0.6546
10192TIP3    H252068   0.903   0.983   4.028 -0.3606  0.2119  0.1498
10193TIP3   OH252069   1.424   3.363   0.062  0.2400 -0.6014  0.6970
10193TIP3    H152070   1.396   3.347   0.152 -0.4081 -1.4713  0.3547
10193TIP3    H252071   1.428   3.458   0.054 -0.3663 -0.5094  1.4436
10194TIP3   OH252072   0.863   2.527  16.980 -0.4734  0.4346  0.2542
10194TIP3    H152073   0.790   2.548  16.922  0.4244  1.0758 -0.6565
10194TIP3    H252074   0.914   2.607  16.984  1.3278 -0.6211 -0.8251
10195TIP3   OH252075   5.169   1.518   1.567  1.1906 -0.2303  0.1680
10195TIP3    H152076   5.191   1.578   1.496  0.8302 -0.2248  0.0608
10195TIP3    H252077   5.220   1.439   1.548 -2.5669 -2.0945 -2.8332
10196TIP3   OH252078   2.686   1.435   1.828  0.3456 -0.2865 -0.4157
10196TIP3    H152079   2.756   1.440   1.893  0.4702 -0.8271 -0.5038
10196TIP3    H252080   2.695   1.515   1.777 -1.6247  1.6308  2.1186
10197TIP3   OH252081   5.447   4.931  14.226 -0.2795  0.1128 -0.7547
10197TIP3    H152082   5.532   4.973  14.239  0.4000 -1.9128  1.7523
10197TIP3    H252083   5.394   4.963  14.298  0.3302 -3.3815  1.3639
10198TIP3   OH252084   3.486   6.012   3.560 -0.0155 -0.3531  0.2784
10198TIP3    H152085   3.518   5.922   3.571 -1.3782 -0.7378  1.2415
10198TIP3    H252086   3.537   6.064   3.623 -2.3032 -1.2340  3.0018
10199TIP3   OH252087   6.193   1.813   2.702 -0.0990 -0.0381  0.4049
10199TIP3    H152088   6.197   1.751   2.775 -2.0449  0.4152  0.9414
10199TIP3    H252089   6.281   1.812   2.664 -0.1941 -3.3977  0.1340
10200TIP3   OH252090   5.840   3.280  13.990 -0.2619  0.2094  0.4002
10200TIP3    H152091   5.781   3.291  14.064 -0.5115 -0.8631  0.3629
10200TIP3    H252092   5.810   3.200  13.946  0.7316  0.0803 -0.0696
10201TIP3   OH252093   1.611   1.429   0.805 -0.3953 -0.1504  0.5751
10201TIP3    H152094   1.595   1.460   0.716  0.1319  0.2641  0.6253
10201TIP3    H252095   1.705   1.441   0.818 -0.0812 -2.2488  0.3951
10202TIP3   OH252096   3.732   3.534  14.405 -0.2181 -0.3820 -0.8967
10202TIP3    H152097   3.737   3.603  14.472  0.4273 -0.7332 -0.5725
10202TIP3    H252098   3.820   3.531  14.368 -0.0679 -1.4676 -0.4628
10203TIP3   OH252099   2.357   5.089   1.877  0.0321 -0.3902 -0.1776
10203TIP3    H152100   2.424   5.059   1.938 -0.7075 -2.2840 -0.2879
10203TIP3    H252101   2.377   5.182   1.865  2.7757 -0.9472 -0.3740
10204TIP3   OH252102   3.866   5.328   6.537  0.0605  0.4611 -0.0545
10204TIP3    H152103   3.931   5.385   6.578 -0.4685  0.9263  0.1360
10204TIP3    H252104   3.885   5.335   6.443  0.5529  0.2644  0.0267
10205TIP3   OH252105   4.733   2.091   1.999  0.2971 -0.2460  0.2129
10205TIP3    H152106   4.682   2.097   1.919 -1.0743  1.4389  1.1685
10205TIP3    H252107   4.821   2.066   1.970 -0.2558  0.0441 -1.7656
10206TIP3   OH252108   5.588   0.261   4.068 -0.3269 -0.1789 -0.1550
10206TIP3    H152109   5.493   0.250   4.066 -0.3414 -0.1585  0.3772
10206TIP3    H252110   5.617   0.212   4.145  0.1238 -0.4123 -0.4700
10207TIP3   OH252111   3.638   0.288   2.318 -0.2111 -0.2830 -0.0062
10207TIP3    H152112   3.549   0.274   2.352  0.2207 -0.6420  0.9792
10207TIP3    H252113   3.644   0.383   2.305 -0.1605 -0.0608  1.5376
10208TIP3   OH252114   3.909   5.082  15.393  0.4533  0.4787  0.4818
10208TIP3    H152115   3.950   5.168  15.388  0.3977  0.5100  0.5606
10208TIP3    H252116   3.846   5.083  15.320  1.4041 -0.0047 -0.3622
10209TIP3   OH252117   1.823   3.693  16.876  0.3705  0.2829  0.7213
10209TIP3    H152118   1.862   3.749  16.943 -1.3379 -1.5269  3.3073
10209TIP3    H252119   1.728   3.703  16.888  0.0367 -2.2405  0.4706
10210TIP3   OH252120   2.630   0.376   6.635 -0.1745 -0.1649  0.0532
10210TIP3    H152121   2.716   0.413   6.658 -0.0508 -0.8069  0.6557
10210TIP3    H252122   2.567   0.441   6.664  0.0582 -0.2534  0.7897
10211TIP3   OH252123   6.215   5.469  11.595  0.2656 -0.1924 -0.1241
10211TIP3    H152124   6.151   5.479  11.525  0.1338 -1.0453 -0.1302
10211TIP3    H252125   6.200   5.543  11.653  0.1137  0.3000 -0.7917
10212TIP3   OH252126   0.364   6.078  13.395 -0.6519 -0.6682 -0.4417
10212TIP3    H152127   0.413   6.046  13.471 -0.6172  0.0687 -0.1461
10212TIP3    H252128   0.419   6.147  13.359 -1.2651 -0.1341 -0.3662
10213TIP3   OH252129   2.663   2.267   1.907 -0.2844  0.1011  0.1523
10213TIP3    H152130   2.723   2.236   1.975  0.5861 -0.4333 -0.8246
10213TIP3    H252131   2.619   2.187   1.877 -1.6733  0.5285  1.0330
10214TIP3   OH252132   6.636   6.439  11.408  0.2032  0.0793  0.3360
10214TIP3    H152133   6.583   6.399  11.477  0.0691  0.6431  0.5646
10214TIP3    H252134   6.579   6.440  11.331  0.3482 -0.5380  0.2177
10215TIP3   OH252135   4.630   2.643  10.878 -0.0519 -0.0663  0.0435
10215TIP3    H152136   4.551   2.695  10.891 -0.6668 -0.7086 -0.9953
10215TIP3    H252137   4.625   2.575  10.945  0.0379  0.3883  0.5085
10216TIP3   OH252138   4.413   5.715   4.538  0.0718 -0.1680  0.0163
10216TIP3    H152139   4.472   5.719   4.614  1.7073 -1.2627 -1.1712
10216TIP3    H252140   4.357   5.792   4.548 -0.2868 -0.7340  2.7682
10217TIP3   OH252141   2.906   4.202  16.296  0.4119 -0.9203  0.8413
10217TIP3    H152142   2.886   4.169  16.384  0.1255 -1.2303  0.6602
10217TIP3    H252143   2.821   4.218  16.256  0.5363  1.1532  1.3309
10218TIP3   OH252144   2.664   4.012   5.747 -0.0316  0.7661  0.2813
10218TIP3    H152145   2.582   3.962   5.746  0.3573  0.0486  2.6513
10218TIP3    H252146   2.732   3.945   5.757  0.7608  1.4758 -0.3161
10219TIP3   OH252147   1.556   4.956  15.421 -0.8648 -0.2461 -0.0868
10219TIP3    H152148   1.520   4.944  15.334 -0.2520 -1.6253 -0.1752
10219TIP3    H252149   1.618   4.884  15.431 -1.9893 -0.9825  2.0254
10220TIP3   OH252150   1.524   4.435  12.144  0.6205  0.1677  0.8672
10220TIP3    H152151   1.569   4.352  12.134  1.6187  0.6598  1.2324
10220TIP3    H252152   1.467   4.422  12.220 -1.2046 -1.0327 -0.6635
10221TIP3   OH252153   2.428   3.078   5.210 -0.7271  0.0564  0.5672
10221TIP3    H152154   2.440   3.052   5.118 -0.3183 -1.2165  0.9788
10221TIP3    H252155   2.336   3.106   5.215 -0.2514  1.9576 -0.6635
10222TIP3   OH252156   0.413   5.271   4.265  0.2343  0.1753  0.5972
10222TIP3    H152157   0.326   5.302   4.241  0.0398  0.1800  1.3233
10222TIP3    H252158   0.463   5.350   4.283 -0.4292  0.0674  3.0411
10223TIP3   OH252159   6.634   4.577   1.595 -0.0517  0.2777  0.0302
10223TIP3    H152160   6.691   4.540   1.528  0.2230  0.6382  0.0666
10223TIP3    H252161   6.689   4.639   1.642  0.0520 -0.7464  1.2778
10224TIP3   OH252162   3.082   2.501  16.666 -0.4850  0.6516 -0.2086
10224TIP3    H152163   3.001   2.530  16.709  0.0286 -0.9210  1.8409
10224TIP3    H252164   3.150   2.516  16.731  0.6119  0.1428 -1.2347
10225TIP3   OH252165   6.673   5.625  15.246  0.8891  0.0204 -0.2232
10225TIP3    H152166   6.670   5.548  15.188  1.4828 -0.3122  0.1839
10225TIP3    H252167   6.581   5.647  15.261  0.6767 -1.4991  0.8391
10226TIP3   OH252168   2.836   1.700   0.711  0.4061  0.1734  0.3497
10226TIP3    H152169   2.869   1.783   0.747  1.5390  0.2144 -0.7668
10226TIP3    H252170   2.869   1.633   0.771 -0.2920  0.4856  1.1090
10227TIP3   OH252171   5.160   2.931  15.546  0.1391 -0.1758  0.4342
10227TIP3    H152172   5.218   2.929  15.622 -0.7683  0.3854  1.1499
10227TIP3    H252173   5.162   3.023  15.517 -0.0174 -0.2542  0.1759
10228TIP3   OH252174   3.250   4.865   6.423  0.3056  0.2341 -0.2535
10228TIP3    H152175   3.295   4.950   6.424 -0.3763  0.5970 -0.5384
10228TIP3    H252176   3.172   4.879   6.476 -0.2655  0.0346 -1.0393
10229TIP3   OH252177   4.188   1.085   3.453 -0.0609  0.7399  0.1660
10229TIP3    H152178   4.284   1.078   3.449 -0.1873 -1.1485  0.4634
10229TIP3    H252179   4.156   1.025   3.386 -1.0669  1.3749  0.0586
10230TIP3   OH252180   5.423   1.416  14.609  0.3802 -0.1943  0.4512
10230TIP3    H152181   5.467   1.405  14.693 -1.1706  1.2993  1.5019
10230TIP3    H252182   5.487   1.387  14.544  3.2607  2.8018  1.8294
10231TIP3   OH252183   4.540   4.313   5.570 -0.1664  0.2550  0.3513
10231TIP3    H152184   4.616   4.255   5.571 -0.6317 -0.3593  0.2717
10231TIP3    H252185   4.562   4.380   5.506 -0.0667 -0.4293 -0.3422
10232TIP3   OH252186   0.334   0.510  11.481  0.2298  0.5768 -0.2081
10232TIP3    H152187   0.300   0.599  11.479 -0.4855  0.3319  0.8981
10232TIP3    H252188   0.405   0.512  11.544  1.7573  0.8852 -1.8889
10233TIP3   OH252189   6.548   5.534   5.052 -0.3640  0.6077  0.1718
10233TIP3    H152190   6.595   5.564   5.130 -1.1937  0.9358  0.5537
10233TIP3    H252191   6.616   5.519   4.987  0.3403  0.3088  0.9712
10234TIP3   OH252192   0.826   4.319  13.108  0.0022  0.1906 -0.4525
10234TIP3    H152193   0.836   4.381  13.036  0.5706 -0.8560 -1.2956
10234TIP3    H252194   0.737   4.332  13.140 -0.9030 -0.6465 -2.5868
10235TIP3   OH252195   6.135   2.776   3.089  0.1306 -0.0116 -0.0614
10235TIP3    H152196   6.216   2.730   3.109  0.9937  0.8744 -1.4445
10235TIP3    H252197   6.127   2.841   3.159 -0.5995 -1.5863  1.3540
10236TIP3   OH252198   6.022   2.875  15.340 -0.0047  0.3314 -0.2265
10236TIP3    H152199   5.934   2.898  15.309  0.3642 -0.3479 -1.8335
10236TIP3    H252200   6.037   2.934  15.414 -1.5483  0.9121 -0.3479
10237TIP3   OH252201   3.038   2.044  15.378 -0.3489 -0.3959  0.4608
10237TIP3    H152202   3.095   2.113  15.413  0.2249 -0.3782 -0.4850
10237TIP3    H252203   3.079   2.020  15.295 -1.8350 -0.2675 -0.3145
10238TIP3   OH252204   6.138   5.715  12.820 -0.1285 -0.0614  0.4597
10238TIP3    H152205   6.209   5.778  12.816 -1.3952  1.3257 -0.6344
10238TIP3    H252206   6.152   5.668  12.902  1.5134  0.8249  0.6965
10239TIP3   OH252207   1.109   6.642  12.851 -0.0280  0.0789 -0.1317
10239TIP3    H152208   1.165   6.592  12.792  1.8009  0.6856  1.0300
10239TIP3    H252209   1.090   6.582  12.923 -1.8403 -0.4995 -1.0825
10240TIP3   OH252210   2.134   0.919  10.921 -0.0172  0.9874  0.8001
10240TIP3    H152211   2.092   0.986  10.976 -0.8465  1.4619 -0.3905
10240TIP3    H252212   2.148   0.846  10.981 -2.7834  0.7256  1.2175
10241TIP3   OH252213   0.231   3.355  10.033 -0.0917 -0.7263 -0.1073
10241TIP3    H152214   0.141   3.322  10.031 -0.4028  0.1681 -1.0886
10241TIP3    H252215   0.262   3.346   9.943 -0.0338  1.2313 -0.3010
10242TIP3   OH252216   2.674   2.542  14.457 -0.3404 -0.2365  0.3265
10242TIP3    H152217   2.638   2.610  14.400  0.0294  0.5038  0.9634
10242TIP3    H252218   2.745   2.586  14.504 -2.2774 -0.0887  3.2551
10243TIP3   OH252219   4.958   5.453   3.235 -0.0105  0.0342 -0.1353
10243TIP3    H152220   4.987   5.458   3.144 -1.3260  1.5379 -0.4928
10243TIP3    H252221   4.866   5.478   3.232 -0.5280 -1.5334  1.4026
10244TIP3   OH252222   2.830   5.174   3.787 -0.9538  0.0858  0.1061
10244TIP3    H152223   2.856   5.257   3.746 -3.0112 -0.3320 -2.1739
10244TIP3    H252224   2.772   5.200   3.859  0.9199  0.7273  1.4265
10245TIP3   OH252225   1.153   4.145  15.940 -0.3444 -0.0321 -0.3854
10245TIP3    H152226   1.078   4.202  15.958  1.0593  1.7872 -0.1787
10245TIP3    H252227   1.178   4.112  16.026  0.6961  1.4461 -0.0967
10246TIP3   OH252228   6.607   5.156   2.485 -0.4736  0.2697  1.2798
10246TIP3    H152229   6.681   5.098   2.465  1.4629  2.9947  0.2256
10246TIP3    H252230   6.591   5.142   2.579  1.9406  0.2286  1.7271
10247TIP3   OH252231   6.493   0.312  12.538 -0.1261 -0.6135  0.1175
10247TIP3    H152232   6.464   0.303  12.448 -0.5866 -0.3580  0.2380
10247TIP3    H252233   6.466   0.400  12.564  3.1370  0.6936 -0.6332
10248TIP3   OH252234   4.386   1.168   1.232 -0.2928  0.2833  0.7992
10248TIP3    H152235   4.441   1.116   1.290  2.4031  0.0426 -1.8594
10248TIP3    H252236   4.447   1.203   1.167 -2.7588  2.9937 -0.1427
10249TIP3   OH252237   6.011   6.709  11.331 -0.3111 -0.7999  0.7944
10249TIP3    H152238   6.093   6.757  11.331  0.2292 -1.7161  0.2166
10249TIP3    H252239   5.961   6.746  11.405 -0.6596  1.9193 -0.7210
10250TIP3   OH252240   0.586   4.352   1.015 -0.0223 -0.1761 -0.0659
10250TIP3    H152241   0.674   4.388   1.027 -0.0120 -0.0788 -0.4492
10250TIP3    H252242   0.576   4.342   0.921 -0.6561  0.3948 -0.0607
10251TIP3   OH252243   5.594   4.475   4.842 -0.3536  0.1137 -0.1984
10251TIP3    H152244   5.618   4.425   4.920 -0.7207  0.2095 -0.0213
10251TIP3    H252245   5.659   4.451   4.777  1.4633  1.9156  0.8793
10252TIP3   OH252246   1.435   5.176   3.651 -0.1198 -0.1582  1.0104
10252TIP3    H152247   1.478   5.096   3.622  0.4719  0.0634  1.2590
10252TIP3    H252248   1.451   5.239   3.580  1.5249  0.4506  1.8985
10253TIP3   OH252249   4.082   0.270  13.741  0.6036  0.5530  0.1194
10253TIP3    H152250   4.176   0.287  13.732  1.0613 -1.5146  0.6055
10253TIP3    H252251   4.077   0.175  13.756 -1.4794  0.8128  1.1804
10254TIP3   OH252252   3.601   5.462  13.285 -0.3210  0.2820  0.0385
10254TIP3    H152253   3.557   5.481  13.202 -0.8753  0.6378  0.4148
10254TIP3    H252254   3.594   5.367  13.295 -1.9228  0.4570  0.6136
10255TIP3   OH252255   2.570   3.305   5.307  0.2779  0.3246  0.2408
10255TIP3    H152256   2.483   3.272   5.332 -0.6548  1.2792 -1.6597
10255TIP3    H252257   2.610   3.331   5.390 -0.1899 -2.5512  1.4507
10256TIP3   OH252258   1.375   2.797  14.712  0.4166 -0.1274  0.4434
10256TIP3    H152259   1.376   2.873  14.654 -0.0860  0.1597  0.8105
10256TIP3    H252260   1.440   2.738  14.675  0.9277  0.5532  0.2484
10257TIP3   OH252261   5.877   5.319   5.042  0.2762 -0.4078 -0.4989
10257TIP3    H152262   5.787   5.348   5.026 -0.0461 -0.6584  0.8431
10257TIP3    H252263   5.879   5.229   5.011 -0.0090 -0.4911 -0.2715
10258TIP3   OH252264   3.776   2.825  14.536 -0.1065  0.5140  0.2004
10258TIP3    H152265   3.723   2.891  14.491  0.1247  1.8317  1.7952
10258TIP3    H252266   3.809   2.871  14.614  0.7059 -1.2641  0.9152
10259TIP3   OH252267   1.949   6.019  16.221 -0.0713  0.3271  0.4849
10259TIP3    H152268   1.912   6.078  16.156 -1.1324 -1.0116 -0.1610
10259TIP3    H252269   1.873   5.978  16.262  0.6370 -1.7502 -0.1903
10260TIP3   OH252270   3.071   3.819  16.642 -0.3678 -0.2322 -0.3151
10260TIP3    H152271   3.123   3.744  16.671  1.0234  0.8378 -0.0063
10260TIP3    H252272   3.091   3.828  16.549 -0.4155 -0.1474 -0.3183
10261TIP3   OH252273   3.580   4.942   4.377  0.4441 -0.0497 -0.5862
10261TIP3    H152274   3.630   4.884   4.434 -0.8774 -1.6155 -0.9846
10261TIP3    H252275   3.598   4.912   4.288  0.1811  0.5155 -0.8386
10262TIP3   OH252276   2.865   0.485   6.713  0.2752  0.0708 -0.1083
10262TIP3    H152277   2.940   0.442   6.671  0.0157  0.9032 -1.4448
10262TIP3    H252278   2.900   0.566   6.749 -0.1649  0.8804 -1.5007
10263TIP3   OH252279   4.809   3.970   6.521  0.0144 -0.0860  0.4686
10263TIP3    H152280   4.862   4.034   6.568 -0.0407 -0.2541  0.7611
10263TIP3    H252281   4.750   4.023   6.468  0.7776  0.1011 -0.2044
10264TIP3   OH252282   4.257   2.613  14.557 -0.1274  0.0867  0.0704
10264TIP3    H152283   4.162   2.624  14.555 -0.1418  0.0959  0.6186
10264TIP3    H252284   4.288   2.658  14.479 -0.2770  3.1172  1.6697
10265TIP3   OH252285   2.464   1.239   5.137 -0.4858 -0.1431  0.6901
10265TIP3    H152286   2.426   1.151   5.140  0.9197 -0.7639  0.4962
10265TIP3    H252287   2.430   1.277   5.056 -0.5922 -0.7345  0.4528
10266TIP3   OH252288   0.177   6.577   2.080 -0.2558 -0.2156 -0.5775
10266TIP3    H152289   0.194   6.640   2.009 -1.0938  0.9481  0.2332
10266TIP3    H252290   0.263   6.540   2.099 -0.1247 -1.0602 -2.6595
10267TIP3   OH252291   1.700   5.247  17.011  0.2952 -0.8023 -0.0583
10267TIP3    H152292   1.660   5.333  16.993  0.2701 -0.7100  0.4476
10267TIP3    H252293   1.703   5.204  16.925 -0.3263 -0.5692 -0.1956
10268TIP3   OH252294   0.858   6.240  16.412  0.0826  0.2050  0.0853
10268TIP3    H152295   0.935   6.223  16.357 -0.3970  0.5736 -0.7078
10268TIP3    H252296   0.886   6.216  16.500  1.3529  1.0376 -0.0689
10269TIP3   OH252297   4.624   4.353   3.471 -0.0121 -0.4013 -0.1999
10269TIP3    H152298   4.635   4.259   3.453 -0.8182 -1.0709  2.5532
10269TIP3    H252299   4.676   4.369   3.550  0.2263  1.5123 -0.7180
10270TIP3   OH252300   0.320   3.165   4.966 -0.2086  0.8518 -0.5310
10270TIP3    H152301   0.320   3.161   4.871  2.8670  0.8680 -0.5980
10270TIP3    H252302   0.278   3.249   4.986 -3.1139 -0.2559 -1.7249
10271TIP3   OH252303   2.238   5.347  17.028 -0.2514 -0.0796 -0.9668
10271TIP3    H152304   2.313   5.331  16.971  0.6214 -0.8833  0.3828
10271TIP3    H252305   2.176   5.396  16.973 -0.0046 -1.9881 -2.9979
10272TIP3   OH252306   2.127   2.296  13.553 -0.0348  0.3399  0.4216
10272TIP3    H152307   2.066   2.293  13.480  0.0320  0.2533  0.3691
10272TIP3    H252308   2.085   2.245  13.622  0.7276 -1.1643 -0.1944
10273TIP3   OH252309   3.928   3.038   4.361 -0.2694  0.0517  0.0414
10273TIP3    H152310   3.996   3.006   4.302 -0.4319  1.5468 -0.9804
10273TIP3    H252311   3.852   3.051   4.304 -1.1764 -0.8204  1.0275
10274TIP3   OH252312   4.806   6.549   5.184 -0.5166 -0.5290  0.0227
10274TIP3    H152313   4.874   6.567   5.119 -0.6126 -1.7569 -0.4279
10274TIP3    H252314   4.846   6.575   5.268  0.8365 -1.9977 -0.1246
10275TIP3   OH252315   2.622   3.255  10.895  0.7885  0.2187  0.2261
10275TIP3    H152316   2.575   3.319  10.842 -1.2435 -0.9152  0.5631
10275TIP3    H252317   2.609   3.172  10.848 -1.4567 -0.8801  2.6892
10276TIP3   OH252318   5.302   1.370  15.828  0.3417  0.4083 -0.5762
10276TIP3    H152319   5.260   1.444  15.784 -0.0877  0.2804 -0.3810
10276TIP3    H252320   5.385   1.405  15.860 -0.8392  1.3953  1.4531
10277TIP3   OH252321   4.066   1.722   4.833 -0.9120  0.4025 -0.2480
10277TIP3    H152322   3.982   1.718   4.787 -0.7060 -0.9897 -0.5300
10277TIP3    H252323   4.046   1.689   4.921 -0.7528  0.4863 -0.1805
10278TIP3   OH252324   1.311   3.036   3.142  0.6825 -0.5961  0.3179
10278TIP3    H152325   1.261   2.958   3.119  0.4615  0.0316 -1.3734
10278TIP3    H252326   1.321   3.084   3.060  0.4793  1.3687  1.4098
10279TIP3   OH252327   1.930   3.953   4.567 -0.6209  0.4233 -0.4843
10279TIP3    H152328   1.853   3.897   4.580 -0.0180 -0.4737 -0.7410
10279TIP3    H252329   1.967   3.963   4.654  0.2055 -0.9494 -0.6564
10280TIP3   OH252330   0.444   3.032   4.510 -0.3193  0.7254 -0.1017
10280TIP3    H152331   0.362   2.985   4.524 -0.3463  0.5400 -0.8444
10280TIP3    H252332   0.487   3.032   4.595 -0.9571  0.5616  0.2181
10281TIP3   OH252333   3.775   5.685  11.642 -0.1604 -0.2953  0.3036
10281TIP3    H152334   3.839   5.692  11.571  0.6265 -2.1212  0.7904
10281TIP3    H252335   3.719   5.762  11.632  0.9498  0.3324 -1.2886
10282TIP3   OH252336   1.217   1.839  16.581 -0.0644  0.4574  0.5838
10282TIP3    H152337   1.277   1.766  16.597 -0.6759  0.2750  2.1698
10282TIP3    H252338   1.259   1.890  16.512  0.7933 -0.9083  0.0680
10283TIP3   OH252339   3.119   5.553  14.742  0.3032 -0.5542 -0.6967
10283TIP3    H152340   3.197   5.574  14.793 -0.6859  1.8401 -0.1096
10283TIP3    H252341   3.132   5.599  14.659  0.4155 -1.8014 -1.3888
10284TIP3   OH252342   6.434   6.353  14.884 -0.1558 -0.1405 -0.0245
10284TIP3    H152343   6.401   6.383  14.968 -0.0204  2.9925 -0.9936
10284TIP3    H252344   6.358   6.354  14.826  0.0532 -0.7084 -0.3085
10285TIP3   OH252345   3.604   3.941  11.005 -0.0293  0.0940  0.2957
10285TIP3    H152346   3.565   4.026  10.985 -1.1949 -0.4653  0.0876
10285TIP3    H252347   3.695   3.949  10.978 -0.1465  1.2511  0.2081
10286TIP3   OH252348   5.517   3.296   0.538 -0.0520 -0.3752  0.0994
10286TIP3    H152349   5.461   3.221   0.556  2.1791 -3.3018 -4.0457
10286TIP3    H252350   5.606   3.259   0.537  1.1225  2.3428 -1.8762
10287TIP3   OH252351   0.487   6.533   3.836  0.0392 -0.1798 -0.2241
10287TIP3    H152352   0.552   6.603   3.837  2.7367 -2.5066  3.3761
10287TIP3    H252353   0.441   6.541   3.919 -0.2187 -2.0655 -0.1522
10288TIP3   OH252354   2.110   1.801  17.202  0.2002  0.4252  0.6629
10288TIP3    H152355   2.066   1.838  17.278  1.4045  0.9556  1.1156
10288TIP3    H252356   2.188   1.757  17.238  0.6503  0.4721 -0.2269
10289TIP3   OH252357   2.357   0.988   5.176 -0.0598  0.3307 -0.2945
10289TIP3    H152358   2.429   0.927   5.155 -0.3729 -0.5694  1.1718
10289TIP3    H252359   2.306   0.942   5.242 -0.3354  2.1889  0.8070
10290TIP3   OH252360   3.496   0.881  16.318 -0.5914  0.8098 -0.0550
10290TIP3    H152361   3.430   0.917  16.258 -3.3651 -1.1007  1.7671
10290TIP3    H252362   3.495   0.940  16.393 -1.2967 -0.0408  0.6080
10291TIP3   OH252363   6.370   6.447   3.492 -0.2632  0.1175 -0.2669
10291TIP3    H152364   6.413   6.509   3.433 -0.3023  0.3139 -0.0860
10291TIP3    H252365   6.427   6.370   3.491  0.5962  0.7383  0.7279
10292TIP3   OH252366   6.793   3.065  13.832  0.7998 -0.1843  0.0190
10292TIP3    H152367   6.719   3.103  13.786  0.0952 -2.9370 -1.2405
10292TIP3    H252368   6.867   3.075  13.772  0.9979  0.6587  0.3930
10293TIP3   OH252369   1.095   5.919   2.814 -0.1022  0.0676 -0.0178
10293TIP3    H152370   1.185   5.926   2.781 -0.0209  0.1865  0.2274
10293TIP3    H252371   1.066   6.010   2.825  0.0541  0.0313  0.7299
10294TIP3   OH252372   0.250   3.268   5.282 -0.1656 -0.1154  0.0300
10294TIP3    H152373   0.241   3.282   5.377  0.3025  0.4347 -0.0023
10294TIP3    H252374   0.313   3.335   5.254  0.5361 -0.9814 -0.4855
10295TIP3   OH252375   0.979   0.226   5.386 -0.0950  0.0354 -0.0942
10295TIP3    H152376   0.997   0.148   5.334 -0.0101  0.4310 -0.6618
10295TIP3    H252377   0.892   0.255   5.357  0.6370  1.1935 -1.2064
10296TIP3   OH252378   6.666   3.419   2.320 -0.3603 -0.3563  0.4679
10296TIP3    H152379   6.611   3.390   2.248 -0.3590  3.1189 -1.0503
10296TIP3    H252380   6.750   3.375   2.305 -0.1208  0.8731 -2.1593
10297TIP3   OH252381   5.117   2.208   1.358  0.0333  0.3019 -0.6598
10297TIP3    H152382   5.127   2.202   1.453 -2.3343 -0.0848 -0.3877
10297TIP3    H252383   5.206   2.205   1.324  0.7869 -2.5336  1.3759
10298TIP3   OH252384   1.444   4.323  12.417 -0.2525 -0.1768 -0.2945
10298TIP3    H152385   1.512   4.259  12.436  0.7498  0.9086 -0.1167
10298TIP3    H252386   1.368   4.292  12.465  1.1414  0.4620  2.4756
10299TIP3   OH252387   0.357   6.627  14.789  0.1545 -0.1210  0.3563
10299TIP3    H152388   0.271   6.611  14.751  0.0556 -0.2065  0.6098
10299TIP3    H252389   0.417   6.630  14.714 -0.1867  0.7742  0.1103
10300TIP3   OH252390   1.317   1.362   4.944 -0.3113  0.0868 -0.2183
10300TIP3    H152391   1.370   1.299   4.896 -1.0413 -1.1284  0.5394
10300TIP3    H252392   1.353   1.362   5.033  1.0402  2.3264 -0.7441
10301TIP3   OH252393   4.036   3.691  16.369  0.2044  0.1053  0.3250
10301TIP3    H152394   4.026   3.686  16.464 -1.8019 -1.3538  0.0531
10301TIP3    H252395   4.033   3.600  16.340 -2.0676  0.6958 -1.3896
10302TIP3   OH252396   4.859   5.935   5.030  0.4716  0.1713  0.0255
10302TIP3    H152397   4.918   5.998   4.989 -1.1486  1.4729 -0.3317
10302TIP3    H252398   4.870   5.948   5.124  1.2141 -0.0364 -0.0302
10303TIP3   OH252399   2.432   4.354  17.006 -0.5019  0.1547  0.4840
10303TIP3    H152400   2.377   4.276  17.008 -0.5988  0.2192  0.3590
10303TIP3    H252401   2.391   4.415  17.068 -0.9739  0.4693 -0.1264
10304TIP3   OH252402   4.373   0.150  15.293  0.1972 -0.0480 -0.4163
10304TIP3    H152403   4.416   0.234  15.311  0.1744 -0.6274  2.5201
10304TIP3    H252404   4.446   0.089  15.279  0.2475 -0.1014  0.0902
10305TIP3   OH252405   4.634   1.003   0.257 -0.2945 -0.1745  0.6796
10305TIP3    H152406   4.629   1.097   0.238 -1.1942 -0.2583  0.4985
10305TIP3    H252407   4.647   0.962   0.171  2.0258 -0.0874  0.9550
10306TIP3   OH252408   6.731   3.243  15.805 -0.0549  0.2736 -0.4173
10306TIP3    H152409   6.783   3.286  15.737  1.9379  1.2992  1.6551
10306TIP3    H252410   6.774   3.159  15.819  1.5183  1.3604  1.7051
10307TIP3   OH252411   4.200   1.922  13.584  0.2552 -1.0031  0.3723
10307TIP3    H152412   4.131   1.860  13.560 -0.9285  0.7809 -0.9073
10307TIP3    H252413   4.172   1.958  13.668  1.5558 -3.0441  1.7357
10308TIP3   OH252414   2.872   1.029   5.217 -0.2414  0.0330  0.1799
10308TIP3    H152415   2.939   1.084   5.176  0.5487 -0.3192  1.0006
10308TIP3    H252416   2.789   1.071   5.193  0.3576  1.7653  1.0652
10309TIP3   OH252417   1.635   4.135  14.604  0.0121 -0.3565  0.0671
10309TIP3    H152418   1.645   4.209  14.663 -1.5908 -1.0006  1.1745
10309TIP3    H252419   1.670   4.060  14.653  0.0106 -0.6467 -0.3682
10310TIP3   OH252420   4.246   2.999  12.123  0.1757 -0.3083 -0.2610
10310TIP3    H152421   4.236   3.048  12.042 -0.4341  0.5094  0.3028
10310TIP3    H252422   4.286   3.062  12.184  0.1235 -0.7527  0.2337
10311TIP3   OH252423   3.498   2.586   5.479 -1.1747  0.0150  0.1725
10311TIP3    H152424   3.559   2.514   5.464  0.5250  1.2102  1.1304
10311TIP3    H252425   3.413   2.551   5.454 -0.2620 -2.0553 -0.1453
10312TIP3   OH252426   3.811   0.135   3.750 -0.1778 -0.3675  0.4387
10312TIP3    H152427   3.821   0.128   3.655  0.5535  0.6690  0.4353
10312TIP3    H252428   3.830   0.226   3.770  0.6012 -0.7890  1.6950
10313TIP3   OH252429   2.485   0.945  11.436  0.1539 -0.6689 -0.2365
10313TIP3    H152430   2.406   0.961  11.489 -0.3521  0.7061 -1.3690
10313TIP3    H252431   2.480   0.853  11.412 -1.2396 -0.5462 -0.4609
10314TIP3   OH252432   4.765   4.818   5.511  0.4908  0.5486 -0.0383
10314TIP3    H152433   4.773   4.727   5.539 -0.7939 -0.1119 -1.7592
10314TIP3    H252434   4.811   4.868   5.579 -0.8507 -1.1663  2.2230
10315TIP3   OH252435   4.287   1.741  16.124 -0.3276 -0.4277  0.0173
10315TIP3    H152436   4.198   1.775  16.112  0.2170  0.5508 -1.3956
10315TIP3    H252437   4.337   1.778  16.051  1.7051  0.6583  1.8815
10316TIP3   OH252438   0.667   0.685  11.223  0.1994 -0.0607 -0.0953
10316TIP3    H152439   0.583   0.642  11.235  0.3800 -0.0352  1.2821
10316TIP3    H252440   0.730   0.628  11.266  0.7896  0.3083 -0.4568
10317TIP3   OH252441   4.148   4.562   3.425 -0.3980  1.0955  0.1059
10317TIP3    H152442   4.211   4.499   3.459 -1.3515  0.1109  0.0674
10317TIP3    H252443   4.156   4.638   3.483  1.2308  1.2268 -0.2482
10318TIP3   OH252444   6.078   2.450   1.322  0.3785 -0.3352 -0.1461
10318TIP3    H152445   6.134   2.519   1.286  1.0161 -0.2505  0.9727
10318TIP3    H252446   6.025   2.420   1.248  0.0255  1.4170 -0.6245
10319TIP3   OH252447   3.167   5.351  17.241 -0.2144  0.0896  0.3229
10319TIP3    H152448   3.106   5.397  17.299 -0.3907  1.1495 -0.6934
10319TIP3    H252449   3.170   5.404  17.162  3.3425  0.9893  0.9779
10320TIP3   OH252450   5.061   0.929   4.484 -0.4774  0.1665  0.2818
10320TIP3    H152451   5.014   0.942   4.566  0.6353  3.1806  0.4937
10320TIP3    H252452   5.148   0.964   4.500 -0.2105  0.7219 -2.1633
10321TIP3   OH252453   6.611   5.382   1.506  0.5565  0.5553  0.5365
10321TIP3    H152454   6.539   5.342   1.555  0.3249  0.8395  0.4314
10321TIP3    H252455   6.582   5.471   1.489  0.4434  0.3312 -0.5051
10322TIP3   OH252456   5.935   1.457   1.913  0.1785  0.6325  0.0086
10322TIP3    H152457   5.925   1.368   1.947  1.9057  0.9549  1.4177
10322TIP3    H252458   5.852   1.500   1.936 -0.8881 -0.7402 -1.1660
10323TIP3   OH252459   0.642   6.114   1.011  0.0975  0.4018 -0.2418
10323TIP3    H152460   0.721   6.145   0.968  0.3684  1.3228  0.8938
10323TIP3    H252461   0.670   6.089   1.099 -1.0917  2.0344  0.6409
10324TIP3   OH252462   0.477   2.049   4.528 -0.2523 -0.0238 -0.0538
10324TIP3    H152463   0.518   2.090   4.604 -0.8500 -0.2403  0.3937
10324TIP3    H252464   0.397   2.100   4.514 -0.4449 -0.3553 -0.1740
10325TIP3   OH252465   0.789   3.508   1.702 -0.4556 -0.7774 -0.2067
10325TIP3    H152466   0.715   3.560   1.731  0.4324 -0.7484  2.1164
10325TIP3    H252467   0.751   3.423   1.679 -1.4337 -0.2297 -0.6188
10326TIP3   OH252468   1.645   3.972   4.616 -0.2874 -0.9335 -0.4964
10326TIP3    H152469   1.684   3.969   4.703 -0.9713 -0.7345 -0.1738
10326TIP3    H252470   1.551   3.979   4.633 -0.2944  1.1628 -1.2238
10327TIP3   OH252471   4.634   5.857   3.033 -0.3188  0.4257 -0.8548
10327TIP3    H152472   4.601   5.770   3.056  1.5743  0.1588  1.0654
10327TIP3    H252473   4.729   5.851   3.048 -0.3091  3.1402  0.4303
10328TIP3   OH252474   0.998   1.663   2.068  0.0803 -0.2825 -0.1817
10328TIP3    H152475   1.061   1.641   1.999  0.1696  1.0308 -0.5220
10328TIP3    H252476   1.052   1.689   2.142 -0.0354 -0.8789  0.1160
10329TIP3   OH252477   2.372   4.175  13.431 -0.0569 -0.3385 -0.4905
10329TIP3    H152478   2.418   4.145  13.509  0.5402 -0.2791 -0.8202
10329TIP3    H252479   2.344   4.264  13.452 -2.0033 -1.1601  0.5711
10330TIP3   OH252480   2.067   3.915  10.733  0.5471 -0.3234  0.4621
10330TIP3    H152481   2.130   3.871  10.676 -0.5324 -0.0342 -0.9689
10330TIP3    H252482   2.059   4.003  10.697 -0.3521 -0.2242  0.8796
10331TIP3   OH252483   5.115   0.520  11.567 -0.1441  0.4388 -1.5678
10331TIP3    H152484   5.123   0.454  11.636 -2.0695  1.5780 -0.2033
10331TIP3    H252485   5.147   0.476  11.488  2.8569 -0.6340  0.1605
10332TIP3   OH252486   5.314   0.807   3.299 -0.4436  0.4691  0.2222
10332TIP3    H152487   5.237   0.821   3.245  0.8515 -0.0613 -1.8414
10332TIP3    H252488   5.339   0.716   3.282  0.8645  0.7632  0.5074
10333TIP3   OH252489   4.614   3.561  10.891  0.2109 -0.1007 -0.4092
10333TIP3    H152490   4.566   3.516  10.961  2.5810 -1.3215  0.4735
10333TIP3    H252491   4.665   3.492  10.849  1.0222  1.1378 -1.4888
10334TIP3   OH252492   5.672   6.521  17.096  0.8692 -0.1587 -0.4825
10334TIP3    H152493   5.659   6.428  17.112  0.4877  0.1068  0.7816
10334TIP3    H252494   5.767   6.532  17.093  0.9221 -0.8599 -2.3553
10335TIP3   OH252495   2.242   1.715  13.060 -0.7405 -0.0848  0.2183
10335TIP3    H152496   2.169   1.690  13.003 -2.9310  2.1787  1.9043
10335TIP3    H252497   2.309   1.749  13.000 -1.4144 -1.3934 -1.2974
10336TIP3   OH252498   0.111   2.472  11.857 -0.6074  0.1282  0.2790
10336TIP3    H152499   0.100   2.556  11.902  0.1729 -0.0219  0.7718
10336TIP3    H252500   0.134   2.411  11.927 -5.0389 -1.3918  0.5535
10337TIP3   OH252501   5.518   0.143  16.306 -0.0035 -0.1043  0.4188
10337TIP3    H152502   5.557   0.226  16.278  0.5381 -0.6313 -0.4036
10337TIP3    H252503   5.438   0.136  16.254 -0.5907  0.4116  1.2562
10338TIP3   OH252504   4.844   0.449   1.753  0.2653  0.1792 -0.4434
10338TIP3    H152505   4.900   0.397   1.696  1.9454  0.9184  0.5139
10338TIP3    H252506   4.892   0.530   1.768  0.0454 -0.1334  2.2875
10339TIP3   OH252507   5.723   2.413  13.135 -0.1667  0.4000  0.0982
10339TIP3    H152508   5.657   2.432  13.201 -0.1562 -1.9209  0.7954
10339TIP3    H252509   5.803   2.395  13.185 -0.2503 -1.7370 -0.5063
10340TIP3   OH252510   0.211   2.699  17.072 -0.3796  0.8223  0.2741
10340TIP3    H152511   0.181   2.790  17.074 -0.3885  0.9326 -2.4842
10340TIP3    H252512   0.304   2.705  17.050 -0.9726  0.1313 -2.6521
10341TIP3   OH252513   5.433   6.153   0.223  0.1774  0.2911  0.9310
10341TIP3    H152514   5.384   6.202   0.289 -1.3530 -1.1799  0.9273
10341TIP3    H252515   5.365   6.115   0.167  1.3693 -0.7745  0.1860
10342TIP3   OH252516   3.617   0.606   0.817 -0.8313 -0.3134 -0.8065
10342TIP3    H152517   3.633   0.534   0.756 -0.6118  0.1884 -1.3407
10342TIP3    H252518   3.549   0.658   0.775 -1.5665 -0.6526 -0.0419
10343TIP3   OH252519   1.182   2.684  10.225  0.5880  0.1686 -0.2032
10343TIP3    H152520   1.227   2.687  10.140 -0.3030  0.1142 -0.6815
10343TIP3    H252521   1.229   2.617  10.275  1.7750  0.9446 -0.2731
10344TIP3   OH252522   0.322   1.638   4.549 -0.0435 -0.8036  0.2238
10344TIP3    H152523   0.371   1.652   4.468  0.4542 -0.6765  0.5484
10344TIP3    H252524   0.267   1.562   4.530 -0.8581 -0.0128 -0.6620
10345TIP3   OH252525   4.549   1.336   3.890 -0.6234 -0.5095  0.3035
10345TIP3    H152526   4.497   1.257   3.901 -2.9603  0.8903 -0.3038
10345TIP3    H252527   4.600   1.320   3.810  0.3857 -2.1224  1.2316
10346TIP3   OH252528   6.368   5.425   0.773 -0.4029  0.0876 -0.0053
10346TIP3    H152529   6.316   5.487   0.824 -2.0217 -0.8241 -0.4777
10346TIP3    H252530   6.314   5.409   0.695  1.1473  0.0042 -1.0663
10347TIP3   OH252531   4.618   4.129  16.432 -0.5194 -0.2208  0.2813
10347TIP3    H152532   4.571   4.198  16.480 -4.0541 -1.2023 -1.5996
10347TIP3    H252533   4.570   4.049  16.452  1.2505 -1.5160 -0.5754
10348TIP3   OH252534   0.222   0.226  15.605  0.4186 -0.3884 -0.5834
10348TIP3    H152535   0.303   0.275  15.594 -0.4105  0.8947 -1.1644
10348TIP3    H252536   0.228   0.153  15.544 -0.4383  1.7988 -3.3647
10349TIP3   OH252537   2.253   1.224   5.334  0.4769 -0.4848 -0.3994
10349TIP3    H152538   2.315   1.252   5.267  0.9334 -0.9783 -0.1943
10349TIP3    H252539   2.268   1.130   5.343 -1.5218 -0.9291 -1.5719
10350TIP3   OH252540   5.610   5.625  16.498  0.7668  0.0224 -0.5251
10350TIP3    H152541   5.582   5.589  16.414  1.3895 -1.2633 -0.1943
10350TIP3    H252542   5.705   5.623  16.495  0.7923 -0.1848  0.2741
10351TIP3   OH252543   3.408   5.466   2.741 -0.0293 -0.3533  0.3839
10351TIP3    H152544   3.322   5.479   2.702  0.2275  0.3045  0.0270
10351TIP3    H252545   3.407   5.376   2.773 -0.3450 -0.8072 -0.8940
10352TIP3   OH252546   3.341   5.529   0.222 -0.2278 -0.8830 -0.1953
10352TIP3    H152547   3.320   5.600   0.162  1.4205 -0.8603 -0.7670
10352TIP3    H252548   3.262   5.475   0.224 -0.2206 -1.0477 -2.6157
10353TIP3   OH252549   3.014   4.452  14.474 -0.4822  0.2756 -0.2148
10353TIP3    H152550   2.987   4.395  14.546 -2.1986  2.2805  0.7958
10353TIP3    H252551   3.106   4.430  14.459 -0.5919 -1.4021  1.4097
10354TIP3   OH252552   4.288   2.221   5.069 -0.0050 -0.0861 -0.3452
10354TIP3    H152553   4.231   2.143   5.064  1.4172 -1.0753 -1.7642
10354TIP3    H252554   4.271   2.267   4.986  1.4653 -0.5474 -0.9107
10355TIP3   OH252555   3.767   2.480  15.799 -0.8151 -0.0671  0.4387
10355TIP3    H152556   3.777   2.457  15.707  0.7667 -1.6612  0.9678
10355TIP3    H252557   3.818   2.414  15.846 -1.0606  1.0932  2.4180
10356TIP3   OH252558   3.965   0.805   4.907 -0.6121  0.0286  0.0330
10356TIP3    H152559   3.879   0.845   4.897 -0.3644  0.7128  0.6352
10356TIP3    H252560   4.027   0.873   4.879 -0.2488 -0.3287 -0.0412
10357TIP3   OH252561   3.017   2.909   3.295 -0.6216  0.2945  0.1408
10357TIP3    H152562   2.980   2.945   3.375  0.1263  0.7441  0.2962
10357TIP3    H252563   3.112   2.914   3.309 -0.5039 -1.8541  0.2077
10358TIP3   OH252564   5.902   5.410  16.361 -0.4779 -0.1489 -0.1582
10358TIP3    H152565   5.879   5.441  16.273  0.8640  0.9854 -0.1379
10358TIP3    H252566   5.890   5.487  16.417  0.0129 -0.4843  0.4097
10359TIP3   OH252567   4.348   0.228   0.153 -0.1986 -0.4133 -0.4770
10359TIP3    H152568   4.405   0.299   0.126  0.7413 -0.7870  0.4620
10359TIP3    H252569   4.270   0.237   0.099  0.9909 -0.2455 -2.1867
10360TIP3   OH252570   4.537   5.289   1.377  0.0695 -0.6202 -0.0130
10360TIP3    H152571   4.545   5.375   1.418 -0.0943 -0.7506  0.2944
10360TIP3    H252572   4.588   5.230   1.434  0.9796 -0.5567 -0.7424
10361TIP3   OH252573   2.459   5.479  11.005  0.2075  0.0549 -0.0356
10361TIP3    H152574   2.456   5.421  10.929 -2.0887  0.9008 -0.6502
10361TIP3    H252575   2.406   5.434  11.071 -0.6754  0.8958 -0.1496
10362TIP3   OH252576   4.056   1.167  13.421 -0.3867  0.1546  1.0151
10362TIP3    H152577   4.139   1.166  13.372 -0.9409 -0.9613  0.0799
10362TIP3    H252578   3.998   1.222  13.368  0.0139  1.7141  2.1441
10363TIP3   OH252579   6.348   1.606   4.759  0.0231 -0.0995 -0.1647
10363TIP3    H152580   6.325   1.667   4.689 -2.2372 -0.2363  0.3914
10363TIP3    H252581   6.404   1.541   4.717  1.7906  1.9028 -0.9445
10364TIP3   OH252582   2.392   1.073   6.122  0.4607 -0.6872  0.6696
10364TIP3    H152583   2.308   1.027   6.120  0.5209 -0.7593 -0.2895
10364TIP3    H252584   2.369   1.165   6.131  0.3032 -0.7554  1.0009
10365TIP3   OH252585   1.459   1.198  13.399  0.1614  0.0168 -0.5495
10365TIP3    H152586   1.541   1.244  13.382 -0.3592  0.4390 -2.0262
10365TIP3    H252587   1.391   1.265  13.389 -0.7355 -1.3406 -4.3192
10366TIP3   OH252588   5.681   6.019  13.801  0.0399 -0.8290  0.3029
10366TIP3    H152589   5.632   5.977  13.731 -0.2718 -0.9056  0.5656
10366TIP3    H252590   5.622   6.086  13.835  0.1762 -0.8127  0.5121
10367TIP3   OH252591   0.814   4.405  15.630  0.5666  0.4145 -0.9970
10367TIP3    H152592   0.796   4.441  15.543 -0.4307  2.4419  0.0110
10367TIP3    H252593   0.775   4.317  15.628  1.2227  0.1340 -2.8300
10368TIP3   OH252594   1.535   5.253  15.287 -0.1037  0.4086 -0.6001
10368TIP3    H152595   1.493   5.297  15.360 -0.0928 -0.8664  0.1906
10368TIP3    H252596   1.552   5.322  15.223 -2.0345  1.1855 -0.2993
10369TIP3   OH252597   0.828   4.524   4.144  0.2704  0.2158  0.0059
10369TIP3    H152598   0.872   4.607   4.126  1.9596 -0.8952 -1.2209
10369TIP3    H252599   0.777   4.506   4.064  1.2858 -0.7436 -0.4482
10370TIP3   OH252600   3.278   2.249   2.684  0.6518 -0.0435 -0.8372
10370TIP3    H152601   3.294   2.161   2.719  1.2101  0.4968  0.3138
10370TIP3    H252602   3.184   2.251   2.665  0.7492 -1.0842 -1.4307
10371TIP3   OH252603   6.214   0.297   3.128  0.0252 -0.1647 -0.4063
10371TIP3    H152604   6.176   0.374   3.085 -0.5969 -1.3244 -1.9827
10371TIP3    H252605   6.195   0.224   3.069 -0.6720 -1.7894  1.7216
10372TIP3   OH252606   3.617   2.922   4.399 -0.0963 -0.7929  0.5988
10372TIP3    H152607   3.546   2.906   4.461 -1.2240  0.2639 -0.3990
10372TIP3    H252608   3.592   3.003   4.354  2.0487 -0.0689  0.6665
10373TIP3   OH252609   1.191   2.096   3.247  0.3461 -0.5002  0.2622
10373TIP3    H152610   1.253   2.105   3.175  0.7670 -2.7719  0.3172
10373TIP3    H252611   1.223   2.020   3.297 -1.3198 -0.4425  1.4472
10374TIP3   OH252612   5.034   2.226  11.882 -0.3832  0.0158 -0.1147
10374TIP3    H152613   5.037   2.171  11.804  0.9248 -0.9210  0.5734
10374TIP3    H252614   4.944   2.258  11.885 -0.0706  1.3456 -2.8705
10375TIP3   OH252615   2.706   1.366  10.758 -0.6204  0.6555  0.2182
10375TIP3    H152616   2.656   1.359  10.677 -0.4142 -1.9281  0.2901
10375TIP3    H252617   2.644   1.403  10.821 -0.8333  2.5028 -1.0283
10376TIP3   OH252618   3.955   0.802  10.466  0.1842 -0.0853 -0.3388
10376TIP3    H152619   3.909   0.877  10.503  0.9211  0.0879  0.2487
10376TIP3    H252620   3.986   0.754  10.543 -2.9040 -2.6682 -0.5937
10377TIP3   OH252621   4.892   5.868   4.140 -0.2037 -0.0857 -0.7882
10377TIP3    H152622   4.872   5.864   4.046  0.7606  2.2352 -1.1297
10377TIP3    H252623   4.904   5.961   4.158  0.2126 -0.5546  1.5296
10378TIP3   OH252624   4.030   2.578  13.247  0.1162  0.9311  0.0293
10378TIP3    H152625   3.945   2.557  13.211 -0.1979  2.4201 -0.1141
10378TIP3    H252626   4.059   2.656  13.200  1.2369  0.8618  0.5642
10379TIP3   OH252627   0.315   1.600  15.941  0.5421  0.4807  0.0003
10379TIP3    H152628   0.292   1.558  16.024  2.9924  1.3526  1.1586
10379TIP3    H252629   0.308   1.530  15.876 -0.2802 -0.4854  1.1058
10380TIP3   OH252630   2.176   6.139   4.543 -0.1040  0.1724  0.2739
10380TIP3    H152631   2.111   6.069   4.546 -0.2308  0.2145 -1.3983
10380TIP3    H252632   2.259   6.095   4.530 -0.1761  0.3236 -0.7182
10381TIP3   OH252633   5.606   1.932  13.393  0.8895 -0.0859 -0.4780
10381TIP3    H152634   5.672   1.863  13.383 -1.8381 -2.5164 -2.3723
10381TIP3    H252635   5.558   1.908  13.472  0.5965  0.2389 -0.5601
10382TIP3   OH252636   0.442   5.069  17.214 -0.2218 -0.2827  0.1700
10382TIP3    H152637   0.529   5.063  17.255 -0.5178 -0.1664  0.8137
10382TIP3    H252638   0.390   5.119  17.276 -0.8416 -0.6227 -0.0793
10383TIP3   OH252639   6.644   4.479   3.615 -0.2493  0.2021  0.3223
10383TIP3    H152640   6.616   4.392   3.585  0.1543  0.5504 -1.0664
10383TIP3    H252641   6.571   4.537   3.592 -0.3900  0.2972  0.9862
10384TIP3   OH252642   1.475   6.041   1.488 -0.2107  0.3641 -0.0605
10384TIP3    H152643   1.412   6.055   1.558 -2.4061  0.8017 -2.0781
10384TIP3    H252644   1.515   5.957   1.508 -2.0432 -0.3264  0.7928
10385TIP3   OH252645   3.976   2.873   1.077  0.4589  0.1399 -0.1266
10385TIP3    H152646   3.921   2.915   1.144 -0.2077 -2.3838  0.9775
10385TIP3    H252647   4.008   2.945   1.024 -1.1572  1.9851  1.3139
10386TIP3   OH252648   0.542   4.285  11.864 -0.3175 -0.5589 -0.2892
10386TIP3    H152649   0.447   4.295  11.873 -0.2899  0.5955 -1.2278
10386TIP3    H252650   0.578   4.345  11.930 -0.2186  1.3614 -2.0478
10387TIP3   OH252651   4.208   5.526   3.650 -0.7176 -0.0595 -0.4977
10387TIP3    H152652   4.180   5.617   3.653 -0.9492 -0.1560  0.2681
10387TIP3    H252653   4.143   5.483   3.595 -1.7559 -0.1666  0.7939
10388TIP3   OH252654   4.558   6.100   5.062 -0.1629 -0.0070  0.1619
10388TIP3    H152655   4.615   6.124   4.989 -2.3132  0.6252 -1.3585
10388TIP3    H252656   4.587   6.013   5.089  0.2058 -0.5438 -1.9317
10389TIP3   OH252657   5.168   6.443  16.668  0.3231  0.4685  0.2121
10389TIP3    H152658   5.245   6.385  16.675 -1.0739 -1.3466  0.9851
10389TIP3    H252659   5.093   6.383  16.668 -1.0810  2.1649 -1.3231
10390TIP3   OH252660   2.331   2.453   5.496 -0.2625 -0.4838 -0.4117
10390TIP3    H152661   2.337   2.366   5.456  0.5289 -0.1778 -0.9906
10390TIP3    H252662   2.239   2.479   5.486 -0.5257 -1.3182 -0.1076
10391TIP3   OH252663   1.972   5.288  14.953 -0.0983 -0.0827 -0.5783
10391TIP3    H152664   1.978   5.327  14.865 -0.0774 -1.7845 -1.3551
10391TIP3    H252665   2.043   5.330  15.002  1.7065 -1.1455 -2.1993
10392TIP3   OH252666   1.864   5.199   5.198 -0.2868 -0.2660  0.2685
10392TIP3    H152667   1.821   5.114   5.189 -0.4052 -0.0746 -1.0574
10392TIP3    H252668   1.926   5.187   5.270  0.0491 -1.6310 -0.2290
10393TIP3   OH252669   0.367   0.891  12.521  0.0474 -0.0432 -0.3353
10393TIP3    H152670   0.403   0.962  12.574 -2.3183 -0.2784  1.7372
10393TIP3    H252671   0.330   0.934  12.444  0.1833  0.7818  0.0615
10394TIP3   OH252672   5.352   6.614   5.276 -0.0083  0.1877 -0.4019
10394TIP3    H152673   5.294   6.680   5.315  0.5355 -0.6554  1.9032
10394TIP3    H252674   5.418   6.665   5.229 -0.9763  1.2198 -0.6657
10395TIP3   OH252675   5.470   4.899  11.127 -0.0219  0.2290  0.0754
10395TIP3    H152676   5.428   4.855  11.201 -0.0846  1.4058  0.7552
10395TIP3    H252677   5.448   4.845  11.051  0.0483 -1.0018  0.9082
10396TIP3   OH252678   3.194   0.817   4.336  0.2980  0.3232  0.0324
10396TIP3    H152679   3.210   0.868   4.256  0.2747  0.8551  0.3673
10396TIP3    H252680   3.135   0.747   4.307 -1.2690  1.6230 -0.0416
10397TIP3   OH252681   0.897   1.049  13.732 -0.1606 -0.2069 -0.0102
10397TIP3    H152682   0.819   1.089  13.694  0.2864  0.9597  0.2769
10397TIP3    H252683   0.908   1.092  13.816  0.8576 -0.2743 -0.1005
10398TIP3   OH252684   3.822   5.373  12.448  0.4389  0.0132 -0.5348
10398TIP3    H152685   3.820   5.465  12.471  1.4396  0.4100 -1.9285
10398TIP3    H252686   3.789   5.370  12.358 -0.5797 -1.1072 -0.1331
10399TIP3   OH252687   5.215   1.539  12.947 -0.1987  0.0581  0.1287
10399TIP3    H152688   5.267   1.619  12.933  0.0760 -0.5907 -2.7247
10399TIP3    H252689   5.124   1.568  12.942 -0.1026  0.4267  0.4962
10400TIP3   OH252690   5.366   6.121   3.471 -0.1612 -0.0440  0.0192
10400TIP3    H152691   5.426   6.070   3.416  0.7175  0.0781  0.8510
10400TIP3    H252692   5.293   6.062   3.489  0.0878 -0.4649 -0.3497
10401TIP3   OH252693   1.711   5.195   3.851  0.5934  0.3015 -0.1124
10401TIP3    H152694   1.625   5.185   3.892  0.3847  1.0835 -0.3646
10401TIP3    H252695   1.705   5.276   3.801  1.4005  0.2327 -0.3249
10402TIP3   OH252696   6.391   3.552   2.839 -0.4652  0.3241  0.6459
10402TIP3    H152697   6.424   3.527   2.753  0.3784  1.4921  0.6128
10402TIP3    H252698   6.394   3.472   2.891  1.4438  0.1686  0.3273
10403TIP3   OH252699   2.127   5.555   1.930 -0.5387 -0.5488 -0.4981
10403TIP3    H152700   2.107   5.519   1.844  3.7802 -0.8600 -1.4939
10403TIP3    H252701   2.127   5.479   1.988  1.9472 -1.2536 -1.3375
10404TIP3   OH252702   4.245   4.335  16.428 -0.0473  0.0536  0.0539
10404TIP3    H152703   4.198   4.407  16.471 -0.4351  0.2346 -0.6618
10404TIP3    H252704   4.337   4.356  16.443 -0.0797  2.0379 -2.2280
10405TIP3   OH252705   3.170   0.775   2.684 -0.4142 -0.0754  0.2286
10405TIP3    H152706   3.109   0.709   2.651 -1.6060  1.0351  0.1753
10405TIP3    H252707   3.232   0.726   2.739 -0.3993 -1.4494 -0.9700
10406TIP3   OH252708   5.505   6.193   3.064  0.4084 -0.5321 -0.0823
10406TIP3    H152709   5.489   6.110   3.109  0.5597 -1.4163 -1.6235
10406TIP3    H252710   5.503   6.170   2.971 -3.0445  1.8058 -0.6506
10407TIP3   OH252711   5.649   2.135   5.342 -0.1583 -0.0125  0.0786
10407TIP3    H152712   5.661   2.134   5.247 -0.3141  0.9686  0.0384
10407TIP3    H252713   5.554   2.123   5.355 -0.0741 -0.6126  0.1242
10408TIP3   OH252714   4.920   1.307  14.451 -0.1007 -0.1376 -0.6756
10408TIP3    H152715   5.000   1.305  14.503 -0.5643  3.4125  0.3437
10408TIP3    H252716   4.917   1.223  14.406  2.3111 -1.7471  2.0674
10409TIP3   OH252717   1.532   3.365  16.135  0.4106  0.6788 -0.2984
10409TIP3    H152718   1.571   3.278  16.146 -0.6147  0.5085  2.2413
10409TIP3    H252719   1.478   3.357  16.056  2.1783 -0.2701 -1.4546
10410TIP3   OH252720   5.150   4.473   0.436  0.2637 -0.7358 -0.4982
10410TIP3    H152721   5.072   4.454   0.384  0.2808  0.0512 -0.8234
10410TIP3    H252722   5.222   4.434   0.388  0.1745 -0.7321 -0.6345
10411TIP3   OH252723   3.685   3.988   0.184  0.1353  0.3970 -0.2285
10411TIP3    H152724   3.754   3.953   0.241 -0.4749 -1.1367 -0.4048
10411TIP3    H252725   3.607   3.992   0.241 -0.3229 -0.5539 -0.7782
10412TIP3   OH252726   3.569   5.988   4.018 -0.0506 -0.0598 -0.3024
10412TIP3    H152727   3.615   5.904   4.012  1.0832  0.5573 -0.4779
10412TIP3    H252728   3.580   6.027   3.932 -1.4503 -0.1703 -0.5304
10413TIP3   OH252729   3.482   5.601  11.978 -0.4501  0.3430 -0.3408
10413TIP3    H152730   3.554   5.539  11.977  0.2931  1.1904 -1.7940
10413TIP3    H252731   3.448   5.599  11.888 -0.6038  1.8014 -0.3279
10414TIP3   OH252732   0.830   5.363   0.624  0.5716  0.0121 -0.6135
10414TIP3    H152733   0.867   5.340   0.538 -0.7218 -2.6018 -0.5328
10414TIP3    H252734   0.803   5.454   0.615  0.5998 -0.1723 -2.9346
10415TIP3   OH252735   3.805   2.723   4.348  0.1681  0.2280  0.4688
10415TIP3    H152736   3.742   2.795   4.359  0.4251  0.5704 -0.2275
10415TIP3    H252737   3.865   2.755   4.280  1.9506  0.4928  2.1468
10416TIP3   OH252738   2.339   0.102  11.662  0.1202  0.0747 -0.2697
10416TIP3    H152739   2.420   0.050  11.660  0.5205  0.6459  0.9109
10416TIP3    H252740   2.269   0.037  11.663  0.6036 -0.4419  0.3857
10417TIP3   OH252741   5.479   2.157  16.099  0.3864  0.2184  0.2241
10417TIP3    H152742   5.414   2.227  16.113  1.1339  0.6044  1.9122
10417TIP3    H252743   5.451   2.087  16.158  1.0518  0.0724  0.3689
10418TIP3   OH252744   1.289   0.534   2.877  0.6491 -0.5510 -0.1331
10418TIP3    H152745   1.229   0.480   2.826  0.5974  0.8296 -1.5634
10418TIP3    H252746   1.331   0.591   2.813  0.2363  1.5558  1.4014
10419TIP3   OH252747   6.236   5.731  16.539  0.4987 -0.0220  0.0139
10419TIP3    H152748   6.162   5.783  16.505  0.3901  1.0214  1.8210
10419TIP3    H252749   6.214   5.641  16.515 -1.3367  0.2892  0.4583
10420TIP3   OH252750   4.051   6.280   3.384  0.2709  0.1409 -0.5677
10420TIP3    H152751   4.048   6.189   3.412 -1.0299  0.8724  1.8352
10420TIP3    H252752   3.988   6.285   3.312  0.3515 -0.8468 -0.7146
10421TIP3   OH252753   2.080   4.814   2.716 -0.3180 -0.5957  0.6776
10421TIP3    H152754   2.125   4.834   2.635 -3.3238  0.8632 -0.7098
10421TIP3    H252755   2.075   4.898   2.762 -3.1233 -0.3136 -0.0358
10422TIP3   OH252756   3.596   1.915  16.066  0.8818  0.1769 -0.2812
10422TIP3    H152757   3.641   1.874  16.139  1.5717 -0.8571 -1.2606
10422TIP3    H252758   3.666   1.947  16.009  0.3642  0.5017 -0.7482
10423TIP3   OH252759   0.871   6.202   2.613 -0.7821  0.2876  0.2183
10423TIP3    H152760   0.920   6.196   2.695  0.0137 -0.7811 -0.3163
10423TIP3    H252761   0.800   6.138   2.623  0.7069 -1.5863 -0.8277
10424TIP3   OH252762   1.047   6.071  11.749  0.0441  0.4321 -0.2475
10424TIP3    H152763   1.044   6.159  11.786 -1.1366  0.7220 -1.0042
10424TIP3    H252764   0.996   6.017  11.810 -1.7176  0.8676 -1.2864
10425TIP3   OH252765   4.163   0.364  14.152  0.2506  0.2868 -0.2088
10425TIP3    H152766   4.219   0.317  14.090  2.4119  0.9210  1.2188
10425TIP3    H252767   4.213   0.364  14.234 -0.5316  3.4403  0.3153
10426TIP3   OH252768   2.094   5.755   0.658  0.1104 -0.0825  0.2788
10426TIP3    H152769   2.011   5.748   0.612  0.2539  1.6796 -0.2743
10426TIP3    H252770   2.138   5.830   0.618  1.0535  0.3114  1.9907
10427TIP3   OH252771   0.718   0.904   3.649  0.0867  0.2954  0.1544
10427TIP3    H152772   0.634   0.932   3.615  0.1476 -0.8599 -0.9513
10427TIP3    H252773   0.729   0.815   3.617  0.9236 -0.2073  1.7621
10428TIP3   OH252774   5.836   5.736   2.236 -0.3801 -0.5029 -0.7529
10428TIP3    H152775   5.929   5.716   2.225  0.1011  0.1528  1.9356
10428TIP3    H252776   5.794   5.650   2.242  0.3835 -0.7865  0.6487
10429TIP3   OH252777   5.422   5.408   4.139  0.3591 -0.1940 -0.2854
10429TIP3    H152778   5.471   5.416   4.221  0.3703 -2.8163 -0.0127
10429TIP3    H252779   5.330   5.405   4.167  0.1879  1.6200 -0.5844
10430TIP3   OH252780   2.344   2.858   2.368  0.4756 -0.4023  0.3805
10430TIP3    H152781   2.316   2.900   2.286 -2.1097 -0.3999  1.2183
10430TIP3    H252782   2.365   2.931   2.426  1.5064 -0.3927  0.0089
10431TIP3   OH252783   0.108   4.810  15.804 -0.0910  0.2378 -0.0838
10431TIP3    H152784   0.121   4.743  15.737 -2.3880 -0.6127  0.2913
10431TIP3    H252785   0.121   4.893  15.758 -2.2687 -0.3046 -1.7651
10432TIP3   OH252786   0.420   1.095   1.578 -0.4553  0.9586  0.1632
10432TIP3    H152787   0.484   1.162   1.552 -0.2000  0.1432 -1.3157
10432TIP3    H252788   0.414   1.104   1.674  0.8416  1.9574  0.1630
10433TIP3   OH252789   0.260   1.896  14.348  0.0402 -0.3627  0.2931
10433TIP3    H152790   0.194   1.850  14.400 -0.7503  0.9096  0.4510
10433TIP3    H252791   0.213   1.927  14.271  1.2482 -2.3719 -1.2851
10434TIP3   OH252792   3.768   2.400  13.355  0.1146  0.0690 -0.0100
10434TIP3    H152793   3.721   2.340  13.413 -1.0437 -0.3925 -1.3898
10434TIP3    H252794   3.804   2.466  13.413 -0.3506 -0.8186  1.3176
10435TIP3   OH252795   0.908   0.801   0.933  0.3335  0.4164 -0.6427
10435TIP3    H152796   0.841   0.857   0.894 -1.7626 -0.9789  0.7946
10435TIP3    H252797   0.948   0.755   0.859 -1.7733 -0.2797 -1.3757
10436TIP3   OH252798   2.760   1.025   2.667  1.1459  0.9073 -0.5054
10436TIP3    H152799   2.816   0.966   2.718  1.5002  1.5863 -0.0945
10436TIP3    H252800   2.739   1.096   2.728 -0.2697  0.5900 -0.6246
10437TIP3   OH252801   3.135   5.546   2.663  0.3558 -0.2334  0.4678
10437TIP3    H152802   3.197   5.611   2.631  0.3422 -0.4167  0.0736
10437TIP3    H252803   3.058   5.597   2.688  0.0066 -0.1986 -0.6815
10438TIP3   OH252804   3.901   0.704  15.572  0.2809 -0.3206 -0.0029
10438TIP3    H152805   3.849   0.626  15.586 -1.8222  0.5894 -2.3679
10438TIP3    H252806   3.932   0.729  15.659 -2.0874 -1.6871  1.2712
10439TIP3   OH252807   4.131   4.818   2.535 -0.2166  0.6509 -0.3496
10439TIP3    H152808   4.129   4.914   2.540 -2.7105  0.6542 -0.5643
10439TIP3    H252809   4.139   4.799   2.441 -1.4279  0.6676 -0.4640
10440TIP3   OH252810   0.840   6.378  10.350  0.1885  0.1957  0.2174
10440TIP3    H152811   0.748   6.364  10.371  0.5597  0.9666  2.4367
10440TIP3    H252812   0.838   6.425  10.267 -1.4471  0.8259  0.5873
10441TIP3   OH252813   4.801   5.591  16.730 -0.6483 -0.2655  0.3604
10441TIP3    H152814   4.789   5.657  16.661 -0.7189 -1.2845 -0.6259
10441TIP3    H252815   4.829   5.641  16.807  0.8135  0.7388 -0.7989
10442TIP3   OH252816   5.938   2.921   2.691 -0.4785 -0.4765 -0.3414
10442TIP3    H152817   5.875   2.981   2.730  1.1212  0.6930  0.5102
10442TIP3    H252818   5.943   2.847   2.752 -0.3332 -0.1279  0.0679
10443TIP3   OH252819   4.783   0.089  13.587  0.3784 -0.0487  0.0210
10443TIP3    H152820   4.769   0.159  13.522  1.5532  0.1733 -0.0177
10443TIP3    H252821   4.846   0.031  13.545 -0.5683 -1.1248  0.0726
10444TIP3   OH252822   2.101   4.505   3.311  0.6309 -0.4120  0.6350
10444TIP3    H152823   2.062   4.589   3.332  2.2326  0.0601  1.8549
10444TIP3    H252824   2.037   4.461   3.255 -0.6206  1.2258  0.7669
10445TIP3   OH252825   1.233   1.126  15.655 -0.3501 -0.0826 -0.2378
10445TIP3    H152826   1.244   1.032  15.668  1.0078  0.2652  1.3496
10445TIP3    H252827   1.142   1.144  15.679 -0.2624 -0.8062  0.6555
10446TIP3   OH252828   0.750   1.728  12.299 -0.1165  0.4325 -0.5007
10446TIP3    H152829   0.711   1.660  12.354  1.2000 -0.4040 -0.5773
10446TIP3    H252830   0.758   1.687  12.213  0.0381  0.9140 -0.7152
10447TIP3   OH252831   1.102   3.446  17.007  0.6140 -0.4437  0.2293
10447TIP3    H152832   1.012   3.415  17.022 -0.1032  1.2187 -0.6002
10447TIP3    H252833   1.121   3.500  17.083  1.1603 -1.3288  0.7289
10448TIP3   OH252834   5.404   0.231  14.496  0.2468  0.3025 -0.0470
10448TIP3    H152835   5.460   0.298  14.535 -0.5466  0.5864  0.6332
10448TIP3    H252836   5.331   0.223  14.558 -0.2326 -0.3703 -0.6992
10449TIP3   OH252837   2.561   0.579   0.743  0.3740 -0.5456  0.2449
10449TIP3    H152838   2.549   0.485   0.757  2.0274 -0.8330 -0.0908
10449TIP3    H252839   2.477   0.610   0.710  0.1927 -2.1710 -0.9041
10450TIP3   OH252840   0.170   5.110   3.107  0.2621  0.0153 -0.5279
10450TIP3    H152841   0.140   5.021   3.126 -0.6871  0.0150 -1.9785
10450TIP3    H252842   0.261   5.099   3.078  0.2703 -0.4363 -0.3379
10451TIP3   OH252843   5.227   1.693   1.051  0.2927  0.1451  0.1684
10451TIP3    H152844   5.198   1.607   1.019  0.8089 -0.7264  1.9774
10451TIP3    H252845   5.318   1.699   1.021  0.1397  0.2305 -0.2844
10452TIP3   OH252846   2.463   5.238   0.092  0.1730  0.2217 -0.4591
10452TIP3    H152847   2.475   5.226   0.187  2.7134  1.7845 -0.5373
10452TIP3    H252848   2.454   5.333   0.082 -0.8322  0.0013 -1.7204
10453TIP3   OH252849   2.607   1.985  15.868  0.1838 -0.3401  0.3205
10453TIP3    H152850   2.595   2.058  15.930  0.2904  0.5428 -0.6864
10453TIP3    H252851   2.519   1.966  15.837  0.2054 -0.3595  0.2714
10454TIP3   OH252852   0.350   5.344  17.040  0.6988  0.3141  0.0710
10454TIP3    H152853   0.382   5.271  17.094  0.7053 -0.6164 -1.1850
10454TIP3    H252854   0.255   5.336  17.041  0.7680 -0.8647 -1.6448
10455TIP3   OH252855   0.640   6.368  15.521 -0.1713  0.8120  0.0579
10455TIP3    H152856   0.557   6.358  15.569 -0.1110 -2.6495 -0.4046
10455TIP3    H252857   0.707   6.345  15.585  0.1298 -0.4763 -0.7006
10456TIP3   OH252858   0.282   1.978   5.125  0.3383 -0.0043 -0.5238
10456TIP3    H152859   0.238   2.011   5.047  1.0700  0.0710 -0.8990
10456TIP3    H252860   0.338   2.050   5.154  0.7191 -0.3423 -0.4183
10457TIP3   OH252861   2.704   5.820   3.367  0.0664  0.8492 -0.3681
10457TIP3    H152862   2.747   5.792   3.448 -0.9305  0.0131 -0.1180
10457TIP3    H252863   2.758   5.782   3.298 -0.3285 -0.3036 -0.0521
10458TIP3   OH252864   5.299   4.298  11.136 -0.1219 -0.4767  0.3915
10458TIP3    H152865   5.243   4.371  11.163  0.8664  0.8065 -0.8923
10458TIP3    H252866   5.250   4.219  11.159 -0.2738  0.5480  3.8416
10459TIP3   OH252867   2.011   3.944   2.963 -0.4126  0.4264  0.0482
10459TIP3    H152868   2.063   3.993   2.900 -1.0189 -0.6458 -1.3182
10459TIP3    H252869   2.071   3.879   3.000 -0.5091 -0.1489 -0.7879
10460TIP3   OH252870   1.867   4.880  14.106 -0.8480 -0.1265 -0.3559
10460TIP3    H152871   1.784   4.878  14.058 -1.5659  1.3707  0.7763
10460TIP3    H252872   1.842   4.864  14.198  0.4449 -2.4623 -0.3762
10461TIP3   OH252873   0.033   6.311  11.501  0.2321 -0.1927 -0.3215
10461TIP3    H152874  -0.024   6.371  11.453 -0.0854 -1.0591 -1.0405
10461TIP3    H252875  -0.027   6.258  11.553  0.2353 -2.0680 -2.1520
10462TIP3   OH252876   2.428   0.241   2.788  0.1334  0.2061  0.5814
10462TIP3    H152877   2.423   0.252   2.693  2.1316  0.7348  0.5244
10462TIP3    H252878   2.422   0.147   2.802 -1.3775  0.1958  0.0361
10463TIP3   OH252879   5.697   3.107   1.493 -0.2476  0.5722 -0.2247
10463TIP3    H152880   5.602   3.122   1.498 -0.3452 -0.7822  2.2871
10463TIP3    H252881   5.706   3.012   1.487  0.9850  0.6779 -0.0950
10464TIP3   OH252882   2.347   4.104   2.203  0.5855  0.0654  0.1618
10464TIP3    H152883   2.414   4.062   2.149  0.7566 -2.5089  2.2626
10464TIP3    H252884   2.265   4.063   2.176  0.4061  0.1893  0.5124
10465TIP3   OH252885   6.514   3.252  12.258 -0.5533 -0.6058 -0.4743
10465TIP3    H152886   6.566   3.268  12.179 -2.3175  2.8033 -1.0235
10465TIP3    H252887   6.426   3.281  12.235 -1.1711  0.1333  2.6297
10466TIP3   OH252888   1.575   5.441   4.626  0.1311  0.1061 -0.3657
10466TIP3    H152889   1.603   5.514   4.571  0.7935 -1.2790 -1.8938
10466TIP3    H252890   1.649   5.381   4.625  0.2421  0.1386  2.2344
10467TIP3   OH252891   3.331   3.193  15.511  0.1142 -0.1048 -0.7599
10467TIP3    H152892   3.406   3.252  15.509  0.3700 -0.3595  0.8779
10467TIP3    H252893   3.266   3.236  15.455  0.4656  1.4914  0.0323
10468TIP3   OH252894   5.797   2.350  12.422  0.0008  0.2858  0.4552
10468TIP3    H152895   5.768   2.441  12.433  0.4608  0.3895  0.8160
10468TIP3    H252896   5.836   2.347  12.335 -0.2501  0.3689  0.3378
10469TIP3   OH252897   2.892   5.456   0.621 -0.2899  0.0158 -0.1977
10469TIP3    H152898   2.847   5.417   0.696 -0.4642  1.3683  0.4157
10469TIP3    H252899   2.982   5.425   0.628 -0.0903  0.8275  1.0888
10470TIP3   OH252900   4.157   4.748  11.777 -0.1453  0.2458 -0.0156
10470TIP3    H152901   4.206   4.763  11.858 -0.4999  1.1437  0.0462
10470TIP3    H252902   4.066   4.737  11.807 -0.1491 -0.2974 -0.2210
10471TIP3   OH252903   6.107   5.826  15.667  0.2008  0.4408  0.2252
10471TIP3    H152904   6.196   5.796  15.687  0.8628  3.0907  1.4318
10471TIP3    H252905   6.051   5.771  15.722  1.0935 -0.9319 -0.1877
10472TIP3   OH252906   1.602   6.051  17.274 -0.9354  0.0171 -0.3920
10472TIP3    H152907   1.698   6.041  17.277 -0.9813  0.0387  1.2425
10472TIP3    H252908   1.584   6.069  17.182  0.8110  1.7018 -0.4413
10473TIP3   OH252909   0.620   5.370   0.043  0.1671  0.1215 -0.2835
10473TIP3    H152910   0.684   5.432   0.079  0.2615 -0.2847  0.2392
10473TIP3    H252911   0.548   5.372   0.105  0.1072 -0.1866 -0.3470
10474TIP3   OH252912   5.534   0.457  14.572  0.3765  0.1420  0.5174
10474TIP3    H152913   5.564   0.460  14.663 -0.7226 -0.3395  0.9105
10474TIP3    H252914   5.475   0.532  14.565 -0.1139 -0.2518  0.4176
10475TIP3   OH252915   6.452   0.161   3.259  0.1816  0.5993 -0.1050
10475TIP3    H152916   6.507   0.151   3.182 -1.9422 -1.8793 -1.3611
10475TIP3    H252917   6.385   0.225   3.234 -0.2286  0.1525 -0.1562
10476TIP3   OH252918   1.595   5.948   0.272 -0.2778 -0.1119 -0.2734
10476TIP3    H152919   1.537   5.999   0.329 -0.1780 -2.5167  2.0395
10476TIP3    H252920   1.602   6.001   0.193  1.1020  4.2841  2.6202
10477TIP3   OH252921   3.514   2.465   0.702 -0.1266  0.0376 -0.1950
10477TIP3    H152922   3.506   2.391   0.762  1.8839 -0.8546 -0.9583
10477TIP3    H252923   3.520   2.425   0.616 -1.4154  1.2326 -0.8534
10478TIP3   OH252924   0.162   1.562   4.038  0.4237 -0.4653  0.0229
10478TIP3    H152925   0.197   1.495   4.096 -0.0964 -1.6704 -1.0427
10478TIP3    H252926   0.111   1.514   3.972 -0.0385  0.9664 -0.6963
10479TIP3   OH252927   3.806   0.443  15.591  0.4807  0.4155  0.3267
10479TIP3    H152928   3.728   0.387  15.587 -1.7099  3.1147  2.2300
10479TIP3    H252929   3.872   0.389  15.633 -0.7441 -1.5960 -0.2696
10480TIP3   OH252930   0.240   6.210   3.500  0.2670  0.3683  0.3286
10480TIP3    H152931   0.251   6.176   3.411 -1.3863  0.9275 -0.1052
10480TIP3    H252932   0.329   6.232   3.528  0.6880  1.3634 -1.6704
10481TIP3   OH252933   0.352   2.157  11.064 -0.6021  0.0986 -0.1442
10481TIP3    H152934   0.270   2.120  11.098 -2.2533  3.2521 -0.5086
10481TIP3    H252935   0.396   2.083  11.023 -3.6735 -1.5199 -0.6716
10482TIP3   OH252936   2.550   5.316   6.144 -0.1134  0.2279  0.2641
10482TIP3    H152937   2.575   5.256   6.214  0.5696  0.2170  0.0182
10482TIP3    H252938   2.574   5.403   6.177 -1.0080  0.3606  0.5789
10483TIP3   OH252939   2.872   1.891   3.680 -0.0914  0.1066  0.1985
10483TIP3    H152940   2.849   1.868   3.590  1.4928  0.7240 -0.3848
10483TIP3    H252941   2.962   1.922   3.674  0.5711 -1.3199  2.2450
10484TIP3   OH252942   1.348   0.386   4.089  0.2815  0.3127  0.0561
10484TIP3    H152943   1.284   0.350   4.028  0.7455 -0.0132 -0.2350
10484TIP3    H252944   1.359   0.317   4.155 -0.1570  0.6301  0.4621
10485TIP3   OH252945   0.240   0.201   2.240  0.0961  0.2181 -0.3446
10485TIP3    H152946   0.186   0.191   2.318  1.5377  0.8350  0.7499
10485TIP3    H252947   0.282   0.115   2.229  1.2064  0.6313  0.5664
10486TIP3   OH252948   4.227   6.500  15.047  0.3843 -0.0873  0.0995
10486TIP3    H152949   4.307   6.477  15.094  0.1136 -1.4949 -0.1015
10486TIP3    H252950   4.217   6.431  14.982 -1.8610 -0.8199  1.1707
10487TIP3   OH252951   6.268   4.882  16.581  0.1338 -0.3924  0.1037
10487TIP3    H152952   6.296   4.965  16.543 -0.5185 -0.2071  0.0239
10487TIP3    H252953   6.301   4.886  16.671 -1.0978  0.5656  0.5283
10488TIP3   OH252954   6.705   4.598  12.044 -0.8751 -0.7278  0.1976
10488TIP3    H152955   6.640   4.564  12.106  0.2573 -0.4043  1.5912
10488TIP3    H252956   6.726   4.522  11.989 -2.7883 -0.7045 -0.6128
10489TIP3   OH252957   6.790   5.486   3.196  0.2059  0.6644  1.0279
10489TIP3    H152958   6.804   5.457   3.286  1.2190 -0.1626  0.6163
10489TIP3    H252959   6.708   5.444   3.169  0.5113 -0.0359  1.1806
10490TIP3   OH252960   2.235   3.126  14.731  0.2316 -0.4980 -0.6383
10490TIP3    H152961   2.206   3.131  14.640 -1.9352  0.3499  0.0711
10490TIP3    H252962   2.164   3.166  14.781  1.6171 -0.5121  1.3892
10491TIP3   OH252963   1.186   3.028   1.217 -0.4007 -0.2404 -0.2652
10491TIP3    H152964   1.251   3.019   1.287 -1.5378  0.7913  0.9309
10491TIP3    H252965   1.103   3.006   1.258 -1.1964  1.2482 -1.0715
10492TIP3   OH252966   3.469   5.209  12.281  0.2623 -0.0697  0.6333
10492TIP3    H152967   3.479   5.264  12.203 -0.7869 -0.7076  0.0339
10492TIP3    H252968   3.517   5.128  12.259 -0.8874 -0.6526  0.2335
10493TIP3   OH252969   3.052   5.526  13.909 -0.1810 -0.3517  0.1925
10493TIP3    H152970   2.963   5.557  13.926 -0.3015 -0.6332  0.0719
10493TIP3    H252971   3.097   5.538  13.993  0.1807  1.5179 -0.2445
10494TIP3   OH252972   0.350   6.273  13.094 -0.1095  0.1372 -0.0106
10494TIP3    H152973   0.328   6.182  13.077  1.1987 -0.3581  0.8151
10494TIP3    H252974   0.446   6.274  13.101  0.0215  1.8595 -1.6320
10495TIP3   OH252975   0.668   1.634  13.549 -0.0468  0.0015 -0.3835
10495TIP3    H152976   0.617   1.568  13.596  0.0418  1.6891  2.2152
10495TIP3    H252977   0.617   1.655  13.471 -1.2575 -1.3640  0.0418
10496TIP3   OH252978   0.951   1.250   3.884  0.2238  0.4968 -0.5119
10496TIP3    H152979   0.982   1.311   3.950 -0.6837 -0.0580  0.4356
10496TIP3    H252980   0.944   1.167   3.929 -1.6284  0.3868 -0.9782
10497TIP3   OH252981   4.314   4.241   2.187  0.3344  0.1202  0.0357
10497TIP3    H152982   4.250   4.254   2.257  1.1682 -1.7862  1.1926
10497TIP3    H252983   4.366   4.166   2.216  2.0130  0.5895 -1.6771
10498TIP3   OH252984   6.266   0.357  11.724  0.2932  0.2518 -0.0188
10498TIP3    H152985   6.180   0.392  11.749 -0.5861 -2.0899  0.3608
10498TIP3    H252986   6.300   0.420  11.661 -1.7617  1.1612 -0.2615
10499TIP3   OH252987   5.712   5.024   2.218 -0.7002 -0.0836 -0.1463
10499TIP3    H152988   5.757   5.085   2.160 -0.9764  0.1790 -0.0853
10499TIP3    H252989   5.782   4.988   2.273 -0.4888 -0.0670 -0.4001
10500TIP3   OH252990   6.207   3.385   0.743  0.3021 -0.3033  0.0581
10500TIP3    H152991   6.166   3.467   0.716 -0.0176 -0.2066  0.8236
10500TIP3    H252992   6.144   3.317   0.717  0.0721 -0.2220  0.3905
10501TIP3   OH252993   0.019   3.030   6.137  0.2090  0.1040 -0.1446
10501TIP3    H152994   0.077   3.105   6.132 -0.5659  0.7150 -0.1119
10501TIP3    H252995  -0.037   3.037   6.060 -1.5185  0.9768  1.1429
10502TIP3   OH252996   0.275   5.191   2.104  1.3816  0.6804 -0.1129
10502TIP3    H152997   0.264   5.170   2.011  1.9988  0.3178 -0.1107
10502TIP3    H252998   0.341   5.128   2.134  0.3950  0.0943  0.8247
10503TIP3   OH252999   6.436   2.837  12.556  0.3467  0.3702  0.5184
10503TIP3    H153000   6.417   2.901  12.488 -0.6695 -0.4896 -0.0266
10503TIP3    H253001   6.379   2.862  12.629  0.0256  0.1753  0.3421
10504TIP3   OH253002   1.699   6.364   5.327 -0.1085 -0.2502 -0.7198
10504TIP3    H153003   1.775   6.384   5.382 -1.3246  0.0484  0.8972
10504TIP3    H253004   1.720   6.280   5.287  0.8508 -0.4276  0.1279
10505TIP3   OH253005   6.304   5.973   4.151  0.1717  0.2224 -0.4481
10505TIP3    H153006   6.218   5.932   4.144  0.5794 -0.3713 -2.3682
10505TIP3    H253007   6.333   5.953   4.239 -0.8416 -1.2295 -0.4281
10506TIP3   OH253008   0.720   0.309   5.363  0.4367 -0.1290 -0.2020
10506TIP3    H153009   0.686   0.396   5.383  0.7233 -0.1034  0.1821
10506TIP3    H253010   0.676   0.251   5.426  0.1458 -0.2807 -0.5452
10507TIP3   OH253011   3.827   2.158   6.560 -0.5465  0.1721  0.4992
10507TIP3    H153012   3.894   2.225   6.571  0.8606 -1.1382 -0.0378
10507TIP3    H253013   3.764   2.197   6.500  1.7943 -0.1009 -2.2082
10508TIP3   OH253014   5.237   4.827  16.952  0.2451  0.1713  0.1603
10508TIP3    H153015   5.235   4.899  16.890  0.0066  1.5272  1.6977
10508TIP3    H253016   5.145   4.811  16.973  0.2388 -1.1904 -0.8368
10509TIP3   OH253017   4.809   6.309   4.458 -0.8931 -0.1937  0.2818
10509TIP3    H153018   4.847   6.227   4.491 -0.2677  0.1238  0.3547
10509TIP3    H253019   4.715   6.291   4.452 -0.5362 -1.6050 -1.6754
10510TIP3   OH253020   2.411   0.312   3.131  0.3488  0.1094  0.5440
10510TIP3    H153021   2.406   0.310   3.035  1.8912  0.0515  0.4445
10510TIP3    H253022   2.416   0.220   3.157  2.6274  0.1736  0.4767
10511TIP3   OH253023   3.333   5.242  15.514 -0.4340  0.3358 -0.3766
10511TIP3    H153024   3.307   5.198  15.594  0.8132 -0.2957 -0.3054
10511TIP3    H253025   3.281   5.199  15.445 -0.5939  0.0274 -0.0639
10512TIP3   OH253026   2.839   0.990   6.691  0.0544  0.0926 -0.2086
10512TIP3    H153027   2.868   1.013   6.603 -1.6055 -0.9554 -1.0389
10512TIP3    H253028   2.780   1.062   6.716 -2.9723 -1.7797 -1.7284
10513TIP3   OH253029   6.299   4.472  15.824  0.3493 -0.0846  0.2530
10513TIP3    H153030   6.269   4.563  15.818  0.6370  0.0294  0.5386
10513TIP3    H253031   6.221   4.424  15.853 -0.3927 -0.2719 -1.9466
10514TIP3   OH253032   0.767   4.308  14.350  0.1092  0.8789  0.1098
10514TIP3    H153033   0.835   4.282  14.289 -0.1317  1.2857 -0.3376
10514TIP3    H253034   0.693   4.251  14.330  0.3720  0.3177  0.7113
10515TIP3   OH253035   4.730   4.885  13.296  0.3676 -0.4131  0.1735
10515TIP3    H153036   4.697   4.968  13.260  1.3598 -0.3268 -0.5761
10515TIP3    H253037   4.739   4.828  13.220  2.4168 -0.2541  0.2672
10516TIP3   OH253038   0.070   6.155   4.472 -0.0229 -0.2407 -0.1520
10516TIP3    H153039   0.062   6.228   4.411 -0.6367 -0.2676 -0.1068
10516TIP3    H253040   0.040   6.192   4.556 -2.2171 -1.0772 -0.5322
10517TIP3   OH253041   3.591   1.802   5.697  1.0098  0.4037  0.1220
10517TIP3    H153042   3.676   1.824   5.736  0.7364 -0.3695  1.1482
10517TIP3    H253043   3.606   1.809   5.602  2.4019 -0.4071  0.2735
10518TIP3   OH253044   2.553   4.677   1.312 -0.6996 -0.2872 -0.1166
10518TIP3    H153045   2.466   4.648   1.285 -1.6652  1.6778  0.7521
10518TIP3    H253046   2.570   4.630   1.394  0.3477 -2.8983 -1.7821
10519TIP3   OH253047   6.139   5.813  16.930 -0.7018  0.3813 -0.6622
10519TIP3    H153048   6.120   5.728  16.892  1.2342 -1.0583  1.4760
10519TIP3    H253049   6.109   5.876  16.864  1.0460 -1.9652 -3.8139
10520TIP3   OH253050   2.090   1.771  16.065  0.3180  0.3171 -0.2827
10520TIP3    H153051   2.149   1.769  15.989  1.7519 -1.2188  0.8489
10520TIP3    H253052   2.070   1.679  16.082 -0.2295  0.6712  1.0176
10521TIP3   OH253053   1.385   6.500  14.939 -0.3493 -0.1032  0.0642
10521TIP3    H153054   1.323   6.436  14.975  0.0525  0.3871  1.6627
10521TIP3    H253055   1.329   6.565  14.896 -0.7060 -2.0376 -2.4475
10522TIP3   OH253056   1.266   1.871   5.621 -0.1372  0.5787  0.4421
10522TIP3    H153057   1.331   1.938   5.643  0.2059  0.2622  0.4212
10522TIP3    H253058   1.296   1.794   5.670 -0.3442  0.3541  0.2139
10523TIP3   OH253059   0.920   5.096  12.687 -0.6271  0.1440  0.1328
10523TIP3    H153060   0.912   5.171  12.628  1.0253 -0.1862 -0.5331
10523TIP3    H253061   0.972   5.032  12.638  1.0822  0.0030  2.0761
10524TIP3   OH253062   2.314   0.063  12.553 -0.4024  0.1717  0.1783
10524TIP3    H153063   2.334   0.010  12.630 -1.5625 -1.3958 -0.5773
10524TIP3    H253064   2.251   0.128  12.584 -1.8415 -1.2490  0.2761
10525TIP3   OH253065   1.425   6.600  11.316 -0.1607 -0.0528 -0.2322
10525TIP3    H153066   1.381   6.515  11.309  1.2322 -0.8996  1.0047
10525TIP3    H253067   1.472   6.609  11.234  0.0055 -0.6676 -0.2069
10526TIP3   OH253068   2.352   4.812   3.873 -0.6514  0.0706  0.1154
10526TIP3    H153069   2.409   4.790   3.798 -1.3167 -0.1602 -0.3272
10526TIP3    H253070   2.269   4.835   3.833 -1.0852 -0.2900  0.8093
10527TIP3   OH253071   1.626   5.513  11.901 -0.5474  0.5698  0.4072
10527TIP3    H153072   1.604   5.479  11.814 -1.0338 -0.1488  0.8105
10527TIP3    H253073   1.548   5.563  11.927 -0.7482  0.0426  0.8102
10528TIP3   OH253074   0.582   1.079  17.244 -0.2007 -0.9438  0.4433
10528TIP3    H153075   0.605   1.017  17.313 -0.8764 -1.9588 -0.2273
10528TIP3    H253076   0.615   1.163  17.275  0.6887 -1.6312  1.3833
10529TIP3   OH253077   5.312   0.532   4.402  0.6407  0.1142 -0.2044
10529TIP3    H153078   5.341   0.564   4.487 -0.1621  1.6704 -0.5011
10529TIP3    H253079   5.385   0.551   4.343  0.8775 -0.2342 -0.0243
10530TIP3   OH253080   5.446   0.073  12.825 -0.0269  0.1271 -0.1376
10530TIP3    H153081   5.504   0.075  12.748  0.9697 -0.2947  0.5876
10530TIP3    H253082   5.483   0.138  12.884 -0.1598 -0.3098  0.4238
10531TIP3   OH253083   3.851   6.033  11.492  0.2339 -0.3346 -0.0568
10531TIP3    H153084   3.942   6.038  11.521 -0.1520 -0.4310  1.2075
10531TIP3    H253085   3.827   6.123  11.470  0.4942 -0.2396  0.0433
10532TIP3   OH253086   0.754   0.449   4.135  0.5112 -0.3800  0.3574
10532TIP3    H153087   0.836   0.409   4.109  0.1468  0.3563 -2.1129
10532TIP3    H253088   0.699   0.444   4.057 -2.4832 -2.5102  2.4893
10533TIP3   OH253089   4.459   4.506  16.154  0.0662  0.0065 -0.3531
10533TIP3    H153090   4.550   4.536  16.153 -0.1072  0.5935  0.3763
10533TIP3    H253091   4.463   4.414  16.129  0.6583  0.5313 -2.2630
10534TIP3   OH253092   3.601   0.277  15.641 -0.0666  0.2562 -0.0996
10534TIP3    H153093   3.570   0.329  15.715  1.6228 -1.7478  2.0843
10534TIP3    H253094   3.533   0.210  15.629 -0.1904  0.3926 -0.1633
10535TIP3   OH253095   2.446   2.790   5.302  0.7086 -0.0674 -0.1392
10535TIP3    H153096   2.431   2.783   5.397 -0.7889  0.2701 -0.3307
10535TIP3    H253097   2.416   2.878   5.280  1.1080 -0.1295 -0.9191
10536TIP3   OH253098   2.512   4.711  17.095 -0.4412 -0.0347  0.7067
10536TIP3    H153099   2.465   4.780  17.048 -1.3485 -1.4620 -0.5587
10536TIP3    H253100   2.593   4.700  17.046 -1.0985 -1.0776 -0.1711
10537TIP3   OH253101   6.411   2.353  11.617  0.2993 -0.6408 -0.3821
10537TIP3    H153102   6.320   2.356  11.589 -0.6745 -2.6998  2.4294
10537TIP3    H253103   6.461   2.353  11.535 -2.1635  0.8364 -1.9490
10538TIP3   OH253104   0.718   3.831   0.270  0.4838  0.2294  0.1211
10538TIP3    H153105   0.814   3.832   0.277  0.6438 -0.4914 -1.8174
10538TIP3    H253106   0.699   3.763   0.205 -1.4205 -0.5398  1.4284
10539TIP3   OH253107   6.655   4.817  12.395 -0.2508 -0.1895  0.2630
10539TIP3    H153108   6.609   4.774  12.466 -2.7724  1.8617 -0.0692
10539TIP3    H253109   6.745   4.828  12.427 -0.3172 -2.9671  1.4669
10540TIP3   OH253110   4.100   5.139   4.996  0.4304  0.2694 -0.0404
10540TIP3    H153111   4.115   5.229   5.026 -1.3689  0.5206  0.1102
10540TIP3    H253112   4.007   5.135   4.976  0.6989 -1.2771 -1.0509
10541TIP3   OH253113   1.747   4.568  16.808  0.2225  0.6572  0.2408
10541TIP3    H153114   1.738   4.632  16.878  0.8727  0.1356  0.8065
10541TIP3    H253115   1.809   4.504  16.842 -0.7881 -0.5284 -0.1305
10542TIP3   OH253116   5.532   0.213  12.588  0.6091 -0.3010  0.5271
10542TIP3    H153117   5.455   0.207  12.532  0.2631 -2.1209  1.1676
10542TIP3    H253118   5.565   0.302  12.573 -0.0202 -0.4146 -1.8289
10543TIP3   OH253119   1.553   0.279   3.863 -0.0659 -0.4318 -0.5977
10543TIP3    H153120   1.592   0.265   3.777  0.5860  1.1389 -0.5785
10543TIP3    H253121   1.554   0.193   3.905  1.2319 -0.8588 -1.4908
10544TIP3   OH253122   1.811   1.324   1.863 -0.4144 -0.8505  1.1664
10544TIP3    H153123   1.855   1.254   1.910  0.7479 -0.4096  0.7575
10544TIP3    H253124   1.744   1.280   1.810  2.2656 -2.0222 -1.3899
10545TIP3   OH253125   2.850   6.637  17.020 -0.1882 -0.3941 -0.2974
10545TIP3    H153126   2.807   6.696  16.957 -1.4358 -1.8492 -0.8409
10545TIP3    H253127   2.865   6.557  16.970  0.1171 -1.0585  0.8689
10546TIP3   OH253128   1.063   5.008   3.538 -0.0961 -0.3567  0.4016
10546TIP3    H153129   1.095   5.049   3.618  0.5646  1.7605 -0.8852
10546TIP3    H253130   0.989   5.063   3.512 -0.1874 -0.9144 -0.5195
10547TIP3   OH253131   4.469   4.514   1.871  0.0309 -0.0615  0.2276
10547TIP3    H153132   4.402   4.446   1.869 -0.3053  0.2519  0.7999
10547TIP3    H253133   4.449   4.569   1.795  0.4039 -0.6886 -0.3333
10548TIP3   OH253134   1.403   6.250   5.480  0.2604 -0.1035 -0.1040
10548TIP3    H153135   1.474   6.310   5.503  1.2646 -1.3433  0.0624
10548TIP3    H253136   1.400   6.188   5.553 -2.1350  0.9166  0.7422
10549TIP3   OH253137   1.222   3.739  15.828  0.2662 -0.0335 -0.6055
10549TIP3    H153138   1.220   3.643  15.830  0.7452 -0.0108  1.2366
10549TIP3    H253139   1.175   3.766  15.906  0.6237  1.2330 -0.8242
10550TIP3   OH253140   5.788   1.012   4.842 -0.5923 -0.4729  0.0750
10550TIP3    H153141   5.756   1.033   4.754 -0.0447 -0.6805 -0.1752
10550TIP3    H253142   5.791   0.917   4.844  0.2187 -0.4539  0.0186
10551TIP3   OH253143   5.625   4.322   1.287  0.1141  0.5127  0.5942
10551TIP3    H153144   5.719   4.338   1.280  0.2063 -0.3640 -0.2571
10551TIP3    H253145   5.612   4.301   1.380  0.5845  1.6387  0.9287
10552TIP3   OH253146   1.597   6.721   4.628  0.1157 -0.3134 -0.2194
10552TIP3    H153147   1.688   6.743   4.606  0.1446 -1.9930 -1.9267
10552TIP3    H253148   1.558   6.803   4.657  1.6472  0.8258 -1.3505
10553TIP3   OH253149   4.720   2.557  13.370  0.3698  0.4433 -0.0501
10553TIP3    H153150   4.736   2.495  13.442 -0.6520  1.1362  0.7863
10553TIP3    H253151   4.724   2.503  13.291 -4.8707 -1.6484  0.9029
10554TIP3   OH253152   2.724   3.466  14.715 -0.3980  0.2110  0.6767
10554TIP3    H153153   2.635   3.435  14.731 -0.2859 -1.5062 -1.6932
10554TIP3    H253154   2.718   3.513  14.632  1.2361 -1.5008 -0.4469
10555TIP3   OH253155   6.357   1.265  15.879 -0.4709  0.1629 -0.0610
10555TIP3    H153156   6.276   1.228  15.913 -1.4267  1.4667 -0.8834
10555TIP3    H253157   6.426   1.207  15.913 -1.6887 -0.6589  1.0554
10556TIP3   OH253158   4.448   0.062  12.598  0.0859 -0.2122 -0.2243
10556TIP3    H153159   4.500   0.023  12.667 -0.1700  3.0480  1.9277
10556TIP3    H253160   4.437   0.154  12.625 -1.9807  0.5717 -3.4226
10557TIP3   OH253161   6.061   5.926  12.440 -0.2585  0.0983 -0.0190
10557TIP3    H153162   6.059   5.942  12.346 -2.4915  1.5871  0.2418
10557TIP3    H253163   6.090   5.835  12.448 -2.4088 -0.8582 -2.2723
10558TIP3   OH253164   2.524   3.003   1.944  0.1972  0.8267  0.3839
10558TIP3    H153165   2.460   2.976   2.009  0.5086  0.8244  0.6865
10558TIP3    H253166   2.490   2.969   1.861 -0.2963  0.9949  0.5149
10559TIP3   OH253167   1.882   4.512  17.263 -0.1046 -0.2215 -0.2677
10559TIP3    H153168   1.934   4.548  17.334 -0.1038 -0.9369  0.1005
10559TIP3    H253169   1.808   4.469  17.306  1.9589 -4.1485 -0.4010
10560TIP3   OH253170   6.549   0.960  14.887  0.4504  0.3019  0.5283
10560TIP3    H153171   6.603   0.903  14.833 -1.1050  1.2716 -2.1946
10560TIP3    H253172   6.611   1.013  14.938  2.0071  0.0605 -1.0849
10561TIP3   OH253173   0.662   6.000  11.346  0.2945 -0.2342  0.7483
10561TIP3    H153174   0.620   5.932  11.398  1.0070 -0.4019  1.1068
10561TIP3    H253175   0.628   6.082  11.380  0.4892 -0.3581  1.2368
10562TIP3   OH253176   1.549   0.587   4.127  0.0062  0.0348  0.2063
10562TIP3    H153177   1.616   0.526   4.097 -0.3256  0.6219 -1.7571
10562TIP3    H253178   1.466   0.543   4.111 -0.1897  0.4846 -0.0377
10563TIP3   OH253179   4.811   2.011   3.261  0.1698 -0.0877 -1.0349
10563TIP3    H153180   4.903   2.002   3.236  0.2453 -1.5656 -0.2553
10563TIP3    H253181   4.812   2.007   3.357 -0.6078  0.8577 -0.9812
10564TIP3   OH253182   1.758   3.553  16.061 -0.0049 -0.1797  0.0562
10564TIP3    H153183   1.771   3.568  15.967  0.9265  2.5726  0.5916
10564TIP3    H253184   1.667   3.521  16.067  0.7896 -3.0793 -1.9940
10565TIP3   OH253185   6.803   6.463  13.583 -0.0052  0.2141  0.2170
10565TIP3    H153186   6.816   6.416  13.501 -3.8488 -0.7339  0.0495
10565TIP3    H253187   6.760   6.545  13.557 -1.8354 -0.3720  1.2687
10566TIP3   OH253188   0.829   3.945  13.170  0.1489 -0.3589 -0.2928
10566TIP3    H153189   0.889   3.946  13.095  0.1000 -1.1312 -0.3533
10566TIP3    H253190   0.749   3.987  13.138  1.1087  1.8833  0.1880
10567TIP3   OH253191   2.381   5.353  13.310 -0.9478  0.0917 -0.3698
10567TIP3    H153192   2.388   5.446  13.328 -0.7213 -0.0546  0.3439
10567TIP3    H253193   2.472   5.323  13.304 -1.0141 -0.1414 -0.2471
10568TIP3   OH253194   2.353   2.870  13.828  0.0682  0.4797  0.1106
10568TIP3    H153195   2.300   2.899  13.753 -1.1432  0.5151  0.9720
10568TIP3    H253196   2.389   2.786  13.800  1.0672  1.3064 -1.1934
10569TIP3   OH253197   1.178   4.545   5.237 -0.5555 -0.2013 -0.0563
10569TIP3    H153198   1.106   4.483   5.250  0.5763 -1.6490 -0.5582
10569TIP3    H253199   1.188   4.588   5.322 -1.0775 -1.0262  0.4273
10570TIP3   OH253200   4.883   6.556  16.808 -0.0813  0.4639  0.1719
10570TIP3    H153201   4.905   6.464  16.795 -0.2292  0.2974  1.0616
10570TIP3    H253202   4.883   6.567  16.903  0.7699  1.5835  0.0447
10571TIP3   OH253203   3.121   4.771   3.059  0.4255 -0.6066 -0.7688
10571TIP3    H153204   3.158   4.856   3.085 -1.0983 -0.0503 -0.3626
10571TIP3    H253205   3.108   4.724   3.141 -0.5081 -0.4769 -0.8343
10572TIP3   OH253206   3.714   2.123  10.816  0.1053  0.6451 -0.0356
10572TIP3    H153207   3.629   2.137  10.775 -0.1549  0.7422  0.5315
10572TIP3    H253208   3.705   2.040  10.862  0.6234  0.1816 -0.7475
10573TIP3   OH253209   6.410   2.697   5.550 -0.6408 -0.2262 -0.0219
10573TIP3    H153210   6.394   2.740   5.634 -0.9923 -0.3705 -0.0153
10573TIP3    H253211   6.325   2.660   5.525 -0.1057 -1.8169  0.4724
10574TIP3   OH253212   0.625   5.122   0.916 -0.0902 -0.0029 -0.1569
10574TIP3    H153213   0.586   5.074   0.989  0.4582 -1.2202 -0.6506
10574TIP3    H253214   0.556   5.181   0.886 -0.5207  0.0641  0.9428
10575TIP3   OH253215   5.029   0.717  17.133  0.2950 -0.2493 -0.7834
10575TIP3    H153216   4.936   0.725  17.149  0.4729  0.1184  0.0506
10575TIP3    H253217   5.048   0.782  17.066  0.6250  2.2336  1.6471
10576TIP3   OH253218   1.995   0.013   1.530 -0.6200  0.0370  0.0992
10576TIP3    H153219   2.037   0.052   1.606  0.6822 -1.0032 -0.0572
10576TIP3    H253220   1.935  -0.052   1.566 -0.2009 -0.2684  0.2506
10577TIP3   OH253221   0.752   1.524  12.764  0.3462  0.4645 -0.2374
10577TIP3    H153222   0.734   1.479  12.846  0.8722  0.0892 -0.3225
10577TIP3    H253223   0.733   1.616  12.782 -0.1812  0.2919  0.1072
10578TIP3   OH253224   4.641   3.639   1.588 -0.5720 -0.3291  0.1604
10578TIP3    H153225   4.678   3.698   1.654  1.8537 -2.1557  0.4936
10578TIP3    H253226   4.717   3.603   1.543 -2.1708 -0.0761 -2.8306
10579TIP3   OH253227   2.461   3.188  12.920 -0.3496  0.9057 -0.2907
10579TIP3    H153228   2.395   3.210  12.986 -0.4388  1.5548 -0.5900
10579TIP3    H253229   2.535   3.154  12.970 -1.8489 -2.2739 -0.0990
10580TIP3   OH253230   2.839   2.157   1.634  0.5394  0.0770 -0.1064
10580TIP3    H153231   2.756   2.192   1.664 -0.8168 -1.1060 -2.3414
10580TIP3    H253232   2.861   2.210   1.557  0.0098 -1.8977 -1.6705
10581TIP3   OH253233   5.777   4.902  11.697 -0.6432 -0.1466 -0.1055
10581TIP3    H153234   5.817   4.986  11.716  2.4043 -1.5869  0.2364
10581TIP3    H253235   5.695   4.923  11.654 -0.3498  2.9878  0.7571
10582TIP3   OH253236   5.541   2.862  14.344 -0.1754  0.4471  0.0343
10582TIP3    H153237   5.476   2.800  14.313  0.6177 -1.5928  2.2916
10582TIP3    H253238   5.492   2.943  14.359 -1.2640  0.3328 -2.6718
10583TIP3   OH253239   5.460   4.931   2.108  0.1458 -0.1592  0.4448
10583TIP3    H153240   5.538   4.969   2.148 -0.5611  1.9509 -0.1059
10583TIP3    H253241   5.477   4.935   2.014 -0.4492 -0.0953  0.3369
10584TIP3   OH253242   1.729   3.448   6.403 -0.0894  0.7534 -0.1814
10584TIP3    H153243   1.766   3.372   6.357 -0.6393 -0.0588  0.7077
10584TIP3    H253244   1.795   3.517   6.392  1.8877 -0.7792  1.6755
10585TIP3   OH253245   2.310   1.700   3.345 -0.5478 -0.3323  0.0818
10585TIP3    H153246   2.402   1.724   3.352 -0.2895 -0.3188 -2.6050
10585TIP3    H253247   2.309   1.605   3.355 -0.2806 -0.3059  0.3646
10586TIP3   OH253248   2.524   0.558  13.077 -0.4165 -0.4671 -0.1984
10586TIP3    H153249   2.481   0.618  13.138 -1.1080 -0.0055 -1.1244
10586TIP3    H253250   2.584   0.507  13.132 -0.3123  0.6058  0.7046
10587TIP3   OH253251   3.383   2.807  11.984 -0.2712  0.4068  0.1487
10587TIP3    H153252   3.461   2.756  12.006  1.0365  0.8235 -3.2193
10587TIP3    H253253   3.320   2.741  11.955 -0.9397  0.1368  2.1667
10588TIP3   OH253254   2.285   6.424  11.912 -0.0993  0.2818 -0.3567
10588TIP3    H153255   2.261   6.476  11.836  0.3749  0.5369 -0.3331
10588TIP3    H253256   2.202   6.400  11.952 -0.3210  1.4563 -0.0813
10589TIP3   OH253257   0.257   1.510  16.183 -0.4043 -0.1901 -0.1237
10589TIP3    H153258   0.320   1.458  16.233 -0.4513 -3.2962 -3.0716
10589TIP3    H253259   0.183   1.451  16.170 -0.9137  0.9754 -2.6942
10590TIP3   OH253260   6.661   4.408  14.018 -0.3946 -0.4042 -0.6321
10590TIP3    H153261   6.589   4.453  13.975 -1.6311 -0.9650  0.8002
10590TIP3    H253262   6.665   4.448  14.105  0.1002 -1.3450 -0.2161
10591TIP3   OH253263   3.964   5.835   4.037 -0.0780  0.3990 -0.0930
10591TIP3    H153264   4.005   5.753   4.064  2.0136  1.4585  0.0411
10591TIP3    H253265   3.874   5.810   4.013  0.3646 -1.8247  0.4333
10592TIP3   OH253266   0.448   3.747  12.305  1.3615  0.3579 -0.1262
10592TIP3    H153267   0.412   3.791  12.382 -2.4341 -0.2651 -1.4229
10592TIP3    H253268   0.413   3.797  12.231  2.1130 -1.1181 -1.5050
10593TIP3   OH253269   3.531   4.149  16.254 -0.0018  0.1175  0.1148
10593TIP3    H153270   3.471   4.220  16.229 -0.6013 -0.3813  0.1035
10593TIP3    H253271   3.539   4.157  16.349 -0.2034  0.1046  0.1351
10594TIP3   OH253272   0.603   5.305  13.239  0.0198 -0.4423 -0.2752
10594TIP3    H153273   0.611   5.236  13.305  0.3857  0.2718  0.4467
10594TIP3    H253274   0.686   5.353  13.245  1.1822 -2.0023 -3.1476
10595TIP3   OH253275   4.715   3.650  11.685  0.4213  0.6811  0.0931
10595TIP3    H153276   4.649   3.614  11.627  0.9412 -0.8043  0.3838
10595TIP3    H253277   4.783   3.684  11.627  2.3278 -3.3926 -0.2716
10596TIP3   OH253278   1.435   1.514  14.045 -0.7493  0.3307  0.1801
10596TIP3    H153279   1.386   1.455  14.101  0.0815  1.7764  2.4803
10596TIP3    H253280   1.392   1.599  14.055  0.5816  1.0247  0.1770
10597TIP3   OH253281   2.902   0.529   3.338 -0.4062  0.3408  0.5689
10597TIP3    H153282   2.998   0.535   3.334 -0.3273 -1.5720 -1.5674
10597TIP3    H253283   2.872   0.610   3.297  0.2846  0.8301  1.0078
10598TIP3   OH253284   2.272   0.160  14.840  0.3435 -0.1246 -0.3928
10598TIP3    H153285   2.233   0.100  14.904 -1.5177  1.5659  0.1034
10598TIP3    H253286   2.320   0.224  14.893  0.8644 -0.1540 -0.8215
10599TIP3   OH253287   2.350   4.375   2.618  0.2052 -0.5284 -0.1943
10599TIP3    H153288   2.342   4.358   2.524  0.8463 -0.7976 -0.2017
10599TIP3    H253289   2.426   4.324   2.645 -0.0443 -0.5352  0.4934
10600TIP3   OH253290   0.391   5.727   5.112  0.0273  0.3151 -0.3773
10600TIP3    H153291   0.297   5.743   5.111  0.0280  0.4888  1.0925
10600TIP3    H253292   0.415   5.731   5.204  1.0226 -2.4923 -0.4598
10601TIP3   OH253293   5.844   0.479  11.320 -0.1720 -0.4979  0.4015
10601TIP3    H153294   5.754   0.501  11.345  0.7270  1.4561  2.1241
10601TIP3    H253295   5.842   0.476  11.224 -1.8988  0.3329  0.3765
10602TIP3   OH253296   0.174   2.437  16.985  0.3594 -0.1433 -0.0274
10602TIP3    H153297   0.171   2.529  17.012  1.8326  0.4100 -1.6640
10602TIP3    H253298   0.263   2.409  17.005  0.4470 -0.6978 -1.1597
10603TIP3   OH253299   5.442   2.850  15.423  0.6168  0.1458  0.2838
10603TIP3    H153300   5.364   2.800  15.399 -0.8096  1.1911  2.6079
10603TIP3    H253301   5.434   2.865  15.517  2.4169  2.3337  0.1500
10604TIP3   OH253302   4.726   3.981   2.433  0.1364  0.4010 -0.2761
10604TIP3    H153303   4.791   3.921   2.470 -0.9143  0.1138  1.1555
10604TIP3    H253304   4.702   3.940   2.350  0.0875 -0.7052  0.2693
10605TIP3   OH253305   2.510   0.101  15.163  0.2568  0.0146  0.1790
10605TIP3    H153306   2.587   0.051  15.135 -0.1620 -0.8546  0.5805
10605TIP3    H253307   2.542   0.190  15.173  1.2322 -0.3620  0.4270
10606TIP3   OH253308   6.375   1.694  16.650 -1.2903 -0.4364 -0.4857
10606TIP3    H153309   6.308   1.687  16.582 -2.4667 -1.7194  0.7936
10606TIP3    H253310   6.356   1.776  16.695 -0.6638  0.2889 -1.5217
10607TIP3   OH253311   2.894   4.849   2.518  0.3670 -0.2290 -0.0969
10607TIP3    H153312   2.958   4.882   2.581 -1.2374 -0.5396  1.7884
10607TIP3    H253313   2.844   4.926   2.492 -0.2238 -0.3813  0.5469
10608TIP3   OH253314   0.903   4.940   3.906  0.5437  0.0431  0.0124
10608TIP3    H153315   0.814   4.953   3.874  1.7249  2.1844 -2.5208
10608TIP3    H253316   0.930   5.026   3.939  1.6079 -0.6532  1.0241
10609TIP3   OH253317   3.368   4.698   2.561  0.4267 -0.2715  0.2879
10609TIP3    H153318   3.293   4.732   2.610  0.0091  0.7545 -1.0354
10609TIP3    H253319   3.383   4.611   2.598 -0.3388  0.1928  1.7217
10610TIP3   OH253320   1.509   0.338   2.447  0.0893 -0.2150 -0.2203
10610TIP3    H153321   1.591   0.322   2.494  0.3265  0.8431 -0.2483
10610TIP3    H253322   1.449   0.272   2.481  0.9327 -0.9553 -0.1504
10611TIP3   OH253323   4.597   4.137   4.197  0.3287  0.3780  0.5928
10611TIP3    H153324   4.624   4.096   4.115 -1.1558  0.8040 -0.1350
10611TIP3    H253325   4.627   4.078   4.265  1.6169  0.0355 -0.2580
10612TIP3   OH253326   3.971   5.288   3.728 -0.1984 -0.1013 -0.2935
10612TIP3    H153327   4.008   5.328   3.650 -1.1470  2.3390  0.4515
10612TIP3    H253328   4.043   5.240   3.767  1.1333  1.2950 -0.9724
10613TIP3   OH253329   6.324   2.902  10.999  0.1885  0.2203  0.3477
10613TIP3    H153330   6.244   2.853  11.018  0.8774 -1.4416 -0.9338
10613TIP3    H253331   6.335   2.895  10.904  1.8462  0.4352  0.5026
10614TIP3   OH253332   1.570   0.602   0.619  0.0102  0.2123  1.0564
10614TIP3    H153333   1.531   0.514   0.623  0.4320 -0.0053  0.3163
10614TIP3    H253334   1.537   0.645   0.698  0.2460 -0.7947  1.7187
10615TIP3   OH253335   1.623   0.289   3.600 -0.3452  0.3408  0.1541
10615TIP3    H153336   1.651   0.228   3.532 -3.0514 -1.7447  0.8347
10615TIP3    H253337   1.530   0.303   3.583 -0.1216  3.1121  0.9375
10616TIP3   OH253338   3.706   4.215  13.958 -0.1296  0.1524  0.4652
10616TIP3    H153339   3.733   4.272  14.031 -0.6435 -0.6138  1.2588
10616TIP3    H253340   3.663   4.274  13.896 -1.5691  0.4885  1.7479
10617TIP3   OH253341   5.806   2.003   0.648  0.5884  0.2339 -0.5918
10617TIP3    H153342   5.750   1.942   0.599  0.7294 -0.4925  0.1312
10617TIP3    H253343   5.866   1.946   0.696  1.3985  0.9811 -0.7006
10618TIP3   OH253344   1.938   1.250  16.472  0.3398 -0.1392  0.2091
10618TIP3    H153345   1.937   1.328  16.529  0.4047 -0.4507  0.6370
10618TIP3    H253346   1.874   1.191  16.512 -1.1048  0.4545 -1.1970
10619TIP3   OH253347   2.283   0.440   3.598  0.5778 -0.3198 -0.2232
10619TIP3    H153348   2.226   0.516   3.612  0.0988 -0.8847  0.9445
10619TIP3    H253349   2.314   0.451   3.508 -1.2219  0.1052 -0.8326
10620TIP3   OH253350   6.106   5.385   2.708  0.0980  0.1567  0.3107
10620TIP3    H153351   6.061   5.323   2.765  0.9779  0.7823  1.7050
10620TIP3    H253352   6.138   5.454   2.767  1.7246  0.3959 -0.8027
10621TIP3   OH253353   3.607   2.619  14.640 -0.7592  0.4608  0.5752
10621TIP3    H153354   3.660   2.676  14.584  0.0623 -1.4374 -0.6280
10621TIP3    H253355   3.619   2.654  14.729 -2.9473  4.1919 -0.4871
10622TIP3   OH253356   0.476   1.197   5.771 -0.6176  0.1307 -0.2823
10622TIP3    H153357   0.525   1.161   5.845 -0.2064 -1.0177 -1.1198
10622TIP3    H253358   0.392   1.151   5.773 -0.1678 -0.7462 -1.2262
10623TIP3   OH253359   1.630   3.343  15.863 -0.4096 -0.2201  0.0838
10623TIP3    H153360   1.586   3.388  15.791  0.7496  3.1038  1.4009
10623TIP3    H253361   1.710   3.307  15.824 -0.0038  1.1950 -0.3893
10624TIP3   OH253362   1.143   5.156   3.739 -0.0448 -0.6139 -0.4465
10624TIP3    H153363   1.225   5.198   3.716  0.6026 -0.8528  1.3275
10624TIP3    H253364   1.118   5.196   3.823  0.8189 -3.9633  1.5268
10625TIP3   OH253365   0.293   4.262  15.746 -0.1007 -0.5396  0.5473
10625TIP3    H153366   0.299   4.314  15.826  0.4907 -0.4744  0.4679
10625TIP3    H253367   0.298   4.171  15.775 -0.3423 -0.5287  0.6212
10626TIP3   OH253368   5.761   3.817  15.371  0.2614 -0.1357 -0.4310
10626TIP3    H153369   5.732   3.792  15.284  0.5906 -1.3454 -0.1896
10626TIP3    H253370   5.856   3.822  15.365  0.1884  1.3297 -0.5476
10627TIP3   OH253371   4.944   5.385  13.896  0.4297  0.1206  0.4089
10627TIP3    H153372   4.961   5.478  13.883 -0.6452  0.2175 -0.3346
10627TIP3    H253373   4.981   5.343  13.819  0.4884 -0.0155  0.5119
10628TIP3   OH253374   6.781   1.779   3.723  0.0719  0.6616 -0.3279
10628TIP3    H153375   6.733   1.762   3.804  3.4107 -0.1071  1.5877
10628TIP3    H253376   6.778   1.696   3.676 -3.1377  1.5279 -1.7475
10629TIP3   OH253377   5.138   2.749  13.324 -0.0799  0.2216  0.4648
10629TIP3    H153378   5.186   2.828  13.301 -0.9269  0.4137 -0.6877
10629TIP3    H253379   5.169   2.726  13.411  1.5257  0.7699  0.0431
10630TIP3   OH253380   2.045   3.654   4.710  0.6764  0.4439  0.3404
10630TIP3    H153381   1.973   3.686   4.764  1.0756  0.9201  0.5969
10630TIP3    H253382   2.029   3.692   4.624 -0.1793 -0.6364  0.0104
10631TIP3   OH253383   4.630   1.375   4.621 -0.1009  0.1032  0.6908
10631TIP3    H153384   4.621   1.282   4.600  0.2129 -0.6335  3.5382
10631TIP3    H253385   4.705   1.404   4.569 -0.2997 -1.2042 -0.3514
10632TIP3   OH253386   4.756   2.250  15.775 -0.1899  0.2179 -0.2320
10632TIP3    H153387   4.680   2.296  15.739  0.1439 -0.7788 -2.2913
10632TIP3    H253388   4.722   2.164  15.802 -0.3785  0.8509  1.6428
10633TIP3   OH253389   2.019   4.660   0.180 -0.5943 -0.5345  0.5732
10633TIP3    H153390   2.039   4.723   0.111 -0.3288 -2.5106 -1.2017
10633TIP3    H253391   2.075   4.686   0.253 -0.1205  0.9649 -0.2956
10634TIP3   OH253392   1.018   3.344   0.055 -0.2223  0.5991 -0.3337
10634TIP3    H153393   1.094   3.289   0.036 -2.1144 -2.2720  0.0739
10634TIP3    H253394   0.961   3.334  -0.021 -1.6584  0.0170  0.7801
10635TIP3   OH253395   2.430   2.006   6.560 -0.2301  0.5311 -0.1328
10635TIP3    H153396   2.351   1.955   6.539 -0.7705  0.9239  0.9484
10635TIP3    H253397   2.404   2.097   6.548  0.7194  0.5963 -1.9863
10636TIP3   OH253398   2.201   0.603   2.036  0.3022 -0.2789  0.1402
10636TIP3    H153399   2.169   0.515   2.013  0.9074 -0.6843  0.8183
10636TIP3    H253400   2.172   0.616   2.126  0.0685  0.2901 -0.0155
10637TIP3   OH253401   5.662   1.008  17.177 -0.5136 -0.4433  0.0984
10637TIP3    H153402   5.701   0.936  17.227  1.4416  0.0914 -0.6501
10637TIP3    H253403   5.728   1.032  17.112 -2.0663  0.5044 -1.1707
10638TIP3   OH253404   4.356   2.388   4.538  0.8809  0.7642 -0.4401
10638TIP3    H153405   4.389   2.321   4.478  0.4969  1.0446 -0.9672
10638TIP3    H253406   4.412   2.381   4.615  0.9623 -0.0328 -0.5731
10639TIP3   OH253407   5.473   3.452   2.905  0.8813 -0.2531  0.3225
10639TIP3    H153408   5.472   3.464   2.810 -0.0996 -1.0649  0.2218
10639TIP3    H253409   5.380   3.453   2.930  1.1315 -0.1067  1.2640
10640TIP3   OH253410   2.215   3.245   4.883  0.0414  0.2194  0.2736
10640TIP3    H153411   2.179   3.157   4.872 -0.5848  0.5489 -0.3479
10640TIP3    H253412   2.158   3.301   4.829 -0.7249  1.2768  2.1282
10641TIP3   OH253413   3.694   1.032  13.283  0.6573 -0.4839  0.1419
10641TIP3    H153414   3.672   1.124  13.267  0.0276 -0.5465  0.6298
10641TIP3    H253415   3.708   0.996  13.195  0.4256 -0.0396 -0.0854
10642TIP3   OH253416   5.013   2.415   1.939 -0.1341 -0.4805 -0.2849
10642TIP3    H153417   4.938   2.385   1.992 -0.4382 -0.2448 -0.5782
10642TIP3    H253418   4.991   2.389   1.850 -0.4262  0.6546 -0.5499
10643TIP3   OH253419   3.060   4.377  14.082 -0.1945  0.2131  0.0479
10643TIP3    H153420   3.083   4.296  14.128  0.6677  0.7708  0.6254
10643TIP3    H253421   2.978   4.405  14.123  0.3185  0.4546  0.9174
10644TIP3   OH253422   1.881   5.609  10.860  0.3536  0.3328 -0.2634
10644TIP3    H153423   1.796   5.629  10.822 -0.3836 -0.4408  0.9531
10644TIP3    H253424   1.920   5.546  10.799 -0.3574 -0.0696 -0.3017
10645TIP3   OH253425   0.019   0.535   1.910 -0.2392 -0.5940  0.1231
10645TIP3    H153426   0.030   0.529   2.005  0.1322  0.6908  0.1794
10645TIP3    H253427   0.076   0.467   1.875 -0.6335 -1.3018  0.8315
10646TIP3   OH253428   6.264   0.049  15.127  0.0784  0.7971  0.0892
10646TIP3    H153429   6.290   0.141  15.130  1.7937  0.2893  1.6920
10646TIP3    H253430   6.289   0.014  15.212 -0.1080 -1.2763 -0.6819
10647TIP3   OH253431   6.444   5.101  15.660 -0.3113 -0.6860  0.1517
10647TIP3    H153432   6.450   5.012  15.694 -1.3157 -0.5047  0.8353
10647TIP3    H253433   6.350   5.120  15.659 -0.2736 -0.4291 -2.0602
10648TIP3   OH253434   1.552   5.635   2.903 -0.1230 -0.5629 -0.0173
10648TIP3    H153435   1.602   5.555   2.922  0.0332 -1.5424 -4.1103
10648TIP3    H253436   1.614   5.691   2.856 -0.5757  1.5663  1.8406
10649TIP3   OH253437   1.665   0.040   5.438 -0.0086  0.1470 -0.2006
10649TIP3    H153438   1.741   0.097   5.445 -0.7352  1.2096 -0.9984
10649TIP3    H253439   1.657   0.002   5.526  0.0140  1.8535  0.5577
10650TIP3   OH253440   5.770   5.375   3.037  0.2376 -0.4657 -0.0262
10650TIP3    H153441   5.676   5.357   3.039 -0.1382  0.9465 -2.2905
10650TIP3    H253442   5.779   5.459   3.083  0.0294  0.6667 -2.0206
10651TIP3   OH253443   2.003   4.065  12.668 -0.1994 -0.0395  0.3153
10651TIP3    H153444   1.995   4.002  12.739  1.3589 -0.9631 -0.2950
10651TIP3    H253445   1.982   4.015  12.589 -0.3637  0.5788 -0.0412
10652TIP3   OH253446   3.638   1.848  15.355 -0.3878 -0.1192  0.1977
10652TIP3    H153447   3.561   1.895  15.388 -0.8232  0.1352 -1.1515
10652TIP3    H253448   3.603   1.766  15.320 -0.1528  0.2828 -1.0193
10653TIP3   OH253449   4.265   4.427   4.920 -0.0652 -0.4079  0.2719
10653TIP3    H153450   4.185   4.379   4.944 -0.1626 -0.4119 -0.0561
10653TIP3    H253451   4.245   4.465   4.834 -0.4263  1.2284  1.0610
10654TIP3   OH253452   5.564   5.842  11.241 -1.1534  0.2033  0.0766
10654TIP3    H153453   5.631   5.775  11.254 -0.2832  0.8005 -1.2493
10654TIP3    H253454   5.489   5.795  11.206 -1.3465 -0.4195  1.2865
10655TIP3   OH253455   5.882   1.437   3.188 -0.3224  0.1682  0.3199
10655TIP3    H153456   5.844   1.476   3.109  1.4385  2.4186  0.5389
10655TIP3    H253457   5.959   1.389   3.156  1.5786  2.7789  0.8600
10656TIP3   OH253458   6.543   3.407  12.640 -0.1200 -0.0226  0.3675
10656TIP3    H153459   6.464   3.441  12.682 -0.1960 -1.5300  1.4895
10656TIP3    H253460   6.615   3.441  12.695 -0.1362 -0.7166  0.8254
10657TIP3   OH253461   3.176   2.486  10.278  0.1435 -0.0744  0.2312
10657TIP3    H153462   3.096   2.485  10.225 -0.0369  1.7496  0.4315
10657TIP3    H253463   3.220   2.404  10.256 -0.8579 -0.2253 -1.3211
10658TIP3   OH253464   6.001   0.173  13.990 -0.2404 -0.2827 -0.7371
10658TIP3    H153465   5.906   0.185  13.993 -0.4437 -1.5049 -1.8008
10658TIP3    H253466   6.023   0.178  13.897  0.8144  0.4798 -0.4523
10659TIP3   OH253467   3.665   4.603   4.863  0.3789  0.1534  0.5337
10659TIP3    H153468   3.739   4.654   4.830  1.2404 -0.0126  2.1722
10659TIP3    H253469   3.630   4.560   4.785  0.7027  1.8813 -0.5985
10660TIP3   OH253470   4.230   3.458  15.677  0.6914 -0.6613  0.1606
10660TIP3    H153471   4.282   3.502  15.610  1.5953 -1.7431  0.1286
10660TIP3    H253472   4.293   3.434  15.745 -0.1441  0.0010  1.1761
10661TIP3   OH253473   1.502   6.580   2.232  0.1806  0.2191 -0.3451
10661TIP3    H153474   1.594   6.578   2.259  0.2870 -1.2023 -0.7943
10661TIP3    H253475   1.505   6.570   2.137 -0.4232  0.7322 -0.4214
10662TIP3   OH253476   4.659   3.271   3.697  0.3475 -0.3978 -0.6990
10662TIP3    H153477   4.670   3.214   3.621 -1.4757 -1.0574 -0.4776
10662TIP3    H253478   4.663   3.212   3.772  2.0431  0.2407 -0.2583
10663TIP3   OH253479   3.976   3.143   6.504  0.2425 -0.2451 -0.3006
10663TIP3    H153480   4.068   3.133   6.527  0.1915 -1.1015 -0.4282
10663TIP3    H253481   3.928   3.106   6.578  0.0247 -0.7267 -0.6794
10664TIP3   OH253482   0.790   4.848   4.379  0.7545 -0.8351  0.6762
10664TIP3    H153483   0.709   4.882   4.418 -0.7109 -2.2131 -1.1062
10664TIP3    H253484   0.860   4.897   4.423 -0.9347 -0.8848  3.5473
10665TIP3   OH253485   3.065   6.042   3.899  0.6915  0.3421  0.4903
10665TIP3    H153486   3.142   6.021   3.951  1.1766  1.5380  0.2691
10665TIP3    H253487   3.008   6.090   3.960  0.0084 -0.7390  0.7214
10666TIP3   OH253488   0.457   6.644   0.531 -0.7765  0.0354 -0.1719
10666TIP3    H153489   0.383   6.704   0.524 -1.4932 -0.8927 -0.7208
10666TIP3    H253490   0.510   6.661   0.452 -1.2790 -0.4399 -0.6169
10667TIP3   OH253491   4.925   1.209   0.220 -0.7809  0.3041  0.3022
10667TIP3    H153492   4.868   1.286   0.221  0.8301  1.5197 -0.4398
10667TIP3    H253493   5.012   1.243   0.238 -0.0560 -1.3550 -0.0011
10668TIP3   OH253494   2.431   1.017   2.324  0.0360 -0.1513 -0.1234
10668TIP3    H153495   2.478   0.938   2.351 -0.4839 -0.7453 -0.9408
10668TIP3    H253496   2.431   1.073   2.402 -0.0759 -1.1853  0.6278
10669TIP3   OH253497   5.450   3.274  13.117 -0.1333  0.0946  0.6396
10669TIP3    H153498   5.538   3.285  13.154  0.2665  2.1743 -0.8369
10669TIP3    H253499   5.448   3.185  13.084  1.3401 -0.0566  0.9436
10670TIP3   OH253500   2.790   4.399  12.521  0.1140 -0.3151  0.0783
10670TIP3    H153501   2.839   4.382  12.602  0.0886 -2.7833 -0.3791
10670TIP3    H253502   2.741   4.318  12.506 -0.6955  0.5157 -1.8456
10671TIP3   OH253503   5.418   5.101   3.286 -0.3504 -0.5107  0.1907
10671TIP3    H153504   5.477   5.112   3.211 -0.5551 -1.1748 -0.0644
10671TIP3    H253505   5.468   5.135   3.360  0.0799 -0.3997 -0.1453
10672TIP3   OH253506   1.804   1.190  14.511  0.3981  0.3698  0.5399
10672TIP3    H153507   1.754   1.140  14.447  2.1838  2.4672 -2.5998
10672TIP3    H253508   1.882   1.137  14.526  1.9325  1.7609 -2.2127
10673TIP3   OH253509   6.636   4.287  13.145 -0.9438  0.3740 -0.2241
10673TIP3    H153510   6.586   4.352  13.195 -1.1478  1.3313 -1.6270
10673TIP3    H253511   6.577   4.262  13.074 -0.7429 -1.1297  0.1235
10674TIP3   OH253512   5.334   3.602  16.158  0.1202 -0.2223 -0.2839
10674TIP3    H153513   5.274   3.613  16.232 -0.4747 -0.9417 -0.6533
10674TIP3    H253514   5.384   3.523  16.180  0.4314 -0.0337 -0.3162
10675TIP3   OH253515   4.605   4.466  12.607 -0.5565 -0.0583 -0.1017
10675TIP3    H153516   4.543   4.528  12.568 -1.0424  0.3297  1.2834
10675TIP3    H253517   4.619   4.499  12.695  2.0154  0.1300 -0.5544
10676TIP3   OH253518   5.314   0.985  13.237 -0.1489  0.4167 -0.0718
10676TIP3    H153519   5.256   0.975  13.313  0.3155 -0.1239  0.2178
10676TIP3    H253520   5.392   0.934  13.260 -0.1972 -0.1300 -1.1056
10677TIP3   OH253521   1.702   2.060   3.104  0.5067  0.0916  0.0579
10677TIP3    H153522   1.735   2.099   3.023 -0.9057 -2.3107 -1.7746
10677TIP3    H253523   1.609   2.084   3.107  0.2563 -0.8744  0.2986
10678TIP3   OH253524   5.840   2.896   4.121 -0.0368 -0.0594  0.2638
10678TIP3    H153525   5.801   2.968   4.071  0.4428 -1.1894 -1.7989
10678TIP3    H253526   5.769   2.833   4.132  0.0251 -0.0934  0.4654
10679TIP3   OH253527   0.573   6.575  11.208  0.4469  0.3105 -0.0247
10679TIP3    H153528   0.493   6.591  11.160  0.4037 -1.1061 -0.4595
10679TIP3    H253529   0.641   6.623  11.160  0.4112 -1.1176 -1.5287
10680TIP3   OH253530   3.138   0.192   6.289 -0.0259  0.3866  0.5971
10680TIP3    H153531   3.134   0.131   6.363 -3.2695 -0.9305 -0.5607
10680TIP3    H253532   3.069   0.256   6.307 -1.8733 -0.8024 -1.9252
10681TIP3   OH253533   4.242   4.482   3.755  0.3642  0.1930 -0.1415
10681TIP3    H153534   4.293   4.449   3.829 -1.5362 -0.6879  0.8015
10681TIP3    H253535   4.301   4.474   3.680  2.7147  2.0657  1.3905
10682TIP3   OH253536   0.749   4.775   2.287  0.1743  0.4337  0.0013
10682TIP3    H153537   0.688   4.849   2.295 -0.9544 -0.5596  0.8978
10682TIP3    H253538   0.787   4.767   2.374  0.3202 -0.0173 -0.1059
10683TIP3   OH253539   3.552   1.398   5.012  0.7165 -0.0383  0.0577
10683TIP3    H153540   3.550   1.302   5.008  0.9872 -0.0267 -0.3449
10683TIP3    H253541   3.627   1.417   5.069 -0.1358 -0.0925  1.2088
10684TIP3   OH253542   0.941   1.408   2.195  0.0972  0.5065 -0.8743
10684TIP3    H153543   0.956   1.493   2.154  3.3636  1.6510  2.4476
10684TIP3    H253544   0.936   1.426   2.289 -3.0966 -2.5267 -0.3411
10685TIP3   OH253545   2.609   6.221   0.700 -0.0519  0.1924 -0.2896
10685TIP3    H153546   2.597   6.126   0.711  0.6861  0.2040  0.6659
10685TIP3    H253547   2.555   6.260   0.769  0.4053  0.4400 -0.0720
10686TIP3   OH253548   1.226   0.836   2.419  0.4428  0.1833 -0.1674
10686TIP3    H153549   1.163   0.864   2.486  0.7961 -1.2025  0.7451
10686TIP3    H253550   1.172   0.800   2.348  0.2005 -0.9149  0.5737
10687TIP3   OH253551   0.187   2.176   1.323  0.0381 -0.0794  0.3007
10687TIP3    H153552   0.212   2.144   1.236  2.9413 -1.2038  1.4675
10687TIP3    H253553   0.109   2.125   1.345  1.4507 -2.5363 -0.1340
10688TIP3   OH253554   3.117   2.231  13.277  0.3508 -0.2482  0.5431
10688TIP3    H153555   3.080   2.192  13.198  1.5681 -0.1588 -0.0966
10688TIP3    H253556   3.081   2.320  13.279  0.1408 -0.3259  0.2031
10689TIP3   OH253557   1.274   3.300  12.571  0.3566 -0.0133  0.4405
10689TIP3    H153558   1.338   3.298  12.642 -1.9697 -0.0857  2.6488
10689TIP3    H253559   1.233   3.387  12.579 -1.2099 -0.7410  0.4029
10690TIP3   OH253560   3.830   6.506  11.495 -0.9091 -0.4415 -0.3192
10690TIP3    H153561   3.891   6.456  11.549 -0.3948  0.1955 -0.3124
10690TIP3    H253562   3.755   6.522  11.553 -0.7121 -0.4676 -0.0554
10691TIP3   OH253563   1.779   6.569   3.393  0.2154  0.7413  0.5660
10691TIP3    H153564   1.787   6.491   3.448 -0.6413  0.2422 -0.0063
10691TIP3    H253565   1.868   6.586   3.361 -0.1663 -2.1045 -2.1895
10692TIP3   OH253566   5.271   0.762  13.648  0.3219 -0.5735  0.0100
10692TIP3    H153567   5.335   0.691  13.658 -1.0666 -1.5322  2.2998
10692TIP3    H253568   5.187   0.721  13.666 -1.0464  0.6281 -3.2575
10693TIP3   OH253569   0.675   5.120  12.099 -0.2730 -0.0256 -0.3040
10693TIP3    H153570   0.599   5.162  12.060 -0.9392 -1.3280 -0.4418
10693TIP3    H253571   0.660   5.126  12.194  0.1913  1.0471 -0.2978
10694TIP3   OH253572   4.279   6.005  14.618 -0.3685  0.0472 -0.5872
10694TIP3    H153573   4.328   6.044  14.545  0.4816 -0.6858 -0.4154
10694TIP3    H253574   4.191   6.040  14.609 -0.3757 -0.3553 -2.2099
10695TIP3   OH253575   4.507   2.039  12.537 -0.1277 -0.3010  0.4271
10695TIP3    H153576   4.566   2.006  12.469 -0.2356  0.2021  0.0853
10695TIP3    H253577   4.456   1.962  12.563  0.1529 -0.5739  0.1866
10696TIP3   OH253578   0.546   6.403   0.187 -0.3555  0.1842  0.3395
10696TIP3    H153579   0.506   6.331   0.138 -1.7078  2.7225 -2.4145
10696TIP3    H253580   0.638   6.399   0.163 -0.3521 -0.8736  0.5042
10697TIP3   OH253581   1.009   2.899   2.174  0.0253  0.0157  0.2436
10697TIP3    H153582   0.984   2.899   2.266 -0.6001  1.1782  0.0787
10697TIP3    H253583   0.983   2.985   2.142 -0.3783 -0.6271 -1.1851
10698TIP3   OH253584   4.931   3.431   4.161 -0.1953 -0.2947 -0.4449
10698TIP3    H153585   5.023   3.451   4.177  0.0571 -1.2084 -0.7056
10698TIP3    H253586   4.907   3.485   4.086 -0.4033  1.3483  0.7746
10699TIP3   OH253587   3.381   1.002   5.510 -0.0330 -0.8044 -0.1148
10699TIP3    H153588   3.476   0.986   5.513 -0.1860 -2.1410 -1.5317
10699TIP3    H253589   3.372   1.094   5.485  0.8840  0.1744  2.9366
10700TIP3   OH253590   4.710   1.099  15.743 -0.4997  0.3050  0.1145
10700TIP3    H153591   4.772   1.058  15.683 -0.9960  0.6675 -0.6422
10700TIP3    H253592   4.764   1.156  15.798 -0.4079  2.2306 -1.8988
10701TIP3   OH253593   1.046   5.195   1.634 -0.2595 -0.4604 -0.4157
10701TIP3    H153594   1.081   5.179   1.546 -0.1782 -1.5765 -0.1780
10701TIP3    H253595   1.073   5.119   1.685 -0.7602 -0.0601  0.4472
10702TIP3   OH253596   6.676   1.527   1.057 -0.4039  0.0451  0.2484
10702TIP3    H153597   6.657   1.501   1.148  0.3275 -3.1239 -0.4190
10702TIP3    H253598   6.771   1.538   1.056 -0.7275  3.1519  0.5598
10703TIP3   OH253599   6.714   0.832  14.689  0.0446  0.8590 -0.1678
10703TIP3    H153600   6.760   0.791  14.615 -1.3568  1.5304 -1.4418
10703TIP3    H253601   6.675   0.759  14.737  1.1498  0.4023  0.0548
10704TIP3   OH253602   4.736   4.491  13.429 -0.0261 -0.0419 -0.0816
10704TIP3    H153603   4.706   4.424  13.491  1.4850 -0.7629 -0.1047
10704TIP3    H253604   4.704   4.573  13.464 -3.9795 -0.9698 -1.2618
10705TIP3   OH253605   1.009   1.626  15.490 -0.0864 -0.3539  0.1378
10705TIP3    H153606   1.046   1.629  15.401 -1.0365 -0.0692 -0.2627
10705TIP3    H253607   0.933   1.569  15.481 -1.1225  0.9572  0.4000
10706TIP3   OH253608   0.221   5.160   5.516  0.0471  0.2465 -0.3218
10706TIP3    H153609   0.244   5.186   5.605 -2.1362  1.6965 -0.1214
10706TIP3    H253610   0.304   5.138   5.474  1.5154  3.1273  0.9530
10707TIP3   OH253611   4.479   4.347  13.583  0.5077  0.2225 -0.4486
10707TIP3    H153612   4.499   4.256  13.564  1.1218 -0.2227  2.1423
10707TIP3    H253613   4.549   4.375  13.642 -1.2228  1.5169  1.0362
10708TIP3   OH253614   1.091   2.726  14.321  1.0616 -0.0528 -0.2005
10708TIP3    H153615   1.056   2.793  14.262  1.7987 -0.8959 -1.6241
10708TIP3    H253616   1.113   2.774  14.401 -2.3908  0.6745  0.3994
10709TIP3   OH253617   2.257   5.998  14.776  0.1376 -0.3909  0.1458
10709TIP3    H153618   2.196   6.057  14.731  1.3100  1.5517  1.0437
10709TIP3    H253619   2.202   5.926  14.807 -1.3727  0.3386 -0.7722
10710TIP3   OH253620   1.822   3.098  11.528 -0.7211  0.6403 -0.7635
10710TIP3    H153621   1.775   3.126  11.607 -0.5959  0.0112 -0.4646
10710TIP3    H253622   1.896   3.159  11.521  0.2590 -0.3525  0.5833
10711TIP3   OH253623   3.603   4.202  12.282  0.1900  0.4487 -0.4490
10711TIP3    H153624   3.669   4.176  12.218  0.4402  0.5358 -0.2255
10711TIP3    H253625   3.526   4.150  12.260  0.9718 -1.1907  0.5905
10712TIP3   OH253626   0.297   0.974   5.667 -0.1034 -0.3589  0.1633
10712TIP3    H153627   0.302   0.913   5.593  0.3079 -1.4270  1.0465
10712TIP3    H253628   0.280   0.918   5.742  0.1535  0.6420  0.9764
10713TIP3   OH253629   3.290   6.318   2.988 -0.2414  0.6117  0.3705
10713TIP3    H153630   3.223   6.326   3.056 -0.9787 -1.9891 -0.0093
10713TIP3    H253631   3.302   6.224   2.976  1.1098  1.0270 -1.9139
10714TIP3   OH253632   6.460   3.424   5.408 -0.0839 -0.8899  0.1120
10714TIP3    H153633   6.505   3.461   5.484  2.7004  0.8929 -2.3064
10714TIP3    H253634   6.520   3.357   5.375 -0.3284 -0.2274 -1.7093
10715TIP3   OH253635   4.610   5.701   2.391  0.3891  0.0184  0.0518
10715TIP3    H153636   4.668   5.774   2.367  0.2892 -0.1377 -0.6722
10715TIP3    H253637   4.548   5.695   2.318  0.8937 -1.3091 -0.2800
10716TIP3   OH253638   5.327   4.701   5.825  0.3098  0.8008 -0.3028
10716TIP3    H153639   5.337   4.796   5.832 -0.8056  0.9307 -0.3581
10716TIP3    H253640   5.238   4.689   5.793  0.2841 -0.2870  0.1658
10717TIP3   OH253641   4.359   1.679   1.384 -0.4289  0.2052  0.0435
10717TIP3    H153642   4.327   1.768   1.399  0.8221  0.7399 -0.3669
10717TIP3    H253643   4.299   1.623   1.432 -2.1197  1.1545 -0.9133
10718TIP3   OH253644   3.799   6.323  14.710  0.5613  0.0582 -0.1907
10718TIP3    H153645   3.741   6.271  14.766  0.9510  0.2421  0.3970
10718TIP3    H253646   3.741   6.385  14.666  0.4741  1.3296  1.6153
10719TIP3   OH253647   5.238   4.249  16.289 -0.0654 -0.5869 -0.1543
10719TIP3    H153648   5.173   4.319  16.291  0.8373  0.2298  2.7758
10719TIP3    H253649   5.322   4.294  16.296  0.7190 -1.7872 -1.5018
10720TIP3   OH253650   3.081   0.371   1.414 -0.3135 -0.6722  0.6341
10720TIP3    H153651   3.131   0.411   1.486 -1.6674 -0.0954  1.2811
10720TIP3    H253652   2.991   0.399   1.430 -0.6419 -0.5601 -1.2936
10721TIP3   OH253653   6.188   5.944   0.027  0.6925 -0.7410  0.0781
10721TIP3    H153654   6.281   5.950   0.007  0.7159 -1.0377  0.0839
10721TIP3    H253655   6.164   5.855   0.001  0.0966 -0.2037 -1.2521
10722TIP3   OH253656   0.016   1.409  11.936  0.4103 -0.8827  0.1628
10722TIP3    H153657  -0.069   1.394  11.979  1.1992 -0.9157  1.7499
10722TIP3    H253658   0.050   1.321  11.920  0.3796 -0.8660  0.0090
10723TIP3   OH253659   2.794   0.974  17.169 -0.6541 -0.7194 -0.7318
10723TIP3    H153660   2.763   0.975  17.259 -0.4303 -2.1984 -0.6255
10723TIP3    H253661   2.866   0.911  17.169  1.6698  1.8184 -1.2066
10724TIP3   OH253662   3.534   3.866   1.216 -0.5119  0.0011 -0.2096
10724TIP3    H153663   3.606   3.816   1.255 -0.9196  1.2724  2.3166
10724TIP3    H253664   3.570   3.902   1.135  1.2034 -0.6061  0.2720
10725TIP3   OH253665   5.164   5.708  14.099 -0.1144 -0.7321 -0.4672
10725TIP3    H153666   5.232   5.745  14.043  0.3620 -1.6042 -0.4690
10725TIP3    H253667   5.190   5.616  14.111 -0.8437 -0.8517  0.2100
10726TIP3   OH253668   5.110   0.444  15.534  0.2734 -0.1920  0.0680
10726TIP3    H153669   5.074   0.366  15.492 -1.6349  0.5568  0.2449
10726TIP3    H253670   5.176   0.476  15.472 -1.5893  0.1748 -1.7720
10727TIP3   OH253671   2.933   0.798  11.644 -0.6198 -0.3735  0.1957
10727TIP3    H153672   2.867   0.774  11.579 -0.7043 -1.0523  0.5308
10727TIP3    H253673   2.886   0.850  11.708  0.0261  2.6436 -1.7054
10728TIP3   OH253674   1.718   3.594   4.244 -0.2126  0.3577  0.0431
10728TIP3    H153675   1.747   3.542   4.169 -0.2623  0.5763 -0.1282
10728TIP3    H253676   1.680   3.673   4.206  0.7973  0.9931  0.3262
10729TIP3   OH253677   1.460   0.837  14.486 -0.6409  0.8156  0.0747
10729TIP3    H153678   1.405   0.767  14.520  0.6720 -0.7663 -0.9951
10729TIP3    H253679   1.508   0.870  14.563 -0.4094 -0.2385  0.3884
10730TIP3   OH253680   3.363   5.294  16.391 -0.0138  0.1218 -0.2079
10730TIP3    H153681   3.367   5.307  16.296 -1.8656 -1.9739 -0.5990
10730TIP3    H253682   3.307   5.218  16.403  1.3669 -0.5340  2.5287
10731TIP3   OH253683   0.255   6.102  12.065  0.0696  0.1029  0.0315
10731TIP3    H153684   0.312   6.026  12.076  1.9077  1.1634 -1.6876
10731TIP3    H253685   0.244   6.137  12.154  1.7999 -0.3731  0.4567
10732TIP3   OH253686   4.489   6.641   0.621 -0.0670 -0.6932 -0.0394
10732TIP3    H153687   4.490   6.735   0.601 -1.4337 -0.3345  1.4677
10732TIP3    H253688   4.512   6.599   0.539 -1.5422  0.8801 -1.2947
10733TIP3   OH253689   4.227   3.871   0.690  0.2293  0.2899 -0.0972
10733TIP3    H153690   4.267   3.784   0.687  2.6005  1.2900  0.9653
10733TIP3    H253691   4.267   3.918   0.616 -0.5564  0.6769 -0.2817
10734TIP3   OH253692   3.760   3.345  15.803  0.2342 -0.0537 -0.6023
10734TIP3    H153693   3.726   3.435  15.799  0.1325 -0.0500  0.4120
10734TIP3    H253694   3.847   3.352  15.764  0.1703  0.4624 -0.6682
10735TIP3   OH253695   1.059   3.316   3.781  0.4676 -0.9306  0.3924
10735TIP3    H153696   1.050   3.252   3.851 -1.4608  0.5484  1.5395
10735TIP3    H253697   1.098   3.393   3.823  0.5175 -0.4889 -0.4423
10736TIP3   OH253698   3.398   6.210   3.386 -0.1323  0.4311  0.2330
10736TIP3    H153699   3.343   6.246   3.457  0.1779  0.3282  0.5257
10736TIP3    H253700   3.434   6.129   3.423 -1.4719 -0.6096 -0.7048
10737TIP3   OH253701   5.975   4.721   1.737 -0.2070 -0.3746  0.3415
10737TIP3    H153702   5.881   4.727   1.752 -0.0796  1.7265  0.3912
10737TIP3    H253703   6.013   4.785   1.796  1.2262 -0.8160 -0.0769
10738TIP3   OH253704   1.329   0.185   2.589 -0.7887  0.4505 -0.0806
10738TIP3    H153705   1.298   0.108   2.541 -0.8283 -0.0506  0.7414
10738TIP3    H253706   1.250   0.238   2.603 -1.3809 -1.0251  2.3775
10739TIP3   OH253707   6.418   2.726   3.432  0.0399 -0.0412  0.2815
10739TIP3    H153708   6.468   2.804   3.408  0.6597 -0.1114  1.2869
10739TIP3    H253709   6.349   2.759   3.490  0.7187 -0.3012  1.2687
10740TIP3   OH253710   1.882   2.939   3.865  0.3740 -0.2205  0.1106
10740TIP3    H153711   1.960   2.885   3.861 -0.0976 -0.8410 -0.7697
10740TIP3    H253712   1.908   3.023   3.827  0.7370 -0.2607  0.2695
10741TIP3   OH253713   3.166   6.437  16.408  0.4578 -0.2761 -0.0614
10741TIP3    H153714   3.136   6.387  16.332  0.8262 -0.4198 -0.1185
10741TIP3    H253715   3.230   6.498  16.372  1.1377 -0.8052  0.2265
10742TIP3   OH253716   6.167   2.417  16.982  0.0284 -0.4346  0.2928
10742TIP3    H153717   6.120   2.445  17.060 -2.7972  0.4765 -1.6293
10742TIP3    H253718   6.204   2.498  16.946 -0.1755 -0.5830 -0.2540
10743TIP3   OH253719   2.990   1.932   1.751  0.3022  0.1091 -0.0038
10743TIP3    H153720   2.912   1.985   1.736  0.9132  0.8932 -0.4434
10743TIP3    H253721   3.037   1.935   1.667  0.7755 -0.4077  0.2387
10744TIP3   OH253722   4.471   6.646   4.840  0.1177  0.5552  0.2590
10744TIP3    H153723   4.489   6.593   4.918 -0.2720 -1.3044 -0.8849
10744TIP3    H253724   4.514   6.730   4.858  0.7459 -0.1346  2.1162
10745TIP3   OH253725   4.776   2.202  16.292 -0.2645  0.5408  0.1688
10745TIP3    H153726   4.812   2.237  16.210 -0.2280  1.0595  0.4053
10745TIP3    H253727   4.688   2.238  16.297 -0.5941 -0.2276 -0.0997
10746TIP3   OH253728   5.693   3.133  12.305 -0.1793  0.2440  0.3670
10746TIP3    H153729   5.761   3.167  12.363  1.4084 -0.0208 -1.2843
10746TIP3    H253730   5.665   3.209  12.254 -0.8747  0.2794  0.7984
10747TIP3   OH253731   5.396   4.652  16.548  0.2251  0.0447  0.2289
10747TIP3    H153732   5.385   4.686  16.637  1.8055  0.8813  0.1391
10747TIP3    H253733   5.424   4.729  16.498 -1.4473 -0.2478 -1.1589
10748TIP3   OH253734   5.811   6.146  16.709  0.1607  0.1958 -0.4259
10748TIP3    H153735   5.787   6.199  16.633 -0.3559 -0.7498 -0.9351
10748TIP3    H253736   5.730   6.103  16.735  0.2277  0.8996  0.9812
10749TIP3   OH253737   1.406   3.007  15.487  0.3127 -0.2969  0.5987
10749TIP3    H153738   1.357   2.933  15.522 -0.1693  1.0059  2.8151
10749TIP3    H253739   1.368   3.024  15.401 -1.5830 -0.7625  1.3373
10750TIP3   OH253740   4.152   5.589   2.145  0.0363 -0.3215 -0.2327
10750TIP3    H153741   4.118   5.551   2.064 -1.8444  0.7050  0.0408
10750TIP3    H253742   4.185   5.675   2.118  0.5615 -0.4877 -0.1247
10751TIP3   OH253743   3.075   5.610   2.230  0.1243  0.0901  0.0348
10751TIP3    H153744   3.015   5.544   2.196 -0.2861  0.0141  0.9017
10751TIP3    H253745   3.021   5.664   2.288  0.9395 -0.1189  1.0003
10752TIP3   OH253746   5.804   1.003  15.797  0.0967 -0.9836  0.3853
10752TIP3    H153747   5.808   1.012  15.893  0.2710  0.3097  0.2650
10752TIP3    H253748   5.713   1.026  15.776  0.0727 -1.2214  0.2382
10753TIP3   OH253749   0.415   5.014   3.713  0.3412 -0.0101  0.4991
10753TIP3    H153750   0.347   5.047   3.772 -0.2561 -0.6752  0.1829
10753TIP3    H253751   0.369   4.954   3.655  1.0392  0.1908 -0.2678
10754TIP3   OH253752   3.167   4.244   0.360  0.4570  0.0165  0.0727
10754TIP3    H153753   3.072   4.254   0.362  0.4795  0.7822 -1.8634
10754TIP3    H253754   3.182   4.157   0.322  0.5460  0.1949 -0.2988
10755TIP3   OH253755   3.701   2.239   1.088  0.1929 -0.1437  0.0429
10755TIP3    H153756   3.781   2.225   1.037  0.7023  2.0159  0.1831
10755TIP3    H253757   3.706   2.176   1.159  1.7719 -0.0490  0.0292
10756TIP3   OH253758   0.882   1.186  15.249  0.0968  0.1859  0.2471
10756TIP3    H153759   0.819   1.157  15.315 -0.2115  1.1454  0.3801
10756TIP3    H253760   0.882   1.116  15.184 -1.1712  0.2206  0.2021
10757TIP3   OH253761   2.523   2.738  14.261 -0.1107 -0.4210 -0.4893
10757TIP3    H153762   2.545   2.828  14.285 -0.7635 -0.5879  0.7536
10757TIP3    H253763   2.585   2.716  14.191 -0.3121  1.1872 -1.2037
10758TIP3   OH253764   0.727   4.648  16.794  0.2393 -0.0691  0.0241
10758TIP3    H153765   0.781   4.699  16.734  0.9299 -1.9454 -1.0176
10758TIP3    H253766   0.721   4.701  16.874  0.0332  2.0742 -1.3753
10759TIP3   OH253767   0.216   4.441   4.421 -0.5867  0.0529 -0.4370
10759TIP3    H153768   0.131   4.399   4.425 -1.1734  1.3177  0.8565
10759TIP3    H253769   0.234   4.468   4.511  0.1916  1.7252 -1.0685
10760TIP3   OH253770   6.636   2.632  11.837  0.1356  1.0327  0.0829
10760TIP3    H153771   6.629   2.603  11.746  3.2787 -2.1319  0.7543
10760TIP3    H253772   6.699   2.704  11.835 -1.0775  2.1048 -0.4213
10761TIP3   OH253773   2.948   4.647  10.607 -0.0362 -0.1279 -0.0468
10761TIP3    H153774   2.853   4.656  10.603  0.0649  0.3954 -1.3915
10761TIP3    H253775   2.968   4.573  10.549  0.4407  0.2320 -0.3512
10762TIP3   OH253776   0.109   0.398  16.873 -0.2386 -0.1217 -0.0892
10762TIP3    H153777   0.018   0.414  16.845 -0.4321  1.7940  1.4836
10762TIP3    H253778   0.101   0.350  16.955  0.1594  0.1693  0.1225
10763TIP3   OH253779   4.519   4.993  13.525  0.6647 -0.5505 -0.3612
10763TIP3    H153780   4.579   5.027  13.458 -0.3453  0.2290 -0.8778
10763TIP3    H253781   4.456   4.940  13.476 -0.6647  0.8261 -0.1612
10764TIP3   OH253782   0.802   2.589  14.599 -0.1185 -0.3204 -0.2710
10764TIP3    H153783   0.731   2.536  14.561 -0.2529 -0.7303  0.5477
10764TIP3    H253784   0.804   2.668  14.545 -0.8578 -0.5363 -0.6253
10765TIP3   OH253785   3.622   0.917   1.746  0.4391 -0.6869  0.2801
10765TIP3    H153786   3.661   0.903   1.833  1.5123  1.1322  0.1178
10765TIP3    H253787   3.697   0.930   1.688 -0.2403 -2.7927 -1.1211
10766TIP3   OH253788   2.659   4.968  12.822  0.1166 -0.3435  0.1233
10766TIP3    H153789   2.622   4.889  12.861  0.4426 -0.6540 -0.1943
10766TIP3    H253790   2.726   4.936  12.761  1.6684  0.2366  1.4630
10767TIP3   OH253791   1.649   1.536   0.201  0.1961 -0.1363 -0.3171
10767TIP3    H153792   1.576   1.585   0.240  0.6203  0.4009 -0.1906
10767TIP3    H253793   1.639   1.447   0.236 -0.0711  0.0711  0.1415
10768TIP3   OH253794   1.913   2.463  11.897 -0.4007 -0.1175 -0.5946
10768TIP3    H153795   1.872   2.466  11.810  0.5162 -1.1453 -1.0766
10768TIP3    H253796   1.911   2.370  11.921  3.0121 -0.4471 -1.3031
10769TIP3   OH253797   1.233   6.555  10.986 -0.5050  0.3602 -0.1605
10769TIP3    H153798   1.327   6.566  10.996 -0.0434 -4.4562  1.9979
10769TIP3    H253799   1.221   6.536  10.892  1.0087 -1.3583 -0.0301
10770TIP3   OH253800   0.895   6.588   2.672  0.4660  0.6824  0.1422
10770TIP3    H153801   0.879   6.579   2.766  0.4207  1.8918  0.2649
10770TIP3    H253802   0.848   6.668   2.648  1.4884  1.0387 -0.6730
10771TIP3   OH253803   6.373   3.674  10.916  0.2732 -0.0091  0.2549
10771TIP3    H153804   6.446   3.613  10.931 -0.1821 -0.5827  0.1395
10771TIP3    H253805   6.395   3.717  10.833  1.0392  0.6359  0.7796
10772TIP3   OH253806   5.783   6.552  11.997  0.1423 -0.5778 -0.0383
10772TIP3    H153807   5.728   6.630  11.986  0.9515 -0.0577 -0.3629
10772TIP3    H253808   5.821   6.537  11.911 -0.2270 -1.5029 -0.0513
10773TIP3   OH253809   2.920   5.317  11.734 -0.0611 -0.3790  0.6242
10773TIP3    H153810   2.849   5.351  11.789 -1.0128 -3.1725  1.2046
10773TIP3    H253811   2.950   5.239  11.780  1.7125 -0.6334 -0.9253
10774TIP3   OH253812   3.831   4.893   1.611 -0.1189 -0.3392 -0.6587
10774TIP3    H153813   3.824   4.983   1.578 -0.3879 -0.0877  0.0809
10774TIP3    H253814   3.760   4.846   1.568 -0.5807  0.0279 -0.2969
10775TIP3   OH253815   0.980   6.418   0.339  0.3550 -0.0095  0.1064
10775TIP3    H153816   0.970   6.414   0.244 -1.0109 -1.0160  0.2569
10775TIP3    H253817   0.938   6.337   0.370 -1.0692  1.2992  1.6911
10776TIP3   OH253818   1.461   0.878  15.400  0.3665  0.2664  0.0117
10776TIP3    H153819   1.456   0.961  15.354  0.5374  0.4788  0.3745
10776TIP3    H253820   1.469   0.902  15.493 -1.7484 -0.1640  0.3270
10777TIP3   OH253821   4.734   3.309  15.800 -0.9216  0.6250 -0.8318
10777TIP3    H153822   4.741   3.219  15.831 -0.0026  1.4519  1.5364
10777TIP3    H253823   4.784   3.310  15.719  1.5319 -0.4134  0.5859
10778TIP3   OH253824   5.674   2.581   2.899  0.6713  0.2882  0.1172
10778TIP3    H153825   5.621   2.658   2.921 -2.2771 -2.1316  1.9522
10778TIP3    H253826   5.655   2.565   2.806  1.6346  1.9966 -0.3883
10779TIP3   OH253827   4.966   0.104   6.387  0.1710 -0.0845 -0.3940
10779TIP3    H153828   4.951   0.009   6.384 -1.5594  0.1809 -0.4501
10779TIP3    H253829   4.889   0.139   6.432 -0.1015  1.4988 -2.0446
10780TIP3   OH253830   5.505   5.780  14.921 -0.6065  0.0577  0.1936
10780TIP3    H153831   5.594   5.758  14.948 -0.0960  0.5104 -1.0913
10780TIP3    H253832   5.450   5.715  14.965  0.2735  0.3427  1.7130
10781TIP3   OH253833   4.451   4.930  14.789  0.0188  0.1303 -0.5774
10781TIP3    H153834   4.381   4.867  14.806  0.4506 -0.4876 -1.0701
10781TIP3    H253835   4.473   4.965  14.876  0.1658 -0.8067 -0.2328
10782TIP3   OH253836   0.122   2.708  11.185  0.2703 -0.4775  0.4438
10782TIP3    H153837   0.181   2.642  11.220  0.7318 -0.0679  0.4441
10782TIP3    H253838   0.159   2.792  11.214  0.3757 -0.1582 -0.5844
10783TIP3   OH253839   1.571   1.152   2.222  0.6457  0.4352  0.7339
10783TIP3    H153840   1.604   1.148   2.312 -1.9415  1.6463  1.7796
10783TIP3    H253841   1.545   1.062   2.203  1.7315  0.0594  0.9890
10784TIP3   OH253842   5.843   5.344   2.584  0.0758 -0.1311  0.1485
10784TIP3    H153843   5.777   5.411   2.563 -0.8474 -1.0434  0.1003
10784TIP3    H253844   5.849   5.347   2.679  0.9077  0.8297  0.0792
10785TIP3   OH253845   4.492   5.629  16.753  0.0598 -0.0720 -0.1685
10785TIP3    H153846   4.490   5.672  16.838 -2.9168 -1.5197  0.5439
10785TIP3    H253847   4.583   5.639  16.724  0.6304  2.2544  2.1980
10786TIP3   OH253848   4.664   0.695  16.647 -0.0778  0.2311  0.6615
10786TIP3    H153849   4.685   0.746  16.569  1.8333 -0.8842  0.4012
10786TIP3    H253850   4.670   0.757  16.719 -1.6448  1.2229 -0.0427
10787TIP3   OH253851   2.559   3.744  13.034 -0.6225 -0.8075 -0.0481
10787TIP3    H153852   2.512   3.808  13.087  0.2884  0.2229 -0.4642
10787TIP3    H253853   2.571   3.787  12.949 -0.3152 -1.6628 -0.4388
10788TIP3   OH253854   2.342   3.299   3.589  0.5382 -0.0902  0.2348
10788TIP3    H153855   2.291   3.242   3.532  0.7173  1.0142 -1.0337
10788TIP3    H253856   2.430   3.260   3.589  1.1998  1.2874 -2.2645
10789TIP3   OH253857   2.793   3.165   4.816 -0.5801  0.2419  0.1898
10789TIP3    H153858   2.782   3.255   4.786 -0.4105  0.1328 -0.2063
10789TIP3    H253859   2.766   3.112   4.741  0.4548 -0.0307  0.0058
10790TIP3   OH253860   0.811   3.283   5.328  0.6204  0.0608  0.0248
10790TIP3    H153861   0.883   3.323   5.377 -0.1306  0.3779  0.8800
10790TIP3    H253862   0.735   3.292   5.385 -0.8112  2.5817 -2.1541
10791TIP3   OH253863   3.933   6.425   3.136 -0.7800  0.4380  0.0798
10791TIP3    H153864   3.908   6.352   3.080 -0.5695  0.7698 -0.4522
10791TIP3    H253865   3.975   6.487   3.077  1.3134 -0.1145  0.9425
10792TIP3   OH253866   6.643   6.136   1.895  0.1687  0.2815  0.5371
10792TIP3    H153867   6.706   6.200   1.927 -1.0118  1.4662  0.5424
10792TIP3    H253868   6.624   6.082   1.972  1.0387  0.0197  0.5751
10793TIP3   OH253869   2.139   4.960   1.979 -0.6695  0.9867 -0.6033
10793TIP3    H153870   2.222   4.993   1.945  0.3938 -0.5376  0.4785
10793TIP3    H253871   2.126   5.008   2.061 -0.0195  0.0178  0.0681
10794TIP3   OH253872   3.801   1.108  14.087  0.0050 -0.4541  0.3719
10794TIP3    H153873   3.872   1.171  14.075 -0.3982  0.2323  1.5054
10794TIP3    H253874   3.789   1.102  14.182 -0.4068 -1.7508  0.2608
10795TIP3   OH253875   1.478   0.483  15.998  0.2829  0.6150 -0.3169
10795TIP3    H153876   1.389   0.471  15.966 -0.5789  1.4370  1.6793
10795TIP3    H253877   1.514   0.552  15.944  0.5560 -1.3496 -2.7247
10796TIP3   OH253878   4.762   5.193   0.760 -0.3333 -0.1545 -0.1772
10796TIP3    H153879   4.691   5.246   0.794 -0.6220 -0.0310 -0.9760
10796TIP3    H253880   4.778   5.227   0.672  0.9122  0.0179  0.1065
10797TIP3   OH253881   6.619   1.577  16.045  0.2110  0.0394  0.1175
10797TIP3    H153882   6.571   1.536  15.974  1.6582 -0.1232 -0.7924
10797TIP3    H253883   6.623   1.670  16.021 -0.0903  0.1397  0.4481
10798TIP3   OH253884   3.608   4.846   2.559 -0.0947  0.0743 -0.7098
10798TIP3    H153885   3.514   4.826   2.560 -0.6306  2.4080 -0.4037
10798TIP3    H253886   3.625   4.883   2.646  0.5808  1.8191 -1.5654
10799TIP3   OH253887   1.049   5.125  14.603  0.5056 -0.1985  0.1230
10799TIP3    H153888   1.026   5.088  14.689  0.1762  1.1899  0.6354
10799TIP3    H253889   1.029   5.218  14.611  1.4981  0.1237 -1.1120
10800TIP3   OH253890   6.253   2.561  15.965 -0.1278 -0.8549 -0.1666
10800TIP3    H153891   6.227   2.615  15.890 -0.1103  0.4521  0.7487
10800TIP3    H253892   6.172   2.515  15.990 -0.6063  0.1564  0.1823
10801TIP3   OH253893   3.412   4.458  14.134 -0.0667 -0.5752 -0.2387
10801TIP3    H153894   3.368   4.428  14.213  0.4473 -0.1535  0.2141
10801TIP3    H253895   3.495   4.411  14.133 -0.0535 -0.5501 -0.5092
10802TIP3   OH253896   2.116   5.827  11.293  0.7012 -1.1513 -0.1540
10802TIP3    H153897   2.171   5.842  11.217  2.4801 -2.2590  0.8963
10802TIP3    H253898   2.163   5.763  11.346 -1.0444 -1.2685  1.3297
10803TIP3   OH253899   6.031   5.940   1.315 -0.2879  0.2919 -0.0217
10803TIP3    H153900   5.978   5.939   1.235 -1.8792  1.4713  1.0031
10803TIP3    H253901   6.116   5.906   1.287 -0.8551  0.5693 -2.1943
10804TIP3   OH253902   0.649   2.061  16.679  0.5450  0.6775  1.0568
10804TIP3    H153903   0.644   2.095  16.589 -1.0624  1.4210  1.4161
10804TIP3    H253904   0.710   2.121  16.723  0.1224  1.2514  0.8691
10805TIP3   OH253905   3.199   3.031  12.573 -0.2248 -0.2297 -0.5181
10805TIP3    H153906   3.157   2.986  12.499  0.5493 -0.2595 -0.9374
10805TIP3    H253907   3.284   3.059  12.540  0.1623 -0.3084  0.3826
10806TIP3   OH253908   5.751   2.312   1.147 -0.3772  0.2324  0.0599
10806TIP3    H153909   5.831   2.355   1.117  0.3035  0.2137  1.7842
10806TIP3    H253910   5.716   2.369   1.216 -0.4753 -0.9986  1.0613
10807TIP3   OH253911   5.644   3.182  16.245 -0.2641 -0.0487 -0.0064
10807TIP3    H153912   5.688   3.111  16.198 -1.1988  0.0213 -0.9950
10807TIP3    H253913   5.700   3.198  16.321  1.1279 -0.3347 -0.9438
10808TIP3   OH253914   2.321   6.295   5.242 -0.0151 -0.1237  0.1355
10808TIP3    H153915   2.319   6.334   5.154  1.9713  0.1139  0.1792
10808TIP3    H253916   2.385   6.348   5.290 -0.3214 -0.9056  1.4307
10809TIP3   OH253917   3.637   6.380   2.951 -0.0278 -0.5905 -0.0853
10809TIP3    H153918   3.608   6.470   2.965 -1.1218 -0.8531 -0.6121
10809TIP3    H253919   3.609   6.334   3.031  3.0507  0.1130  1.4587
10810TIP3   OH253920   3.794   6.213  16.662  0.5195 -0.0795 -0.1978
10810TIP3    H153921   3.765   6.304  16.656 -0.6139 -0.3125  1.7157
10810TIP3    H253922   3.843   6.198  16.580 -0.3658  1.8469 -1.0883
10811TIP3   OH253923   6.620   3.337  14.691  0.7948 -0.4431 -0.3323
10811TIP3    H153924   6.712   3.359  14.675  1.1311 -1.1328  0.6068
10811TIP3    H253925   6.610   3.249  14.654  0.6529 -0.5806  0.0310
10812TIP3   OH253926   2.675   4.414  14.523  0.3894  0.0876 -0.2874
10812TIP3    H153927   2.755   4.362  14.527 -0.0438 -0.6665 -1.1225
10812TIP3    H253928   2.606   4.350  14.503 -0.1864  0.9455 -1.0842
10813TIP3   OH253929   3.136   6.604  11.878 -0.5070 -0.3671 -0.4891
10813TIP3    H153930   3.193   6.531  11.902  0.3866 -0.0743 -1.6604
10813TIP3    H253931   3.129   6.597  11.782 -0.9391  0.6985 -0.5364
10814TIP3   OH253932   6.458   2.212  14.962 -0.5893 -0.1209 -0.4535
10814TIP3    H153933   6.534   2.165  14.997 -0.8414 -0.5857 -0.5232
10814TIP3    H253934   6.421   2.152  14.897  0.3612  1.0618 -2.1413
10815TIP3   OH253935   0.094   4.588  15.629 -0.2636 -0.0214  0.3831
10815TIP3    H153936   0.012   4.578  15.581  0.6395 -0.1756 -1.1625
10815TIP3    H253937   0.159   4.609  15.562  0.3524  3.5091  1.9316
10816TIP3   OH253938   6.080   0.630  11.385  0.2334  0.0984 -0.1025
10816TIP3    H153939   5.991   0.594  11.378 -0.6081  2.0219  0.5943
10816TIP3    H253940   6.137   0.553  11.379 -1.4489 -1.1127 -1.0332
10817TIP3   OH253941   5.475   3.165   3.138  0.5658 -0.3534 -0.1757
10817TIP3    H153942   5.408   3.188   3.074  0.7302  0.3846 -0.0785
10817TIP3    H253943   5.556   3.200   3.101  1.0568 -1.9828 -0.7192
10818TIP3   OH253944   3.248   6.118  16.364  0.0014 -0.5436 -0.2861
10818TIP3    H153945   3.305   6.098  16.290  0.2167  0.5009 -0.4136
10818TIP3    H253946   3.160   6.104  16.331  0.0159  1.4489 -1.2369
10819TIP3   OH253947   2.014   6.663   3.207 -0.1562  0.4175 -0.2841
10819TIP3    H153948   1.991   6.623   3.123  1.2284  1.2417 -1.0625
10819TIP3    H253949   1.955   6.739   3.214 -0.2589  0.3593 -0.5269
10820TIP3   OH253950   1.613   0.966  14.714  0.1298 -0.0420 -0.0717
10820TIP3    H153951   1.606   1.057  14.684  2.8828  0.0573 -0.5154
10820TIP3    H253952   1.704   0.942  14.697 -0.0106 -2.2097  1.9915
10821TIP3   OH253953   0.010   2.637  14.081 -0.1207 -0.1137 -0.2832
10821TIP3    H153954   0.020   2.663  13.990 -0.2930 -1.0497 -0.5713
10821TIP3    H253955   0.093   2.594  14.103  0.0765  0.4620  0.1280
10822TIP3   OH253956   2.051   6.391  17.169  0.5322  0.2452 -0.1369
10822TIP3    H153957   2.001   6.472  17.172 -1.1096 -0.7877  4.3601
10822TIP3    H253958   1.995   6.329  17.123 -0.1957  0.4640  0.4473
10823TIP3   OH253959   5.870   3.666  15.855 -0.4607  0.4958 -0.2596
10823TIP3    H153960   5.953   3.620  15.841 -0.5463 -0.2454  1.4871
10823TIP3    H253961   5.892   3.738  15.914 -1.2130 -0.3493  1.1001
10824TIP3   OH253962   5.539   5.466  16.282 -0.9242  0.0732 -0.0569
10824TIP3    H153963   5.459   5.466  16.230 -1.0816  3.0634  0.1032
10824TIP3    H253964   5.609   5.451  16.219 -1.3016  1.4887 -0.8247
10825TIP3   OH253965   6.800   2.823   0.952 -0.2655 -0.0120 -0.2658
10825TIP3    H153966   6.797   2.864   0.865 -0.7148 -0.2086 -0.3429
10825TIP3    H253967   6.829   2.734   0.935  0.2111  0.1168 -0.1493
10826TIP3   OH253968   1.745   1.571  15.094  0.0051  0.0679  0.2402
10826TIP3    H153969   1.777   1.620  15.169  2.5106 -0.6204 -0.3199
10826TIP3    H253970   1.714   1.488  15.130 -2.0666  1.1110  0.9056
10827TIP3   OH253971   2.266   6.555  13.378 -0.3836 -0.3737  0.2709
10827TIP3    H153972   2.274   6.622  13.310 -0.6543 -0.3501  0.2640
10827TIP3    H253973   2.219   6.483  13.335 -0.0814 -0.5758  0.2718
10828TIP3   OH253974   3.441   1.564  12.370 -0.1764  0.6135  0.5003
10828TIP3    H153975   3.421   1.483  12.322 -2.4495  1.3855  0.1036
10828TIP3    H253976   3.438   1.538  12.463  0.2174  0.0049  0.3444
10829TIP3   OH253977   0.351   6.407  12.538 -0.4883  0.7438 -0.3125
10829TIP3    H153978   0.438   6.447  12.528 -1.1214  2.5763  1.0715
10829TIP3    H253979   0.341   6.350  12.462  1.7873  0.7744 -0.6543
10830TIP3   OH253980   1.072   5.687  11.456 -0.6481  0.6559  0.3476
10830TIP3    H153981   1.002   5.675  11.520  0.1535 -0.8375  0.9643
10830TIP3    H253982   1.106   5.774  11.475  0.1271 -0.0858  2.5299
10831TIP3   OH253983   0.304   2.754   1.940  0.0403 -0.1671  0.3432
10831TIP3    H153984   0.291   2.660   1.952  2.2386 -0.6478 -0.7770
10831TIP3    H253985   0.258   2.794   2.014 -0.6540 -2.1326  1.0065
10832TIP3   OH253986   0.633   1.096   5.974 -0.1265  0.3149 -0.2229
10832TIP3    H153987   0.613   1.112   6.066 -0.6855  0.8726 -0.4387
10832TIP3    H253988   0.699   1.027   5.976 -0.0596  0.3933  0.5995
10833TIP3   OH253989   4.781   2.738  11.100 -0.5755 -0.2945 -0.2713
10833TIP3    H153990   4.714   2.687  11.145 -0.7930 -0.0469 -0.3147
10833TIP3    H253991   4.744   2.757  11.014  0.3450 -1.8388 -1.0368
10834TIP3   OH253992   3.664   3.843  12.752 -0.0946 -0.0764 -0.2460
10834TIP3    H153993   3.577   3.815  12.724 -0.3025 -0.9991  1.2450
10834TIP3    H253994   3.658   3.938  12.759 -0.4063  0.0484 -2.0064
10835TIP3   OH253995   4.215   6.733   2.576  0.2043 -0.2033 -0.0030
10835TIP3    H153996   4.129   6.690   2.580 -0.1714  0.5311 -0.2004
10835TIP3    H253997   4.270   6.679   2.633 -0.6503 -0.0812  0.9595
10836TIP3   OH253998   0.245   5.234   0.013  0.0232  0.3479  0.1800
10836TIP3    H153999   0.186   5.298  -0.026  0.5157 -0.3940 -1.8610
10836TIP3    H254000   0.188   5.174   0.060 -1.0268 -1.0439 -2.7576
10837TIP3   OH254001   6.366   1.631  11.172 -0.2726 -0.3601  0.2583
10837TIP3    H154002   6.326   1.580  11.101  0.8969 -4.2411  2.2215
10837TIP3    H254003   6.437   1.680  11.129 -1.3825 -0.4264 -1.6978
10838TIP3   OH254004   5.807   2.355   2.163  0.4438 -0.2702 -0.4544
10838TIP3    H154005   5.722   2.364   2.121  0.1955 -2.2284 -0.4152
10838TIP3    H254006   5.824   2.441   2.202 -1.3660  0.2236 -0.7181
10839TIP3   OH254007   6.063   4.794  13.807  0.3534  0.1878  0.0653
10839TIP3    H154008   6.078   4.817  13.899  0.7969 -0.5925  0.1939
10839TIP3    H254009   6.120   4.719  13.792 -0.8228 -0.6230 -0.4353
10840TIP3   OH254010   4.039   4.223   1.541  0.3480  0.1562 -0.0630
10840TIP3    H154011   4.006   4.162   1.474  1.3937 -0.9377  0.4097
10840TIP3    H254012   3.962   4.273   1.567 -0.2311  0.0550 -1.5300
10841TIP3   OH254013   2.823   3.618  16.598 -0.5632  0.7794  0.2330
10841TIP3    H154014   2.885   3.634  16.669 -0.6216  0.8027  0.2798
10841TIP3    H254015   2.854   3.673  16.526 -0.1202  0.2450  0.0173
10842TIP3   OH254016   5.570   6.045  16.780 -0.2518 -0.1627  0.0094
10842TIP3    H154017   5.545   5.962  16.738 -1.8783  0.1989  0.2129
10842TIP3    H254018   5.527   6.042  16.866 -3.1155  2.2851 -1.2251
10843TIP3   OH254019   0.902   0.576  12.796 -0.6986  0.7145 -0.3412
10843TIP3    H154020   0.985   0.557  12.752 -0.6392  0.9047 -0.3120
10843TIP3    H254021   0.862   0.490  12.810 -1.0730  0.6911 -1.4595
10844TIP3   OH254022   0.387   4.423  14.754 -0.4233  0.0335 -1.1403
10844TIP3    H154023   0.462   4.453  14.805 -1.1290  0.4552 -0.3163
10844TIP3    H254024   0.403   4.456  14.666  0.1057  0.5865 -0.8473
10845TIP3   OH254025   3.701   6.724  13.431  0.5991 -0.5920 -0.6708
10845TIP3    H154026   3.696   6.676  13.348  1.1757 -0.3798 -0.8329
10845TIP3    H254027   3.788   6.764  13.430 -0.1023  0.9434 -0.8003
10846TIP3   OH254028   6.341   4.454   6.390 -0.2410 -0.2714  0.0526
10846TIP3    H154029   6.355   4.487   6.479 -0.1816 -1.1428  0.3670
10846TIP3    H254030   6.305   4.366   6.402 -2.8338  0.6275 -0.7820
10847TIP3   OH254031   5.544   3.138   0.049 -0.2683  0.0972  0.2502
10847TIP3    H154032   5.505   3.068   0.102  0.1648 -0.0288  0.4124
10847TIP3    H254033   5.505   3.128  -0.037 -2.0430  1.1827  0.9039
10848TIP3   OH254034   0.876   3.599   3.959  0.1661  0.3391 -0.1271
10848TIP3    H154035   0.934   3.542   4.010  0.3097  1.6808  1.2781
10848TIP3    H254036   0.793   3.551   3.955  0.2878  0.0047  1.0203
10849TIP3   OH254037   6.349   4.860   6.216 -0.3929 -0.2605  0.1642
10849TIP3    H154038   6.394   4.942   6.197 -1.2638 -0.2476 -1.9670
10849TIP3    H254039   6.294   4.879   6.291 -3.4077  2.2217 -2.5237
10850TIP3   OH254040   4.586   1.364  12.269  0.8377  0.2885 -0.0573
10850TIP3    H154041   4.495   1.392  12.279  1.1004  0.4748  2.0176
10850TIP3    H254042   4.582   1.291  12.207 -0.4064  1.8673 -1.9116
10851TIP3   OH254043   3.376   4.592  13.755 -0.2599  0.0601 -0.2786
10851TIP3    H154044   3.422   4.600  13.671 -1.2364 -1.7403 -0.9967
10851TIP3    H254045   3.333   4.677  13.766  1.5917  1.0747 -0.5401
10852TIP3   OH254046   6.287   6.435   1.183 -0.1479  0.1882  0.6097
10852TIP3    H154047   6.333   6.504   1.135  0.6566 -2.6133 -2.8485
10852TIP3    H254048   6.356   6.386   1.227 -0.2843 -0.7986 -0.2467
10853TIP3   OH254049   4.447   1.559   6.696  0.1211 -0.3289  0.1587
10853TIP3    H154050   4.511   1.523   6.635  0.5041  1.7373 -0.7008
10853TIP3    H254051   4.473   1.523   6.781  1.0759 -1.2842 -0.5259
10854TIP3   OH254052   1.254   1.767  11.064 -0.2707  0.0901 -0.1046
10854TIP3    H154053   1.172   1.813  11.081 -0.2979  0.6767 -1.7372
10854TIP3    H254054   1.322   1.830  11.086 -0.2942  0.3494 -0.7471
10855TIP3   OH254055   6.785   5.489   0.746 -0.3665  0.4612  0.5027
10855TIP3    H154056   6.714   5.491   0.809 -0.0274 -0.2231  0.9135
10855TIP3    H254057   6.762   5.418   0.686  0.1820 -0.0605  0.9006
10856TIP3   OH254058   1.430   2.314  12.507  0.6289  0.4091 -0.7768
10856TIP3    H154059   1.359   2.356  12.556  1.0484 -1.1046  1.2146
10856TIP3    H254060   1.506   2.370  12.524  0.4876  0.6066 -0.7832
10857TIP3   OH254061   3.553   4.457   4.354 -0.7881  0.2795  0.7799
10857TIP3    H154062   3.466   4.459   4.393 -1.3187 -1.4100 -0.2546
10857TIP3    H254063   3.537   4.460   4.260  0.1816 -1.5501  0.5364
10858TIP3   OH254064   3.192   1.647  16.085  0.1420  0.0470  0.0504
10858TIP3    H154065   3.278   1.680  16.060  0.4662 -0.3914  0.5812
10858TIP3    H254066   3.184   1.671  16.178 -0.8254  1.2002 -0.3145
10859TIP3   OH254067   1.151   5.753  12.310 -0.0913  0.4146  0.0355
10859TIP3    H154068   1.155   5.658  12.298 -1.2884  0.5506 -1.6137
10859TIP3    H254069   1.057   5.773  12.316  0.1877  1.3416  1.7970
10860TIP3   OH254070   6.723   5.406  11.596  0.3944  0.2229 -0.0185
10860TIP3    H154071   6.695   5.320  11.629  0.5706  0.1159 -0.1495
10860TIP3    H254072   6.647   5.438  11.546 -0.0912  0.6424  0.9642
10861TIP3   OH254073   4.273   5.497  15.331 -0.4421 -0.3751 -0.1280
10861TIP3    H154074   4.270   5.465  15.421  0.7261 -1.7032 -0.5482
10861TIP3    H254075   4.213   5.440  15.283 -0.3530 -0.2628 -0.3747
10862TIP3   OH254076   3.426   3.950   1.760  0.2307  0.3397  0.5141
10862TIP3    H154077   3.417   4.043   1.743 -1.2835 -0.0510 -0.9078
10862TIP3    H254078   3.518   3.931   1.741  0.3332  1.3656 -0.0591
10863TIP3   OH254079   4.703   5.483  15.834 -0.7227  0.1141 -0.0391
10863TIP3    H154080   4.659   5.399  15.852 -0.6062 -0.1910 -1.1041
10863TIP3    H254081   4.766   5.493  15.905 -0.7774 -0.6815  0.1274
10864TIP3   OH254082   2.642   4.156   5.265 -0.1286 -0.0375  0.2599
10864TIP3    H154083   2.664   4.078   5.213  0.2598  0.3616 -0.1907
10864TIP3    H254084   2.650   4.128   5.356  0.7800 -0.3194  0.0996
10865TIP3   OH254085   1.001   1.584   5.225  0.1700  0.5317 -0.1868
10865TIP3    H154086   1.081   1.633   5.205 -0.8142  1.6120 -1.6340
10865TIP3    H254087   1.021   1.535   5.304  2.1585  1.0444 -0.3596
10866TIP3   OH254088   6.246   5.841   0.744 -0.0412 -0.4382 -0.6573
10866TIP3    H154089   6.178   5.804   0.688 -0.5284  1.7320 -1.5521
10866TIP3    H254090   6.324   5.788   0.724 -1.0679 -1.9383 -0.7690
10867TIP3   OH254091   6.006   3.879   4.553  0.2373 -0.4269  0.0036
10867TIP3    H154092   6.087   3.831   4.539  1.6402  1.7159  0.5378
10867TIP3    H254093   5.956   3.824   4.614  1.2492 -1.7682 -0.3416
10868TIP3   OH254094   2.299   0.274   6.557 -0.4745 -0.3479 -0.2631
10868TIP3    H154095   2.292   0.188   6.599 -0.1992 -0.2416 -0.0027
10868TIP3    H254096   2.230   0.326   6.598 -0.5169 -0.3858 -0.2855
10869TIP3   OH254097   0.013   3.415   0.003  0.0300 -0.3405  0.2505
10869TIP3    H154098  -0.040   3.463  -0.061 -0.0056 -0.6739  0.0305
10869TIP3    H254099  -0.015   3.324  -0.005  0.2292 -0.4281  0.5368
10870TIP3   OH254100   5.825   5.790   0.212  0.1179  0.4968  0.1165
10870TIP3    H154101   5.736   5.801   0.245 -0.8324  1.2783 -2.5598
10870TIP3    H254102   5.857   5.880   0.200  1.2775  0.2238  1.0119
10871TIP3   OH254103   5.357   6.746   0.766  0.5228  0.0166 -0.3187
10871TIP3    H154104   5.389   6.670   0.717  0.6844  0.3243 -0.7016
10871TIP3    H254105   5.434   6.803   0.773  0.2748  0.3678 -0.4751
10872TIP3   OH254106   3.259   4.428   3.699  0.3089  0.5279  0.4196
10872TIP3    H154107   3.343   4.474   3.707  0.6839 -0.3355  1.6188
10872TIP3    H254108   3.282   4.335   3.708 -0.7177  0.2518  0.2518
10873TIP3   OH254109   1.825   1.617  15.656  0.0813  0.1804  0.4267
10873TIP3    H154110   1.915   1.584  15.646  1.0573  1.9005  3.0833
10873TIP3    H254111   1.787   1.560  15.723 -1.2044 -1.2104 -1.4328
10874TIP3   OH254112   1.229   0.370  14.725  0.2343 -0.3028 -0.4240
10874TIP3    H154113   1.222   0.316  14.804 -1.7334 -1.2501 -1.2197
10874TIP3    H254114   1.288   0.441  14.750  0.9460 -1.4958  1.3908
10875TIP3   OH254115   1.825   6.803   0.519 -0.1564  0.5563 -0.9872
10875TIP3    H154116   1.834   6.894   0.488  0.7173  1.0795  0.7492
10875TIP3    H254117   1.902   6.758   0.484  0.2401  0.8711 -0.5208
10876TIP3   OH254118   0.241   3.178   4.705  0.2808 -0.4674 -0.4808
10876TIP3    H154119   0.262   3.190   4.613 -0.7467  0.5440 -0.5852
10876TIP3    H254120   0.178   3.106   4.707  3.0182 -2.9353 -0.2390
10877TIP3   OH254121   2.834   2.716  15.349  0.1275 -0.5488 -0.0193
10877TIP3    H154122   2.799   2.646  15.295  0.5716 -1.0037  0.2780
10877TIP3    H254123   2.844   2.790  15.289  2.4387 -1.6201 -1.0401
10878TIP3   OH254124   1.821   0.092   0.939 -0.2070  0.0907  0.3587
10878TIP3    H154125   1.828  -0.003   0.950  0.9645  0.2501  0.9892
10878TIP3    H254126   1.824   0.127   1.028  1.4178  0.8609  0.0085
10879TIP3   OH254127   6.042   3.771  13.074 -0.0169  0.0524 -0.1338
10879TIP3    H154128   5.993   3.843  13.113 -1.9402 -1.0600 -0.3940
10879TIP3    H254129   6.045   3.792  12.981 -2.9850 -1.4512 -0.6614
10880TIP3   OH254130   6.076   4.673   0.133  0.2167  0.2994  0.3625
10880TIP3    H154131   6.137   4.696   0.062  1.3593  1.0133  1.5620
10880TIP3    H254132   6.120   4.601   0.178 -0.2797  0.1848  0.6551
10881TIP3   OH254133   5.763   1.290   0.180  0.1412  0.1888  0.1762
10881TIP3    H154134   5.707   1.227   0.225 -1.3162  0.9979 -0.4693
10881TIP3    H254135   5.756   1.370   0.231  0.3686  0.4217 -0.1521
10882TIP3   OH254136   2.374   1.843   0.801  0.4085 -0.7070  0.0867
10882TIP3    H154137   2.446   1.824   0.741  1.0608  0.4634  0.4936
10882TIP3    H254138   2.406   1.815   0.887 -0.0340 -1.1929  0.0915
10883TIP3   OH254139   3.252   3.014   0.010 -0.2503  0.0054  0.0333
10883TIP3    H154140   3.214   3.013  -0.078  0.6241  0.7636 -0.3592
10883TIP3    H254141   3.341   2.981  -0.001  0.6392  2.2239  0.2348
10884TIP3   OH254142   3.700   3.592   0.519  0.1590  0.5567 -0.3344
10884TIP3    H154143   3.766   3.543   0.470  0.0431 -0.6021  0.6373
10884TIP3    H254144   3.629   3.530   0.534 -0.2869  1.2143  0.3362
10885TIP3   OH254145   5.396   1.500  16.382  0.1367 -0.0892 -0.0500
10885TIP3    H154146   5.316   1.449  16.395 -0.1722 -0.5014 -3.1795
10885TIP3    H254147   5.450   1.447  16.323  1.0584  1.8712 -1.0367
10886TIP3   OH254148   4.096   5.224   5.369  0.5130 -0.5085  0.5122
10886TIP3    H154149   4.120   5.316   5.365  0.2505 -0.4189  0.9486
10886TIP3    H254150   4.097   5.203   5.463  1.0855 -1.0822  0.3761
10887TIP3   OH254151   6.691   1.064   5.575  0.0523 -0.3750 -0.3160
10887TIP3    H154152   6.659   0.994   5.631  0.9388 -0.9172 -0.4844
10887TIP3    H254153   6.675   1.144   5.625  3.4822 -1.0405  1.9874
10888TIP3   OH254154   0.238   1.641  12.688  0.1540  0.4472  0.2664
10888TIP3    H154155   0.238   1.641  12.593 -1.0714  0.9808  0.2546
10888TIP3    H254156   0.261   1.551  12.713 -0.0530  0.1714 -0.5393
10889TIP3   OH254157   4.475   3.863  12.765 -0.4096  0.4179  0.0120
10889TIP3    H154158   4.523   3.936  12.727 -0.7839  0.3721 -0.5582
10889TIP3    H254159   4.537   3.822  12.825  0.2923  0.2999 -0.7903
10890TIP3   OH254160   6.032   6.236  12.775 -0.3787 -0.0945  0.4941
10890TIP3    H154161   5.957   6.193  12.815  0.4504 -1.3426  0.7115
10890TIP3    H254162   6.031   6.207  12.684  0.1308 -0.4942  0.6177
10891TIP3   OH254163   6.316   5.959  13.390  0.1345  0.9278 -0.5985
10891TIP3    H154164   6.272   5.896  13.447 -0.4039  2.0511  0.2448
10891TIP3    H254165   6.268   5.953  13.307 -0.6918  1.1088 -0.1372
10892TIP3   OH254166   1.667   0.955  12.313  0.6584  0.0437 -0.3931
10892TIP3    H154167   1.759   0.965  12.338  1.1040  1.2318 -2.3868
10892TIP3    H254168   1.644   1.039  12.272 -1.1206 -0.4692 -0.4954
10893TIP3   OH254169   3.868   1.371   4.765 -0.1937 -0.7864  0.2363
10893TIP3    H154170   3.845   1.420   4.844  0.6381 -1.4350  0.8776
10893TIP3    H254171   3.903   1.438   4.705  1.0855 -0.6097  1.1636
10894TIP3   OH254172   4.617   1.069  12.439 -0.0137 -0.3897  0.1665
10894TIP3    H154173   4.693   1.045  12.386 -0.8931 -0.8281 -0.9224
10894TIP3    H254174   4.557   0.995  12.429 -2.0134  1.4411 -1.7753
10895TIP3   OH254175   6.606   5.947  15.481  0.0658  0.3163  0.2971
10895TIP3    H154176   6.532   5.887  15.475 -0.5560  1.0191  0.9854
10895TIP3    H254177   6.626   5.951  15.574 -0.5928  2.0500  0.3665
10896TIP3   OH254178   0.241   0.743   2.825  0.0780 -0.2689  0.0148
10896TIP3    H154179   0.147   0.749   2.808  0.4680  1.8113 -1.6366
10896TIP3    H254180   0.254   0.654   2.856 -2.0605 -1.4629 -2.3170
10897TIP3   OH254181   2.423   3.414  12.143 -0.0185 -0.5324  0.0791
10897TIP3    H154182   2.433   3.336  12.199 -2.3132  0.1023  1.4733
10897TIP3    H254183   2.509   3.427  12.105  1.6141 -1.1387  3.3336
10898TIP3   OH254184   4.581   4.542  16.794  0.4230 -0.7466 -0.4203
10898TIP3    H154185   4.674   4.548  16.815 -0.0795 -0.8699  1.9714
10898TIP3    H254186   4.558   4.628  16.761  1.3743 -0.6970 -0.9580
10899TIP3   OH254187   1.484   1.461   5.874 -0.9037 -0.1071 -0.1512
10899TIP3    H154188   1.439   1.528   5.822  0.4492  1.5115  0.7265
10899TIP3    H254189   1.498   1.503   5.959  0.2372 -1.4105  0.3146
10900TIP3   OH254190   0.840   4.430  12.782 -0.0331  0.0074  0.2246
10900TIP3    H154191   0.917   4.487  12.787  0.0804 -0.1170 -0.1028
10900TIP3    H254192   0.876   4.343  12.764 -0.3675  0.2673 -1.8099
10901TIP3   OH254193   2.431   2.388  12.725 -0.3566 -0.6434 -0.2323
10901TIP3    H154194   2.337   2.390  12.704 -0.6791 -1.6645  1.0418
10901TIP3    H254195   2.470   2.339  12.653 -0.6896  0.4725 -1.1791
10902TIP3   OH254196   3.153   1.953   3.267  0.1981 -0.0005 -0.2414
10902TIP3    H154197   3.241   1.916   3.264  1.5663  3.0635 -0.0795
10902TIP3    H254198   3.139   1.988   3.179 -0.1579  1.0114  0.2126
10903TIP3   OH254199   1.462   2.401  16.170  0.0939 -0.1303  0.1297
10903TIP3    H154200   1.407   2.336  16.128  0.2222  0.7366 -1.4237
10903TIP3    H254201   1.494   2.456  16.098 -0.1169  1.7262  1.4037
10904TIP3   OH254202   5.343   6.410   3.080 -0.1224 -0.0442 -1.0909
10904TIP3    H154203   5.395   6.490   3.079 -1.0656  0.5865 -0.8233
10904TIP3    H254204   5.398   6.344   3.038  1.5459  0.1839  0.6492
10905TIP3   OH254205   4.416   0.180   3.083 -0.0759  0.3865 -0.0879
10905TIP3    H154206   4.390   0.133   3.004  5.1458 -1.9228 -0.5930
10905TIP3    H254207   4.436   0.111   3.146 -1.0559  2.1703  2.2562
10906TIP3   OH254208   3.443   0.763  14.297 -0.5762  0.2953  0.2770
10906TIP3    H154209   3.434   0.832  14.231  2.2769  0.1576 -0.2949
10906TIP3    H254210   3.488   0.805  14.370 -1.0750 -0.3324  0.9537
10907TIP3   OH254211   0.537   2.971   3.747 -0.2882  0.2170  0.2296
10907TIP3    H154212   0.445   2.945   3.757 -0.6362  0.1323 -2.8104
10907TIP3    H254213   0.582   2.889   3.724  0.2120  0.6135 -0.1997
10908TIP3   OH254214   0.101   6.546   0.367 -0.0694 -0.3233  0.4263
10908TIP3    H154215   0.112   6.474   0.305  1.3446  0.4375 -0.2305
10908TIP3    H254216   0.109   6.506   0.453  2.6037 -0.6835  0.0408
10909TIP3   OH254217   3.127   2.199   0.874  0.3910 -0.3639 -0.2745
10909TIP3    H154218   3.078   2.166   0.949 -1.6600  2.2683 -0.4138
10909TIP3    H254219   3.133   2.124   0.814 -0.2700 -1.7291  1.3511
10910TIP3   OH254220   1.213   2.944  13.893 -0.0270  0.6945 -0.4886
10910TIP3    H154221   1.216   2.849  13.887 -2.6355  0.5661 -0.3008
10910TIP3    H254222   1.210   2.962  13.987  1.7580  1.0523 -0.4749
10911TIP3   OH254223   5.116   0.084  15.280 -0.5690 -0.0626 -0.0308
10911TIP3    H154224   5.172   0.159  15.260  0.8993 -0.9503  0.7612
10911TIP3    H254225   5.035   0.124  15.312 -0.6559  1.2339 -1.7642
10912TIP3   OH254226   2.761   4.354   3.928 -0.1303 -0.4836 -0.1877
10912TIP3    H154227   2.779   4.269   3.968  0.0644  0.4770  1.8150
10912TIP3    H254228   2.833   4.410   3.956 -0.4797  0.4579 -1.1397
10913TIP3   OH254229   3.546   6.351  15.351 -0.1826 -0.0806  0.1570
10913TIP3    H154230   3.528   6.262  15.380 -1.9994  1.1299  2.8956
10913TIP3    H254231   3.471   6.374  15.296 -0.8725  0.5483  1.3418
10914TIP3   OH254232   4.433   1.175   6.714  0.0303 -0.0058  0.0859
10914TIP3    H154233   4.459   1.104   6.655  0.9397  0.1273  0.3253
10914TIP3    H254234   4.441   1.254   6.661  1.6952  0.2070  0.6432
10915TIP3   OH254235   5.789   1.541  13.998 -0.3565 -0.0390  0.5326
10915TIP3    H154236   5.768   1.575  13.911  0.3798 -1.8312 -0.3705
10915TIP3    H254237   5.850   1.605  14.035 -1.5031  1.2914  0.1844
10916TIP3   OH254238   4.355   3.187  12.321 -0.6782 -0.4770 -0.8755
10916TIP3    H154239   4.407   3.176  12.401 -0.9626  0.9249 -0.4834
10916TIP3    H254240   4.346   3.282  12.311 -0.0988 -0.6066 -2.9345
10917TIP3   OH254241   4.199   1.988   4.078 -0.8274 -0.3240 -0.5166
10917TIP3    H154242   4.122   1.934   4.061 -0.2921 -1.1170 -0.4110
10917TIP3    H254243   4.219   1.973   4.170 -0.7841  0.2032 -0.4347
10918TIP3   OH254244   5.482   1.633   3.864 -0.2582  0.5120 -0.1544
10918TIP3    H154245   5.456   1.546   3.894 -2.8870  1.1953 -0.3086
10918TIP3    H254246   5.541   1.665   3.932 -0.5115 -0.7710  0.6851
10919TIP3   OH254247   6.786   6.050   1.058 -0.5165  0.1686  0.1564
10919TIP3    H154248   6.854   5.990   1.029  1.1111  1.6287  0.8657
10919TIP3    H254249   6.746   6.083   0.977  0.0880 -0.1672 -0.2758
10920TIP3   OH254250   1.763   0.528  16.320 -0.1627  0.6530  0.7394
10920TIP3    H154251   1.830   0.566  16.377 -0.2460  0.7233  0.7899
10920TIP3    H254252   1.732   0.601  16.267  0.7358  0.3510 -0.2157
10921TIP3   OH254253   2.184   3.272  15.048  0.4251  0.7066 -0.0142
10921TIP3    H154254   2.168   3.308  14.961 -1.4860  1.4786  0.6442
10921TIP3    H254255   2.161   3.343  15.108  1.2292  0.0019  1.1580
10922TIP3   OH254256   0.670   2.744   3.695  0.4243 -0.8087  0.3622
10922TIP3    H154257   0.753   2.755   3.742  1.6863 -1.4784 -1.6123
10922TIP3    H254258   0.657   2.649   3.690  0.4502 -0.7680 -0.8059
10923TIP3   OH254259   6.419   2.168  14.668 -0.7557 -0.1520  0.4389
10923TIP3    H154260   6.439   2.080  14.700  0.9749  0.7434  1.9024
10923TIP3    H254261   6.323   2.170  14.661 -0.8382 -2.0043  0.7786
10924TIP3   OH254262   0.452   1.089   1.862  0.7645 -0.3221 -0.4959
10924TIP3    H154263   0.424   0.998   1.877 -0.1795  0.2009  1.0317
10924TIP3    H254264   0.515   1.106   1.933 -2.1142  1.4948  1.7318
10925TIP3   OH254265   2.863   5.509   1.738  0.5752 -0.7355  0.0659
10925TIP3    H154266   2.867   5.423   1.697 -1.4567 -1.0301  0.4692
10925TIP3    H254267   2.847   5.569   1.666  1.4114 -0.7466 -0.1373
10926TIP3   OH254268   2.976   2.435  10.880  0.2890  0.3362 -0.1289
10926TIP3    H154269   2.982   2.363  10.817  1.5569 -0.4227  0.8460
10926TIP3    H254270   2.909   2.493  10.843 -1.5368 -1.8762 -0.3593
10927TIP3   OH254271   2.795   4.515  16.375 -0.0208  0.3251  0.3580
10927TIP3    H154272   2.879   4.535  16.418 -0.3658  0.3463  1.0317
10927TIP3    H254273   2.755   4.450  16.432 -0.0150 -0.4280 -0.5029
10928TIP3   OH254274   2.043   4.165  11.695  0.1474  0.2176 -0.9879
10928TIP3    H154275   2.053   4.169  11.600  1.7264  2.8654 -0.7697
10928TIP3    H254276   2.105   4.097  11.723  0.0448 -0.2130 -1.7868
10929TIP3   OH254277   1.288   2.485  13.627  0.4697  0.0514 -0.1346
10929TIP3    H154278   1.223   2.487  13.557 -1.7804 -0.4651  1.8760
10929TIP3    H254279   1.237   2.481  13.708  2.9949  0.6169  1.5663
10930TIP3   OH254280   5.863   6.548  12.653 -0.1335  0.3361  0.6970
10930TIP3    H154281   5.943   6.514  12.692  0.3976 -2.9080 -2.9161
10930TIP3    H254282   5.793   6.496  12.693 -0.1580  0.9361  1.4508
10931TIP3   OH254283   1.425   2.523  15.485 -0.7717 -0.0729  0.5173
10931TIP3    H154284   1.422   2.429  15.506 -1.7028 -0.1575  0.0257
10931TIP3    H254285   1.506   2.533  15.435 -1.1228 -0.7753 -0.2042
10932TIP3   OH254286   0.528   2.141   6.136  0.4868 -0.4573  0.4637
10932TIP3    H154287   0.499   2.102   6.219  0.6179 -1.8814 -0.1371
10932TIP3    H254288   0.621   2.157   6.148  0.1888  0.7797  1.1374
10933TIP3   OH254289   3.862   6.059   3.592  0.1263 -0.1987  0.8148
10933TIP3    H154290   3.911   6.063   3.674  0.5763  0.7370  0.5069
10933TIP3    H254291   3.924   6.021   3.529 -0.0720 -0.4985  0.7964
10934TIP3   OH254292   2.189   2.752   0.174 -0.3536 -0.2680 -0.1012
10934TIP3    H154293   2.212   2.660   0.163  1.3636  0.1248 -0.0474
10934TIP3    H254294   2.198   2.768   0.268  0.7811  0.2960 -0.2934
10935TIP3   OH254295   0.477   2.246   2.570  0.3979  0.1619  0.7861
10935TIP3    H154296   0.467   2.154   2.544  1.1392 -0.4430  2.5520
10935TIP3    H254297   0.418   2.256   2.645  1.6707  0.6282  1.7459
10936TIP3   OH254298   4.010   1.099   5.888 -0.6214 -0.4182 -0.3180
10936TIP3    H154299   3.916   1.103   5.873 -0.9581 -0.5663  1.6166
10936TIP3    H254300   4.045   1.174   5.839 -1.5828 -1.0058 -1.9555
10937TIP3   OH254301   6.148   0.941  16.242  0.0418  1.2884 -0.5953
10937TIP3    H154302   6.244   0.946  16.248  0.2028  0.4918 -2.4178
10937TIP3    H254303   6.131   0.885  16.166 -1.8853  2.1424 -0.8204
10938TIP3   OH254304   6.407   4.513  12.498  0.0786 -0.3071  0.7030
10938TIP3    H154305   6.419   4.607  12.509  2.8370 -0.5171 -0.1497
10938TIP3    H254306   6.360   4.505  12.415  1.0665  0.2788  0.0778
10939TIP3   OH254307   6.172   4.559  13.719  0.3831 -0.1097  0.9654
10939TIP3    H154308   6.135   4.549  13.632 -2.7256  0.1175  2.2019
10939TIP3    H254309   6.169   4.472  13.758  0.6132  0.0171  1.2773
10940TIP3   OH254310   6.151   4.690  15.355  0.2779 -0.7058 -0.0088
10940TIP3    H154311   6.170   4.710  15.263 -0.2156 -0.5307 -0.0747
10940TIP3    H254312   6.211   4.619  15.377 -0.2697 -1.4028 -0.7490
10941TIP3   OH254313   2.047   0.152  13.562 -0.1201 -0.1215  0.0848
10941TIP3    H154314   2.016   0.242  13.576 -1.5972 -0.8208  1.4429
10941TIP3    H254315   2.092   0.155  13.477 -2.4385  1.3178 -1.1294
10942TIP3   OH254316   1.727   2.224  16.993  0.7659  0.0706  0.6784
10942TIP3    H154317   1.725   2.236  17.088 -1.6223  3.3790  0.3280
10942TIP3    H254318   1.657   2.161  16.976  0.0281  0.8001  0.9805
10943TIP3   OH254319   6.221   3.547   5.332  0.3331  0.0447  0.0863
10943TIP3    H154320   6.212   3.540   5.237  1.8391  1.8401 -0.2175
10943TIP3    H254321   6.258   3.463   5.359  3.0365  0.7122 -1.3546
10944TIP3   OH254322   1.360   6.665  16.971 -0.3440  0.2627  1.1750
10944TIP3    H154323   1.379   6.757  16.954 -1.7961  0.5575  1.0996
10944TIP3    H254324   1.343   6.661  17.065 -1.4113  0.2852  0.9920
10945TIP3   OH254325   6.374   6.642  11.815 -0.2309  0.0673  0.0936
10945TIP3    H154326   6.427   6.562  11.816 -2.3549 -1.3553  0.6637
10945TIP3    H254327   6.295   6.619  11.863 -1.2944  2.2266 -0.5775
10946TIP3   OH254328   0.021   5.841   5.622  0.0628 -0.7472 -0.0029
10946TIP3    H154329  -0.023   5.911   5.671  0.3561 -0.1501 -0.5856
10946TIP3    H254330   0.070   5.794   5.689 -0.2650 -0.4988  0.4232
10947TIP3   OH254331   5.918   2.424   6.386 -0.5545 -0.1296  0.3377
10947TIP3    H154332   5.861   2.496   6.360  0.3841 -0.1292 -1.7711
10947TIP3    H254333   5.970   2.458   6.459 -1.7380  0.5495  0.8735
10948TIP3   OH254334   2.522   3.981   4.385  0.3729  0.0470 -0.0149
10948TIP3    H154335   2.563   4.060   4.352  0.6668  0.6636  1.7889
10948TIP3    H254336   2.449   4.012   4.438  1.0516 -0.8490  1.4587
10949TIP3   OH254337   3.662   1.557  12.984  0.5248  0.3831 -0.2191
10949TIP3    H154338   3.618   1.623  13.037 -0.9164  0.0838 -1.0155
10949TIP3    H254339   3.619   1.475  13.009  2.6407 -0.3678  1.1438
10950TIP3   OH254340   0.431   5.021  11.566  0.1972  0.2005 -0.3775
10950TIP3    H154341   0.460   5.067  11.645 -0.2293  0.8688 -0.6070
10950TIP3    H254342   0.353   4.973  11.594  1.3035 -1.3395  0.1601
10951TIP3   OH254343   3.021   0.439   6.203 -0.6718  0.1230  0.0590
10951TIP3    H154344   3.025   0.533   6.184  0.0922 -0.0659 -0.7620
10951TIP3    H254345   2.928   0.419   6.204 -0.8733  1.0192  0.9056
10952TIP3   OH254346   1.457   1.999   4.326 -0.0420 -0.0576  0.2088
10952TIP3    H154347   1.541   1.977   4.365  0.3126 -0.0901 -0.5770
10952TIP3    H254348   1.468   1.982   4.233 -0.0236  2.5987 -0.3149
10953TIP3   OH254349   3.619   2.723   6.348  0.5463  0.3554  0.1803
10953TIP3    H154350   3.674   2.749   6.274  0.0673 -0.9902 -0.6600
10953TIP3    H254351   3.661   2.763   6.424  2.0017  0.3582 -0.6072
10954TIP3   OH254352   3.089   2.779   0.953 -0.1853 -0.4783 -0.6342
10954TIP3    H154353   3.028   2.799   0.882  0.7191  1.9382 -0.7790
10954TIP3    H254354   3.171   2.756   0.910 -0.1098 -0.6566 -0.3999
10955TIP3   OH254355   0.276   4.864   4.545 -0.1228 -0.4145 -0.1380
10955TIP3    H154356   0.283   4.772   4.570 -2.4067 -0.3841  0.7259
10955TIP3    H254357   0.348   4.907   4.591 -0.8013 -1.3165  1.8114
10956TIP3   OH254358   3.458   4.098  17.291 -0.8276 -0.0598 -0.5268
10956TIP3    H154359   3.417   4.037  17.352  0.6692 -0.5564  0.0278
10956TIP3    H254360   3.551   4.097  17.316 -0.2893  0.1665 -2.4324
10957TIP3   OH254361   5.936   5.175  11.747 -0.1345  0.3894 -0.4056
10957TIP3    H154362   6.009   5.149  11.690  0.8446 -0.2672  1.1262
10957TIP3    H254363   5.973   5.245  11.802 -0.5883 -0.1010  0.5309
10958TIP3   OH254364   1.480   3.921  13.408  0.0888  0.4957  0.2649
10958TIP3    H154365   1.512   3.935  13.497  1.4169  0.0042 -0.1110
10958TIP3    H254366   1.389   3.893  13.419  0.5125 -0.4311  1.5131
10959TIP3   OH254367   1.884   0.399  15.363 -0.3089 -0.2154  0.0869
10959TIP3    H154368   1.911   0.418  15.453 -0.4753 -0.9280  0.2886
10959TIP3    H254369   1.963   0.364  15.321  0.2144  1.5798 -0.5062
10960TIP3   OH254370   5.284   4.232   3.601  0.4716 -0.3532  0.0361
10960TIP3    H154371   5.242   4.316   3.619 -3.4703 -2.0017 -0.9382
10960TIP3    H254372   5.297   4.231   3.506  0.3703 -0.9300  0.0268
10961TIP3   OH254373   0.796   4.518   4.786  0.0306  0.1889 -0.4418
10961TIP3    H154374   0.848   4.443   4.760  0.7634  0.7421 -0.5845
10961TIP3    H254375   0.804   4.580   4.713 -0.0873  0.6434 -0.0737
10962TIP3   OH254376   2.653   1.247   1.628  0.1620 -0.0084 -0.1051
10962TIP3    H154377   2.662   1.318   1.692  1.9008 -1.1127  0.9264
10962TIP3    H254378   2.723   1.263   1.565  2.2192 -2.1657  1.5273
10963TIP3   OH254379   0.129   4.997  16.937 -0.3862  0.1916  0.3721
10963TIP3    H154380   0.186   4.928  16.971 -0.2520  0.3599  0.4913
10963TIP3    H254381   0.041   4.969  16.960 -0.2493  0.6419  1.4621
10964TIP3   OH254382   6.749   4.211  11.595 -0.3872  0.0991 -0.2967
10964TIP3    H154383   6.743   4.116  11.600  0.0377  0.0041 -1.4233
10964TIP3    H254384   6.679   4.243  11.652 -0.2871 -0.8823  0.3797
10965TIP3   OH254385   1.310   6.499  16.522  0.3596  0.2829 -0.0958
10965TIP3    H154386   1.285   6.588  16.547 -1.2692 -0.0382 -0.5540
10965TIP3    H254387   1.373   6.511  16.451  1.6070  1.0946  1.1182
10966TIP3   OH254388   6.228   0.481   6.176 -0.0356  0.3037 -0.2310
10966TIP3    H154389   6.139   0.461   6.146 -0.5109 -0.0054  1.3290
10966TIP3    H254390   6.215   0.543   6.248  0.9595 -0.4809  0.6317
10967TIP3   OH254391   0.971   6.717  10.672  0.4318  0.4545  0.3527
10967TIP3    H154392   0.945   6.755  10.756  0.0136 -0.0852  0.4701
10967TIP3    H254393   0.960   6.623  10.684 -0.7190  0.4554 -0.6874
10968TIP3   OH254394   5.992   1.814   5.814 -0.0540 -0.1794  0.3978
10968TIP3    H154395   6.006   1.890   5.758 -1.2679 -0.7088 -0.6479
10968TIP3    H254396   6.054   1.749   5.782 -0.4659 -0.3409 -0.0886
10969TIP3   OH254397   3.807   3.754   5.308  0.3037 -0.1327  0.1614
10969TIP3    H154398   3.743   3.687   5.331 -1.6236  0.0555 -4.1216
10969TIP3    H254399   3.892   3.715   5.327 -0.8779 -2.8324  0.0961
10970TIP3   OH254400   1.334   4.765   6.236  0.1846 -0.7413  0.4385
10970TIP3    H154401   1.385   4.813   6.170  0.5580 -0.3037  1.0401
10970TIP3    H254402   1.259   4.822   6.253  0.4146 -0.5626  0.8517
10971TIP3   OH254403   3.455   1.300  11.639  0.3850 -0.2730 -0.4793
10971TIP3    H154404   3.524   1.282  11.574  0.3369  0.4251 -0.7203
10971TIP3    H254405   3.395   1.359  11.594  0.5824  0.5664  0.3627
10972TIP3   OH254406   1.314   1.761  14.064  0.0578  0.0150 -0.1269
10972TIP3    H154407   1.286   1.836  14.115  1.4393  1.7254 -1.8163
10972TIP3    H254408   1.272   1.772  13.979  2.1668  0.1979 -1.1846
10973TIP3   OH254409   0.606   2.570  12.882  0.4615 -0.1397  0.1042
10973TIP3    H154410   0.691   2.606  12.909  0.3341  0.0080  0.3051
10973TIP3    H254411   0.602   2.587  12.788  0.5063  0.1518  0.1553
10974TIP3   OH254412   1.107   4.338  12.360 -0.0003  0.3676 -0.0915
10974TIP3    H154413   1.029   4.389  12.377  0.7580  1.5577 -0.1179
10974TIP3    H254414   1.172   4.373  12.421  0.7242 -0.0952 -0.5905
10975TIP3   OH254415   0.955   5.759   2.310 -0.0299 -0.3918  0.2250
10975TIP3    H154416   0.974   5.743   2.403  0.2654 -0.8962  0.0779
10975TIP3    H254417   0.902   5.839   2.310  2.6263  1.4654  0.6040
10976TIP3   OH254418   2.948   5.540   4.773 -0.4389  0.0055  0.1380
10976TIP3    H154419   2.925   5.534   4.866 -0.6753  2.0363  0.2303
10976TIP3    H254420   2.900   5.616   4.741  0.1987 -0.2533 -1.4951
10977TIP3   OH254421   1.181   1.073   0.575  0.4115 -0.3326 -0.0541
10977TIP3    H154422   1.088   1.063   0.555  0.6171 -1.2927 -0.5510
10977TIP3    H254423   1.193   1.025   0.657  0.9712 -2.3990 -1.3212
10978TIP3   OH254424   1.640   2.732  15.632 -0.3019 -0.1968 -0.7327
10978TIP3    H154425   1.686   2.808  15.597  0.2111  0.2672  0.8805
10978TIP3    H254426   1.570   2.714  15.569  0.8511  0.3312 -2.1748
10979TIP3   OH254427   1.867   5.546  12.027 -0.2961 -0.3980  0.2817
10979TIP3    H154428   1.895   5.458  12.053 -0.7293 -0.7032 -0.2738
10979TIP3    H254429   1.793   5.531  11.968 -0.6910  0.3548  0.5763
10980TIP3   OH254430   2.940   2.041   0.103  0.3632  0.0428 -0.2721
10980TIP3    H154431   2.872   2.108   0.097 -1.5872 -1.8064  0.5242
10980TIP3    H254432   2.910   1.970   0.045 -0.2924 -2.3288  2.8051
10981TIP3   OH254433   5.783   0.600  12.883 -0.0730 -0.4724  0.4368
10981TIP3    H154434   5.858   0.653  12.909 -0.7924  0.0879  1.4148
10981TIP3    H254435   5.743   0.572  12.966 -1.8678  0.5682 -0.0483
10982TIP3   OH254436   0.320   1.808  16.191 -0.0470  0.0954  0.2048
10982TIP3    H154437   0.321   1.825  16.286 -0.8075  0.7289  0.1114
10982TIP3    H254438   0.298   1.716  16.183  0.4665 -0.0669  0.6593
10983TIP3   OH254439   3.583   1.920  11.522  0.1920 -0.4670 -0.2227
10983TIP3    H154440   3.558   2.013  11.518 -1.1098 -0.8328 -0.5996
10983TIP3    H254441   3.589   1.893  11.431  1.6394 -0.4884 -0.1413
10984TIP3   OH254442   3.660   0.464  16.822  0.3157  0.2783 -0.9451
10984TIP3    H154443   3.595   0.433  16.759  1.7904 -1.7201 -1.5428
10984TIP3    H254444   3.685   0.550  16.791  0.0982 -0.1761 -2.4048
10985TIP3   OH254445   5.190   0.878   2.586  0.3810 -0.3469  0.0149
10985TIP3    H154446   5.214   0.915   2.670 -1.8769  1.3887 -0.0544
10985TIP3    H254447   5.196   0.951   2.525 -1.6620 -0.6856 -0.6149
10986TIP3   OH254448   1.719   4.478  12.383 -0.2798 -0.4353 -0.6648
10986TIP3    H154449   1.805   4.445  12.409 -1.0353 -0.1677  2.4049
10986TIP3    H254450   1.693   4.422  12.310  1.7106 -1.6998 -0.4554
10987TIP3   OH254451   3.658   5.898  12.149  0.0649  0.6759  0.3102
10987TIP3    H154452   3.628   5.816  12.109  0.2520  1.3275 -1.1936
10987TIP3    H254453   3.579   5.939  12.182 -0.0327 -0.1008  1.0560
10988TIP3   OH254454   2.723   1.660   5.427  0.3554 -0.5017 -0.6917
10988TIP3    H154455   2.817   1.678   5.424  0.4400 -0.9599 -0.7692
10988TIP3    H254456   2.716   1.574   5.469 -0.1604  0.6555  1.6669
10989TIP3   OH254457   2.572   4.666   3.328 -0.3074 -0.5303  0.5357
10989TIP3    H154458   2.492   4.652   3.277 -1.1820 -1.8846  2.2481
10989TIP3    H254459   2.629   4.593   3.303  0.3348  0.2990 -0.4982
10990TIP3   OH254460   4.144   0.486  12.420 -0.0895 -0.5482  0.5641
10990TIP3    H154461   4.143   0.392  12.437  1.3685 -0.2557  2.4441
10990TIP3    H254462   4.084   0.523  12.485 -0.5681 -0.1593 -0.0933
10991TIP3   OH254463   3.553   0.018  12.596  0.5055 -0.1561 -0.3941
10991TIP3    H154464   3.625  -0.044  12.584  1.2936  0.8296 -0.7405
10991TIP3    H254465   3.494  -0.027  12.657  0.8533 -1.4314 -0.9705
10992TIP3   OH254466   1.743   1.955   3.831 -0.3789  0.1224 -0.2529
10992TIP3    H154467   1.801   1.942   3.757 -0.6110  0.9702 -0.5837
10992TIP3    H254468   1.753   1.875   3.884 -0.6201 -0.7190 -1.4617
10993TIP3   OH254469   3.308   1.835  12.492  0.1903 -0.2034 -0.3133
10993TIP3    H154470   3.402   1.818  12.496  0.1981 -0.3615 -1.1098
10993TIP3    H254471   3.271   1.783  12.563  0.5282 -1.4128 -1.0059
10994TIP3   OH254472   0.935   3.016   0.196 -0.0406 -0.0396 -0.1314
10994TIP3    H154473   0.911   2.936   0.149  0.4956 -1.7652  2.4571
10994TIP3    H254474   0.855   3.069   0.196 -0.3276 -0.4328 -2.0820
10995TIP3   OH254475   1.014   4.957  11.224  0.4259 -0.1482 -0.5669
10995TIP3    H154476   0.954   4.883  11.229 -0.6507  0.7458  0.1271
10995TIP3    H254477   1.037   4.975  11.315  2.3002 -0.9126 -0.8708
10996TIP3   OH254478   1.732   3.909  14.731  0.1558  0.3909 -0.0861
10996TIP3    H154479   1.808   3.953  14.770 -1.0866  1.0467  1.6690
10996TIP3    H254480   1.714   3.835  14.790  0.0658 -0.3598 -1.0572
10997TIP3   OH254481   0.518   2.607   2.571 -0.0071  0.2168 -0.1688
10997TIP3    H154482   0.520   2.582   2.664  0.4519  1.1684  0.0849
10997TIP3    H254483   0.560   2.534   2.526  3.5195  1.5199  0.8143
10998TIP3   OH254484   0.749   4.120   0.265 -0.3840  0.6945 -0.1472
10998TIP3    H154485   0.712   4.032   0.274 -0.3519  0.6487 -0.4626
10998TIP3    H254486   0.797   4.118   0.183 -2.0704  1.6123 -1.1929
10999TIP3   OH254487   3.658   5.530   6.555 -0.4340 -0.2651 -0.2880
10999TIP3    H154488   3.724   5.464   6.576 -1.2083 -1.2699 -0.9696
10999TIP3    H254489   3.627   5.505   6.468 -2.2616 -0.2661  0.3567
11000TIP3   OH254490   3.786   6.176  13.804 -0.4240  0.6400 -0.2798
11000TIP3    H154491   3.833   6.210  13.727  0.5915  1.3504  0.6288
11000TIP3    H254492   3.842   6.200  13.878 -1.4781  0.1183  0.6972
11001TIP3   OH254493   2.855   1.674   3.883 -0.4723 -0.0792 -0.1449
11001TIP3    H154494   2.911   1.606   3.845 -0.8752 -0.1184 -0.6819
11001TIP3    H254495   2.832   1.730   3.808 -0.4349  0.4427  0.2289
11002TIP3   OH254496   2.505   1.308   1.268 -0.0532 -0.0440  0.0732
11002TIP3    H154497   2.416   1.332   1.239 -0.1253 -0.2636  0.1151
11002TIP3    H254498   2.503   1.213   1.276 -0.4223  0.1133  2.0662
11003TIP3   OH254499   1.796   3.665  14.222  0.8728 -0.2063 -0.2946
11003TIP3    H154500   1.750   3.717  14.155  1.4701  0.7172 -0.0004
11003TIP3    H254501   1.755   3.691  14.305  1.0382 -0.3503 -0.1656
11004TIP3   OH254502   4.150   4.073  13.704 -0.0264  0.8295  0.4356
11004TIP3    H154503   4.070   4.038  13.742 -0.2399  1.0151  0.1579
11004TIP3    H254504   4.132   4.079  13.610  0.3474  0.7770  0.3580
11005TIP3   OH254505   2.235   3.494  13.963 -0.3997 -0.1357  0.1831
11005TIP3    H154506   2.179   3.526  14.033  0.3343 -0.2480  0.8230
11005TIP3    H254507   2.315   3.546  13.969  0.6249 -1.7467  0.9506
11006TIP3   OH254508   0.303   4.919   0.558 -0.3050 -0.7209 -0.1160
11006TIP3    H154509   0.365   4.988   0.582 -2.0988  1.2820 -1.1121
11006TIP3    H254510   0.340   4.881   0.478  0.0073 -0.0482 -0.2915
11007TIP3   OH254511   0.997   0.218  12.265 -0.2338  0.0552 -0.5477
11007TIP3    H154512   0.931   0.149  12.270  0.0995 -0.4546 -2.5533
11007TIP3    H254513   1.014   0.228  12.171  2.1034  0.6060 -0.1058
11008TIP3   OH254514   5.821   6.318   0.892 -0.6030 -0.3771  0.3454
11008TIP3    H154515   5.843   6.317   0.985 -1.1782 -1.3468  0.4796
11008TIP3    H254516   5.891   6.370   0.851  0.4067 -1.0915  1.1334
11009TIP3   OH254517   6.704   2.559  11.566  0.6449 -0.0058  0.4136
11009TIP3    H154518   6.668   2.505  11.496  0.7610 -0.0002  0.3475
11009TIP3    H254519   6.785   2.515  11.591 -0.0597 -0.7276  1.4563
11010TIP3   OH254520   4.535   4.531   5.842 -0.0966 -0.1696 -0.1105
11010TIP3    H154521   4.525   4.519   5.936  0.8763 -0.8405 -0.0824
11010TIP3    H254522   4.448   4.557   5.811 -0.1713  1.1096  1.1282
11011TIP3   OH254523   1.053   4.919  12.240  0.5706 -0.3656 -0.6040
11011TIP3    H154524   1.136   4.963  12.259 -0.0061  0.1607  0.7375
11011TIP3    H254525   1.038   4.863  12.316 -0.7174  0.1767 -0.4558
11012TIP3   OH254526   3.899   5.949  15.636  0.1210 -0.0176  0.0271
11012TIP3    H154527   3.988   5.936  15.668 -0.2478 -1.8786  0.3519
11012TIP3    H254528   3.848   5.970  15.715 -0.1152 -1.0248  0.1443
11013TIP3   OH254529   1.298   4.444  16.896 -0.0943 -0.0770 -0.9652
11013TIP3    H154530   1.391   4.441  16.872 -0.2369  0.2281 -1.5563
11013TIP3    H254531   1.260   4.366  16.856 -0.0256 -0.3865 -0.4305
11014TIP3   OH254532   1.658   3.758   3.778 -0.2457 -0.3594  0.2274
11014TIP3    H154533   1.567   3.787   3.781 -0.1966 -0.3908  2.2404
11014TIP3    H254534   1.708   3.836   3.752 -0.4242  0.6576  2.8622
11015TIP3   OH254535   0.737   1.919  16.887 -0.3483 -0.0142 -0.8334
11015TIP3    H154536   0.714   1.828  16.868  0.1187 -0.0480 -1.2134
11015TIP3    H254537   0.711   1.968  16.809  0.8051 -0.0424 -1.2472
11016TIP3   OH254538   5.321   2.321  13.435 -0.1947  0.3451 -0.4638
11016TIP3    H154539   5.244   2.377  13.426 -0.9588 -0.6513 -0.2654
11016TIP3    H254540   5.308   2.276  13.518  1.1869  1.0412  0.1326
11017TIP3   OH254541   4.319   6.533   5.079 -0.4577  0.6912 -0.6096
11017TIP3    H154542   4.238   6.483   5.076 -0.9239  1.2901  1.6417
11017TIP3    H254543   4.362   6.505   5.160  0.9433  1.3870 -1.0927
11018TIP3   OH254544   3.199   5.957  13.503 -0.3796 -0.1360 -0.2171
11018TIP3    H154545   3.222   6.004  13.423  2.5274 -1.1445 -0.0232
11018TIP3    H254546   3.255   5.879  13.502  0.2860  0.2135  3.1804
11019TIP3   OH254547   4.287   4.825   2.008 -0.0241  0.1294 -0.3422
11019TIP3    H154548   4.273   4.767   2.083  0.5246  0.2121 -0.1757
11019TIP3    H254549   4.236   4.903   2.028  1.2238  0.7182  0.5957
11020TIP3   OH254550   1.949   4.204  10.736 -0.2834  0.4166 -0.4024
11020TIP3    H154551   1.977   4.268  10.801  0.3676 -0.3764  0.1019
11020TIP3    H254552   1.968   4.246  10.652  0.5628  0.6927 -0.0753
11021TIP3   OH254553   2.610   6.448   2.208  0.1410 -0.0087 -0.4006
11021TIP3    H154554   2.539   6.471   2.268  0.9596  0.8699  0.2557
11021TIP3    H254555   2.632   6.530   2.164  2.1315  0.1929  0.9067
11022TIP3   OH254556   4.656   5.609  11.615 -0.4255  0.3416  0.1050
11022TIP3    H154557   4.718   5.586  11.684  1.4018  2.2038 -0.8763
11022TIP3    H254558   4.628   5.698  11.635 -1.0266  0.3613 -0.7575
11023TIP3   OH254559   1.208   4.800  15.481  0.3181  0.4070 -0.6276
11023TIP3    H154560   1.244   4.711  15.476 -0.1978  0.3094 -3.0616
11023TIP3    H254561   1.156   4.810  15.402 -1.6682  2.0373  0.8292
11024TIP3   OH254562   5.814   1.315  14.893  0.3270  0.1176 -0.1951
11024TIP3    H154563   5.853   1.396  14.860  0.8326 -0.6167 -1.4017
11024TIP3    H254564   5.887   1.255  14.904  0.0933  0.1377  1.7041
11025TIP3   OH254565   5.049   0.319   1.613 -0.4600  0.0107  0.0816
11025TIP3    H154566   5.091   0.233   1.607 -0.5378 -0.0415  0.2681
11025TIP3    H254567   5.113   0.374   1.657 -0.8833 -0.2708  1.0781
11026TIP3   OH254568   6.339   2.772  11.294  0.4793  0.0684 -0.5632
11026TIP3    H154569   6.285   2.712  11.345  0.9589  0.6670  0.6961
11026TIP3    H254570   6.393   2.716  11.238 -1.5884 -0.5173 -1.9949
11027TIP3   OH254571   2.111   3.694  15.761 -0.2534 -0.1125 -0.3459
11027TIP3    H154572   2.139   3.712  15.851  0.1107 -0.6638 -0.3462
11027TIP3    H254573   2.072   3.776  15.731 -0.2102  0.1292  0.2534
11028TIP3   OH254574   2.695   5.997   1.908 -0.5869  0.4993 -0.7974
11028TIP3    H154575   2.741   5.915   1.893  1.4734  1.2153  1.2166
11028TIP3    H254576   2.671   5.994   2.001 -0.7019  2.0527 -0.7648
11029TIP3   OH254577   6.489   0.562  11.808  0.0786  0.0469 -0.2448
11029TIP3    H154578   6.577   0.597  11.796  0.1261  1.2505  3.1112
11029TIP3    H254579   6.495   0.471  11.780  2.8237 -0.3029  1.3440
11030TIP3   OH254580   6.651   1.743  11.993  0.7859 -0.2020  0.4320
11030TIP3    H154581   6.639   1.773  11.903 -1.0377 -0.9461  0.3940
11030TIP3    H254582   6.623   1.816  12.047  1.6523  0.1593  0.3906
11031TIP3   OH254583   4.054   1.200  14.105 -0.9113  0.0356 -0.2136
11031TIP3    H154584   4.073   1.217  14.012 -1.2070 -0.8775 -0.4455
11031TIP3    H254585   4.095   1.115  14.122 -0.2036  0.5485  0.6991
11032TIP3   OH254586   1.940   3.846   0.320  0.3432  0.2220  0.1417
11032TIP3    H154587   1.980   3.802   0.395 -0.6153  1.7205  1.5407
11032TIP3    H254588   2.013   3.857   0.258  1.6129  0.8402  1.6956
11033TIP3   OH254589   2.435   2.631   0.336  0.1347  0.2042  0.4814
11033TIP3    H154590   2.402   2.592   0.417 -0.2406  0.6664  0.5520
11033TIP3    H254591   2.426   2.561   0.271 -1.2180  0.3954  0.4461
11034TIP3   OH254592   2.813   0.662  14.724  0.0772  0.2314 -0.4976
11034TIP3    H154593   2.762   0.742  14.715  0.4102  0.6862  1.4588
11034TIP3    H254594   2.807   0.619  14.639 -0.5170  2.0938 -1.3995
11035TIP3   OH254595   4.279   1.675  12.373  0.3225  0.8165  0.4787
11035TIP3    H154596   4.224   1.627  12.435  0.6664  0.8363  0.7970
11035TIP3    H254597   4.234   1.759  12.361 -1.4247 -0.3588 -1.6968
11036TIP3   OH254598   4.924   6.613   3.450  0.0822  0.1605  0.2494
11036TIP3    H154599   5.015   6.611   3.420 -0.2255 -2.2159 -0.5699
11036TIP3    H254600   4.924   6.677   3.521  2.4290  0.0619  0.3722
11037TIP3   OH254601   6.125   3.158   2.718  0.6898  0.0274 -0.0258
11037TIP3    H154602   6.102   3.087   2.778  1.4037 -0.4781 -0.3424
11037TIP3    H254603   6.206   3.129   2.676  0.7373  0.8231 -0.5005
11038TIP3   OH254604   5.051   1.036  14.693  0.9732 -0.1287 -0.2194
11038TIP3    H154605   5.098   1.103  14.741 -0.4544  0.7512 -0.0461
11038TIP3    H254606   5.064   1.059  14.601 -0.5813  1.1427 -0.1422
11039TIP3   OH254607   5.385   3.435  10.387  0.6926 -0.7363 -0.0234
11039TIP3    H154608   5.301   3.449  10.343  1.3903 -0.6083 -1.3371
11039TIP3    H254609   5.375   3.480  10.471 -0.7351 -1.1756  0.0613
11040TIP3   OH254610   6.590   3.442   4.333 -0.0944  0.4093  0.2624
11040TIP3    H154611   6.673   3.429   4.289 -0.5763 -2.6866  0.1737
11040TIP3    H254612   6.529   3.467   4.264 -0.0273 -0.8659 -0.2707
11041TIP3   OH254613   4.092   1.223  16.512  0.3125  0.2931  0.5486
11041TIP3    H154614   4.166   1.269  16.550  2.0844 -0.1570 -2.2078
11041TIP3    H254615   4.025   1.290  16.500  1.1717  1.2110  0.8607
11042TIP3   OH254616   2.335   1.722  15.545  0.3087 -0.8245 -0.1199
11042TIP3    H154617   2.271   1.781  15.507 -0.1075 -0.8453  0.5360
11042TIP3    H254618   2.332   1.740  15.639  1.3207 -0.7677 -0.0871
11043TIP3   OH254619   4.392   1.061   6.028  0.0457  0.9846  0.4301
11043TIP3    H154620   4.381   1.137   6.085 -1.4378  0.2764  1.1006
11043TIP3    H254621   4.463   1.011   6.069  1.4803  2.3046 -0.3704
11044TIP3   OH254622   1.105   0.453   0.962  0.3895 -0.3384 -0.1930
11044TIP3    H154623   1.139   0.439   0.873  1.5624  0.7741  0.0719
11044TIP3    H254624   1.018   0.491   0.948  0.3483 -0.6705 -0.8677
11045TIP3   OH254625   2.672   5.935   3.970  0.9275  0.0730 -0.0954
11045TIP3    H154626   2.700   5.941   3.879  3.0306 -0.8847  0.4412
11045TIP3    H254627   2.580   5.909   3.966  0.6546  1.3050 -1.9363
11046TIP3   OH254628   3.463   2.628  15.128 -0.0329  0.0322  0.4451
11046TIP3    H154629   3.472   2.544  15.083 -0.3459  0.7539 -0.9974
11046TIP3    H254630   3.377   2.624  15.170 -0.4037 -0.0404 -0.3168
11047TIP3   OH254631   1.935   4.384   6.544 -0.3227  0.0752 -0.7162
11047TIP3    H154632   1.852   4.337   6.541 -1.3475  1.5407  2.1962
11047TIP3    H254633   1.961   4.393   6.453 -2.6285 -1.6725 -1.5985
11048TIP3   OH254634   1.214   1.124   1.216 -0.2028  0.3872 -0.2216
11048TIP3    H154635   1.267   1.107   1.294 -0.0493 -0.7878 -0.5851
11048TIP3    H254636   1.146   1.057   1.217 -1.5203  1.6787  0.0661
11049TIP3   OH254637   2.816   1.722   4.148  0.6263 -0.0503  0.2607
11049TIP3    H154638   2.873   1.799   4.150  1.3245 -0.5169 -1.1326
11049TIP3    H254639   2.814   1.696   4.056 -0.7219 -0.8768  0.5102
11050TIP3   OH254640   4.053   4.388  12.971 -0.1259 -0.5452 -0.3382
11050TIP3    H154641   4.127   4.362  12.916  0.2654 -0.6862  0.2572
11050TIP3    H254642   4.009   4.457  12.921  0.2109 -0.6969 -0.8435
11051TIP3   OH254643   5.432   2.083  12.741 -0.2299 -0.1680  0.7727
11051TIP3    H154644   5.439   2.118  12.829 -1.0221  2.0995 -0.0254
11051TIP3    H254645   5.364   2.136  12.699  1.3304 -0.0526 -1.7434
11052TIP3   OH254646   0.654   1.601   5.498  0.2917  0.3954  0.1301
11052TIP3    H154647   0.698   1.517   5.514  1.7411  1.1803  0.4053
11052TIP3    H254648   0.716   1.650   5.443 -1.7426  0.2595 -2.3601
11053TIP3   OH254649   5.431   3.218  11.766  0.1095  0.1788  0.0286
11053TIP3    H154650   5.341   3.196  11.791  0.2176 -2.4193 -1.7314
11053TIP3    H254651   5.481   3.139  11.784  2.3169  1.9377  1.9917
11054TIP3   OH254652   2.618   0.991  15.776 -0.5977 -0.6035  0.9093
11054TIP3    H154653   2.607   1.049  15.851 -0.4890  0.3649  0.1938
11054TIP3    H254654   2.554   1.023  15.712 -1.1514 -1.8353  0.8430
11055TIP3   OH254655   5.393   6.050   1.004  0.4273  0.3666  0.4657
11055TIP3    H154656   5.345   5.978   0.964  0.6793  0.9624 -0.9219
11055TIP3    H254657   5.326   6.108   1.039  0.1631  0.5744 -0.3807
11056TIP3   OH254658   0.630   5.693  12.278  0.6448 -0.1458  0.3994
11056TIP3    H154659   0.562   5.628  12.260  0.1707  0.4676 -0.0762
11056TIP3    H254660   0.695   5.680  12.209  0.1002  0.4851 -0.2398
11057TIP3   OH254661   5.191   0.265   6.592 -0.4629 -0.3489  0.7060
11057TIP3    H154662   5.116   0.305   6.547 -0.8040  0.0843  1.6490
11057TIP3    H254663   5.165   0.174   6.606 -0.6433 -0.3035  0.6653
11058TIP3   OH254664   6.718   0.339  12.721 -0.1084  0.0517 -0.0231
11058TIP3    H154665   6.654   0.329  12.650 -0.0900 -2.8450  0.3262
11058TIP3    H254666   6.803   0.336  12.678 -0.1295  0.1887 -0.0755
11059TIP3   OH254667   2.456   0.789  12.162 -0.0580 -0.7611 -0.7768
11059TIP3    H154668   2.369   0.782  12.124 -0.5398  0.5199  0.0270
11059TIP3    H254669   2.516   0.764  12.091 -1.0720 -1.4636 -1.3890
11060TIP3   OH254670   2.105   3.449  10.617  0.3686  0.3420 -0.4811
11060TIP3    H154671   2.131   3.527  10.665 -0.8756  0.5951 -0.2060
11060TIP3    H254672   2.081   3.386  10.685 -0.4948  0.3809 -0.7476
11061TIP3   OH254673   5.826   0.386  15.436  0.3388  0.3174  0.7957
11061TIP3    H154674   5.755   0.368  15.498  1.6626 -1.7612  1.7418
11061TIP3    H254675   5.811   0.324  15.364  0.1711  1.1079  0.1448
11062TIP3   OH254676   3.177   4.076  16.327 -0.2379  0.5397 -0.3732
11062TIP3    H154677   3.221   4.134  16.390  0.1478  0.4219 -0.5344
11062TIP3    H254678   3.093   4.120  16.310 -0.7025  0.1615  0.8388
11063TIP3   OH254679   1.650   3.533  10.698 -0.2011  0.7820 -0.3936
11063TIP3    H154680   1.706   3.598  10.655 -0.9498  1.1651 -0.8084
11063TIP3    H254681   1.569   3.580  10.716  0.4550  0.9013  2.3642
11064TIP3   OH254682   1.204   5.756   3.456 -0.1583 -0.5063  0.2440
11064TIP3    H154683   1.126   5.811   3.464 -0.4537 -0.7224 -0.9392
11064TIP3    H254684   1.183   5.678   3.508 -0.7476 -0.5707 -0.0761
11065TIP3   OH254685   6.098   3.513   0.010  0.1848 -0.1948 -0.0693
11065TIP3    H154686   6.085   3.444   0.075 -0.3977 -0.1892 -0.1801
11065TIP3    H254687   6.147   3.580   0.057 -1.6704  0.5452  0.8669
11066TIP3   OH254688   2.005   2.218  10.645  0.0460 -0.2332 -0.3890
11066TIP3    H154689   2.059   2.171  10.708 -0.2545 -0.6440 -0.4357
11066TIP3    H254690   1.920   2.173  10.648 -0.0367 -0.1152 -0.9206
11067TIP3   OH254691   3.841   5.947   3.132  0.0448 -0.3073  0.1275
11067TIP3    H154692   3.839   5.995   3.214  0.0218  0.5696 -0.3888
11067TIP3    H254693   3.849   6.014   3.064  0.4401 -1.0447 -0.5671
11068TIP3   OH254694   6.734   1.566  17.075 -0.5819 -0.3549 -0.1215
11068TIP3    H154695   6.669   1.519  17.022  0.2144 -1.1638 -0.3795
11068TIP3    H254696   6.729   1.525  17.161  0.4555 -1.2563 -0.4772
11069TIP3   OH254697   1.740   4.213   2.170  0.0442  0.1320  0.0727
11069TIP3    H154698   1.653   4.175   2.170  0.2378 -0.3188 -0.0412
11069TIP3    H254699   1.776   4.191   2.256  1.0454 -2.0385 -0.8360
11070TIP3   OH254700   0.131   3.926  16.582  0.2616  0.7425  1.0355
11070TIP3    H154701   0.127   3.861  16.512  1.8498 -0.3413  1.9282
11070TIP3    H254702   0.159   4.006  16.539 -0.0196  0.4138  0.2256
11071TIP3   OH254703   0.425   1.179  11.228 -0.4600 -0.4796  0.3184
11071TIP3    H154704   0.506   1.188  11.179 -0.5710 -1.0250  0.0320
11071TIP3    H254705   0.372   1.119  11.176 -1.3027  0.3751  0.1793
11072TIP3   OH254706   4.971   1.753  13.594  0.5524 -0.5376 -0.4553
11072TIP3    H154707   5.065   1.740  13.586  0.7229  1.2876 -1.7492
11072TIP3    H254708   4.935   1.665  13.600  2.4200 -1.2386  1.2317
11073TIP3   OH254709   5.698   5.508   2.313 -0.1355 -0.0871  0.6366
11073TIP3    H154710   5.695   5.548   2.400  0.0289 -2.0861  1.6106
11073TIP3    H254711   5.616   5.459   2.307  0.9572 -1.9612  0.7049
11074TIP3   OH254712   4.922   5.017  14.423 -0.3776 -0.3752  0.5581
11074TIP3    H154713   4.870   5.041  14.500 -0.9659 -3.0910  1.0519
11074TIP3    H254714   4.890   4.930  14.399  1.1739 -0.3834 -1.5807
11075TIP3   OH254715   5.660   0.742   4.596  0.4504 -0.6114 -0.0660
11075TIP3    H154716   5.617   0.779   4.519  2.9521 -0.4856 -1.4591
11075TIP3    H254717   5.643   0.648   4.591  0.5998 -0.6014 -0.7577
11076TIP3   OH254718   4.229   0.495   1.657 -0.3924  0.0070  0.6685
11076TIP3    H154719   4.288   0.570   1.660  0.6371 -0.8033  1.1335
11076TIP3    H254720   4.181   0.505   1.575 -0.4287  1.2942  0.8444
11077TIP3   OH254721   5.107   6.235   3.062  0.1681  0.4355  0.1096
11077TIP3    H154722   5.169   6.308   3.071  0.7199  0.0873 -0.7023
11077TIP3    H254723   5.151   6.176   3.001 -1.0331  0.2379 -0.5662
11078TIP3   OH254724   6.113   3.290   0.342 -0.5445 -0.0989  0.0099
11078TIP3    H154725   6.059   3.260   0.415 -1.4449 -1.0113 -1.0208
11078TIP3    H254726   6.056   3.283   0.265  0.7426 -0.1754 -0.9475
11079TIP3   OH254727   6.334   6.124   5.629 -0.1458 -0.3856 -0.1162
11079TIP3    H154728   6.279   6.191   5.590  0.2716  2.2142  3.4886
11079TIP3    H254729   6.280   6.085   5.697  1.5216  0.3728  1.7031
11080TIP3   OH254730   1.540   6.332   6.180  0.5138  0.6925  0.1934
11080TIP3    H154731   1.481   6.407   6.188  0.0239  0.3350 -0.0820
11080TIP3    H254732   1.553   6.302   6.270  0.9170  1.2593  0.3303
11081TIP3   OH254733   4.035   1.584  10.835  0.0673 -0.3973 -0.3483
11081TIP3    H154734   3.956   1.622  10.798  0.2279 -1.0456 -1.3869
11081TIP3    H254735   4.105   1.645  10.811 -0.0422 -0.0954  0.1083
11082TIP3   OH254736   4.041   1.589  14.674 -0.0328 -0.3750  0.5658
11082TIP3    H154737   4.109   1.544  14.623  1.6926  0.2707  2.2390
11082TIP3    H254738   4.039   1.678  14.639 -0.3600 -0.5304  0.1890
11083TIP3   OH254739   3.159   3.504   3.864 -0.6596 -0.0554 -0.1622
11083TIP3    H154740   3.182   3.467   3.949 -0.1982  0.5324 -0.0268
11083TIP3    H254741   3.203   3.446   3.800 -2.6466 -1.6833 -0.1024
11084TIP3   OH254742   2.509   3.206   4.433 -0.8647 -0.0468  0.4235
11084TIP3    H154743   2.595   3.219   4.395 -0.3193  1.9938  2.2512
11084TIP3    H254744   2.470   3.136   4.381  1.1956  0.2174 -1.5467
11085TIP3   OH254745   1.917   0.713   1.839 -0.3428 -0.1349 -0.4423
11085TIP3    H154746   1.862   0.738   1.914 -0.3644 -1.2798 -0.0739
11085TIP3    H254747   1.963   0.794   1.816  0.6098 -0.0575  1.5983
11086TIP3   OH254748   5.412   4.698  15.213  0.1752 -0.2741  0.1370
11086TIP3    H154749   5.423   4.709  15.119 -0.1804  2.6112  0.3835
11086TIP3    H254750   5.500   4.683  15.246  0.3115 -1.1933 -0.6374
11087TIP3   OH254751   2.912   6.513   2.612 -0.0816 -0.3060  0.0208
11087TIP3    H154752   2.933   6.452   2.682  0.4900  0.6182  0.6586
11087TIP3    H254753   2.915   6.599   2.653 -0.3149  0.1993 -1.0045
11088TIP3   OH254754   1.573   6.467  13.935 -0.1253  0.0361  0.0763
11088TIP3    H154755   1.603   6.380  13.907  0.9300 -0.1726  1.7656
11088TIP3    H254756   1.637   6.527  13.899  0.6835 -0.1418  1.2070
11089TIP3   OH254757   4.403   2.669  14.340  0.2013 -0.1196  0.3842
11089TIP3    H154758   4.494   2.643  14.331  0.4518  1.0404 -0.6298
11089TIP3    H254759   4.403   2.763  14.323 -1.0552  0.0585  1.2573
11090TIP3   OH254760   1.050   3.193  16.030 -0.2816  0.2862 -0.2587
11090TIP3    H154761   1.117   3.245  16.073  0.4825 -1.2213  0.4360
11090TIP3    H254762   1.098   3.119  15.992 -1.4195 -0.3191 -0.5476
11091TIP3   OH254763   0.802   0.924   6.430  0.7547  0.0810  0.3637
11091TIP3    H154764   0.774   0.983   6.500  2.3863  0.7344  0.4763
11091TIP3    H254765   0.897   0.936   6.424  0.9645 -1.6981 -0.3797
11092TIP3   OH254766   6.093   3.607  14.529  0.3799  0.0821  0.0462
11092TIP3    H154767   6.018   3.666  14.529  0.6895  0.5090  1.8931
11092TIP3    H254768   6.058   3.523  14.501 -0.6948  0.3898  0.4515
11093TIP3   OH254769   0.404   2.297   5.291  0.3523 -0.0154  0.0001
11093TIP3    H154770   0.467   2.240   5.246 -0.4243  0.6437 -1.9963
11093TIP3    H254771   0.441   2.385   5.283  0.0704  0.1435  0.4268
11094TIP3   OH254772   3.106   0.339  13.804 -0.2463 -0.1028  0.2833
11094TIP3    H154773   3.132   0.275  13.870  2.3020  1.3255  0.7065
11094TIP3    H254774   3.183   0.348  13.747 -0.5372  2.5720  0.2392
11095TIP3   OH254775   5.242   0.869   5.993  0.2336 -0.1828  0.0598
11095TIP3    H154776   5.288   0.838   5.914  0.9015 -0.6212  0.6169
11095TIP3    H254777   5.219   0.959   5.973 -0.2385 -0.5127 -0.9289
11096TIP3   OH254778   5.678   0.561  13.967 -0.2228 -0.0429  0.4138
11096TIP3    H154779   5.693   0.646  13.925 -3.1455 -0.0223 -0.7483
11096TIP3    H254780   5.684   0.579  14.061 -1.9547  1.7535  0.2259
11097TIP3   OH254781   5.169   2.234   5.532 -0.0357  0.2740  0.0511
11097TIP3    H154782   5.119   2.227   5.451  0.4729  1.7614 -0.3915
11097TIP3    H254783   5.174   2.328   5.550  1.4097  0.0543  0.8369
11098TIP3   OH254784   3.697   3.578   2.223  0.1766 -0.0819  0.0428
11098TIP3    H154785   3.652   3.528   2.291 -0.3696  0.7540  0.2981
11098TIP3    H254786   3.691   3.524   2.145 -1.5564  0.1626 -0.0042
11099TIP3   OH254787   3.593   3.892  11.897 -0.2724  0.1175 -0.6015
11099TIP3    H154788   3.644   3.925  11.824 -0.1349  0.7494 -0.2176
11099TIP3    H254789   3.522   3.955  11.907 -0.0655  0.2407  0.0670
11100TIP3   OH254790   5.948   0.713   1.290  0.3140 -0.2135  0.7084
11100TIP3    H154791   5.961   0.800   1.254 -0.2487 -1.0179 -1.5290
11100TIP3    H254792   6.034   0.671   1.283  0.1276 -0.4846 -0.0944
11101TIP3   OH254793   4.471   5.251   3.450  0.2872 -0.3659  0.5122
11101TIP3    H154794   4.544   5.238   3.511 -0.0854 -0.1603  0.9988
11101TIP3    H254795   4.514   5.274   3.367  0.8508 -2.0277  0.3272
11102TIP3   OH254796   1.188   2.995  10.210 -0.0999  0.3745 -0.7574
11102TIP3    H154797   1.278   2.994  10.242  0.5823 -0.6452 -2.5989
11102TIP3    H254798   1.161   2.903  10.211 -0.5271  0.4740 -1.7290
11103TIP3   OH254799   1.482   0.747   6.256 -0.2124  0.0364  0.8779
11103TIP3    H154800   1.493   0.661   6.298 -0.2398 -0.1565  0.4942
11103TIP3    H254801   1.419   0.793   6.311  0.2214  0.0180  1.3991
11104TIP3   OH254802   2.205   4.521   0.417  0.2833  0.0134  0.2688
11104TIP3    H154803   2.177   4.611   0.430  1.6619  0.9610 -2.8728
11104TIP3    H254804   2.123   4.471   0.413 -0.6922  1.6620 -1.4007
11105TIP3   OH254805   1.965   2.175   6.394  0.3957 -0.0032 -0.5130
11105TIP3    H154806   1.968   2.141   6.305 -1.0140 -0.7464 -0.2894
11105TIP3    H254807   1.959   2.097   6.449 -1.6839  0.5475  0.0788
11106TIP3   OH254808   4.743   4.900   1.846  0.5377  0.2753  0.0512
11106TIP3    H154809   4.757   4.809   1.869  0.2164  0.0832 -0.5057
11106TIP3    H254810   4.655   4.902   1.807  1.2979  0.4969 -1.6767
11107TIP3   OH254811   3.681   3.933   1.570  0.3947 -0.2595  0.4080
11107TIP3    H154812   3.715   3.909   1.656  1.3516 -1.5311 -0.3067
11107TIP3    H254813   3.718   3.868   1.511  3.8844  3.5238 -1.8009
11108TIP3   OH254814   1.639   1.831   4.713 -0.4537 -0.0987  0.7119
11108TIP3    H154815   1.690   1.811   4.634 -0.3701 -0.2478  0.8046
11108TIP3    H254816   1.676   1.914   4.744  0.0436 -0.4451  1.0417
11109TIP3   OH254817   3.300   0.135   4.722  0.0737 -0.1841 -0.5655
11109TIP3    H154818   3.226   0.085   4.756  0.0322  0.1023 -0.2290
11109TIP3    H254819   3.322   0.093   4.639  0.0162 -0.7365 -0.2994
11110TIP3   OH254820   1.281   2.840   2.915  0.1381 -0.3322 -0.1637
11110TIP3    H154821   1.314   2.750   2.921  1.3483  0.0684 -0.8100
11110TIP3    H254822   1.345   2.886   2.861 -0.3585  0.9881  0.3555
11111TIP3   OH254823   3.488   1.868  13.646  0.2264 -0.1423 -0.4968
11111TIP3    H154824   3.540   1.886  13.725  1.2046  0.6838 -1.3186
11111TIP3    H254825   3.408   1.919  13.658  0.0924 -0.5247  0.2559
11112TIP3   OH254826   0.835   4.747   2.562  0.3159 -0.5304  0.0561
11112TIP3    H154827   0.775   4.673   2.553 -0.5148  0.2298 -0.7607
11112TIP3    H254828   0.916   4.709   2.596 -0.0508 -1.8314 -0.5166
11113TIP3   OH254829   3.874   0.015  13.750 -0.1738  0.5422  0.1003
11113TIP3    H154830   3.848   0.071  13.823 -2.6713 -0.4289  0.0011
11113TIP3    H254831   3.847   0.064  13.672 -0.5473  0.1036 -0.0481
11114TIP3   OH254832   1.314   3.634  17.114 -0.1426 -0.7703 -0.1294
11114TIP3    H154833   1.303   3.726  17.091 -1.4412 -1.2673 -1.6369
11114TIP3    H254834   1.386   3.604  17.059 -0.4105 -0.8950 -0.4197
11115TIP3   OH254835   6.172   0.603   5.379 -0.2852 -0.0111  0.5085
11115TIP3    H154836   6.262   0.612   5.346  0.5662  0.5894  2.8814
11115TIP3    H254837   6.147   0.513   5.358  0.9432 -0.2379 -0.0126
11116TIP3   OH254838   1.753   2.986   2.746 -0.0261  0.2350  0.2509
11116TIP3    H154839   1.808   3.021   2.816 -0.7460 -0.2789  1.0790
11116TIP3    H254840   1.782   3.032   2.668  0.4457  1.1766  0.9704
11117TIP3   OH254841   1.642   6.582   0.594  0.1897 -0.6064 -0.6932
11117TIP3    H154842   1.713   6.639   0.623 -1.3570  1.6146 -1.0752
11117TIP3    H254843   1.588   6.638   0.538 -2.2644 -2.0156  0.1796
11118TIP3   OH254844   3.897   5.623   5.007  0.1032  0.2086  0.2920
11118TIP3    H154845   3.840   5.569   4.952  0.9485  0.2123 -0.5992
11118TIP3    H254846   3.985   5.605   4.975  0.5389  0.8407  1.1139
11119TIP3   OH254847   1.414   0.739  15.120  0.3121 -0.3129 -1.5399
11119TIP3    H154848   1.449   0.753  15.208  0.8651 -1.5053 -1.5745
11119TIP3    H254849   1.464   0.800  15.065  1.5472 -1.1995 -1.4063
11120TIP3   OH254850   4.964   2.756  12.642  0.4005 -0.1152  0.1761
11120TIP3    H154851   4.935   2.819  12.709  0.8719  0.7836 -0.4464
11120TIP3    H254852   5.003   2.684  12.692 -0.3418 -0.0204  0.9107
11121TIP3   OH254853   0.824   0.456   3.031  0.2603  0.9844 -0.2611
11121TIP3    H154854   0.800   0.388   2.969 -0.2728 -0.5057  1.5262
11121TIP3    H254855   0.889   0.415   3.088 -1.3426  1.3622  1.9221
11122TIP3   OH254856   4.261   1.408   6.443 -0.4325 -0.0785  0.2558
11122TIP3    H154857   4.318   1.423   6.518 -1.1311 -2.0933  1.2471
11122TIP3    H254858   4.201   1.483   6.443 -1.6437 -0.9755  2.9104
11123TIP3   OH254859   0.000   3.480  11.150 -0.1608  0.4420  0.1185
11123TIP3    H154860   0.096   3.482  11.147 -0.1093  0.8353  1.4544
11123TIP3    H254861  -0.021   3.496  11.242 -1.4485 -2.0195  0.2964
11124TIP3   OH254862   0.629   2.071   5.762  0.6072 -0.2972 -0.2157
11124TIP3    H154863   0.634   2.030   5.675  1.0217  1.3545 -0.9939
11124TIP3    H254864   0.536   2.086   5.775  0.6119  0.2654 -0.7821
11125TIP3   OH254865   4.310   5.961   4.562 -0.3557  0.3402  0.1654
11125TIP3    H154866   4.224   5.975   4.522 -0.9254 -0.6591  1.0062
11125TIP3    H254867   4.313   6.023   4.634 -0.2511  0.5838 -0.0498
11126TIP3   OH254868   5.504   6.357  12.299  0.4743  0.1606 -0.7669
11126TIP3    H154869   5.521   6.338  12.391  0.9240  0.6839 -0.7383
11126TIP3    H254870   5.417   6.321  12.282  0.9297 -1.0922 -0.4811
11127TIP3   OH254871   6.182   2.832   2.252 -0.3533  0.0153  0.2657
11127TIP3    H154872   6.196   2.739   2.233 -0.1850 -0.0250  0.5852
11127TIP3    H254873   6.167   2.835   2.347 -1.0960  0.2273  0.1448
11128TIP3   OH254874   5.075   0.681  12.583 -0.4972 -0.1501  0.2709
11128TIP3    H154875   5.038   0.759  12.541 -1.6596 -0.4476  0.7147
11128TIP3    H254876   5.050   0.609  12.526  0.8505 -0.1809 -0.3069
11129TIP3   OH254877   0.485   2.663   5.323  0.4018 -0.9357 -0.1218
11129TIP3    H154878   0.567   2.689   5.280  1.2742  0.7339  2.4384
11129TIP3    H254879   0.507   2.659   5.416 -1.7777 -3.1337  0.3490
11130TIP3   OH254880   5.669   6.313  11.114  0.1432 -0.2957 -0.4648
11130TIP3    H154881   5.684   6.221  11.139  0.8062 -0.1010 -0.1516
11130TIP3    H254882   5.611   6.307  11.039  0.2515 -0.9825 -0.5033
11131TIP3   OH254883   6.019   4.294   4.864 -0.2815 -0.2505  0.7599
11131TIP3    H154884   6.046   4.385   4.876  0.7391 -0.5410  0.6477
11131TIP3    H254885   5.941   4.300   4.808 -1.4614  0.6875  2.4234
11132TIP3   OH254886   3.058   4.469   5.640  0.3828 -0.1600  0.2080
11132TIP3    H154887   3.116   4.483   5.715  0.0599  0.2172  0.3908
11132TIP3    H254888   3.080   4.381   5.609 -1.2773 -1.4090  2.3510
11133TIP3   OH254889   4.697   0.108  17.140 -0.2902  0.2668 -0.3458
11133TIP3    H154890   4.789   0.133  17.152 -0.0514 -1.0391  0.6475
11133TIP3    H254891   4.690   0.022  17.181 -2.0133  0.4481 -0.2158
11134TIP3   OH254892   2.595   6.376   1.838 -0.0108 -0.1517  0.3104
11134TIP3    H154893   2.518   6.354   1.785  0.7055 -1.7269 -0.1022
11134TIP3    H254894   2.659   6.308   1.817  0.6070 -0.2968  2.5410
11135TIP3   OH254895   5.766   2.831  12.315  0.2742 -0.2261  0.2362
11135TIP3    H154896   5.738   2.844  12.224 -0.9608 -0.9653  0.4985
11135TIP3    H254897   5.815   2.911  12.336  0.9373 -0.2444 -1.2137
11136TIP3   OH254898   5.334   2.288   0.036  0.4456  0.5165  0.3899
11136TIP3    H154899   5.315   2.195   0.022  1.9610  0.1697  0.5997
11136TIP3    H254900   5.276   2.333  -0.025 -0.4993 -0.5489  0.4733
11137TIP3   OH254901   2.015   4.265  11.396  0.3955  0.4374  0.4406
11137TIP3    H154902   2.009   4.351  11.436 -1.5849 -0.6656  2.6398
11137TIP3    H254903   2.105   4.237  11.414  0.5609  1.3931  1.1294
11138TIP3   OH254904   2.241   0.949   4.647  0.2122 -0.0600 -0.1301
11138TIP3    H154905   2.261   0.960   4.740  1.2503 -2.1541 -0.0838
11138TIP3    H254906   2.192   0.867   4.643 -0.3264  0.3118 -1.3866
11139TIP3   OH254907   3.946   1.837  13.905 -0.2849 -0.7160 -0.2454
11139TIP3    H154908   3.995   1.919  13.894 -0.6585 -0.5074 -0.3570
11139TIP3    H254909   3.992   1.774  13.848 -0.0543 -0.5608 -0.2315
11140TIP3   OH254910   4.339   1.996  16.671 -0.2105 -0.5880 -0.0249
11140TIP3    H154911   4.414   1.939  16.689 -1.9559 -2.6583  0.9471
11140TIP3    H254912   4.316   2.033  16.756 -0.6640 -0.4397 -0.2115
11141TIP3   OH254913   1.794   3.068  13.773  0.1841  0.2570 -0.0747
11141TIP3    H154914   1.821   2.995  13.828 -0.8168 -1.0057 -1.2113
11141TIP3    H254915   1.870   3.088  13.719  1.1911  1.5476  1.7937
11142TIP3   OH254916   0.243   0.241  16.055  0.0570 -0.3388  0.7619
11142TIP3    H154917   0.265   0.175  15.989  2.9004 -0.6363  1.9198
11142TIP3    H254918   0.199   0.192  16.124 -0.8617 -0.4158  0.1325
11143TIP3   OH254919   0.872   1.509  16.453 -0.7752 -0.2560  0.4640
11143TIP3    H154920   0.832   1.566  16.388  0.1091 -1.5984 -1.2929
11143TIP3    H254921   0.818   1.430  16.454 -0.5606 -0.4017  1.0930
11144TIP3   OH254922   5.924   4.272  14.200  0.2271 -0.0342  0.1527
11144TIP3    H154923   5.886   4.307  14.281  0.0158 -0.4828  0.2507
11144TIP3    H254924   5.921   4.177  14.212  0.8878 -0.0839 -0.0655
11145TIP3   OH254925   3.986   1.653   2.961  0.3778 -0.3999 -0.6865
11145TIP3    H154926   3.911   1.704   2.992 -1.1811 -2.1723 -1.4855
11145TIP3    H254927   4.058   1.717   2.957 -1.0356  1.2892  0.2256
11146TIP3   OH254928   2.722   3.230  16.827  0.2006 -0.1844 -0.4765
11146TIP3    H154929   2.718   3.294  16.898  2.1429  0.4345 -0.8717
11146TIP3    H254930   2.697   3.279  16.749 -1.7281 -0.8119 -0.2743
11147TIP3   OH254931   2.810   1.077  15.257 -0.1544  0.1503  0.0959
11147TIP3    H154932   2.831   1.040  15.342  1.4108 -2.0839 -1.2096
11147TIP3    H254933   2.719   1.051  15.241 -0.4549  0.5906  1.0547
11148TIP3   OH254934   1.763   5.574  13.621  0.1492 -0.2731  0.8643
11148TIP3    H154935   1.734   5.537  13.704  0.5353  0.2789  1.2444
11148TIP3    H254936   1.858   5.569  13.623  0.1211 -1.3627 -0.0559
11149TIP3   OH254937   6.153   3.713  15.867  0.1012 -0.4456  0.5808
11149TIP3    H154938   6.110   3.747  15.946 -1.4360  1.4499 -1.0468
11149TIP3    H254939   6.232   3.670  15.901  0.3493  1.7885  3.0237
11150TIP3   OH254940   5.347   3.595  13.948 -0.9625  0.0709  0.3718
11150TIP3    H154941   5.427   3.544  13.958  0.6735  2.3536 -0.5956
11150TIP3    H254942   5.354   3.664  14.014 -0.3264  2.4699 -2.1080
11151TIP3   OH254943   1.381   6.207   5.172 -0.1134  0.2375 -0.5080
11151TIP3    H154944   1.332   6.282   5.138 -2.3126  0.7517  3.4959
11151TIP3    H254945   1.421   6.239   5.253  2.4411 -1.7784 -0.8909
11152TIP3   OH254946   5.567   3.559   6.384 -0.0317  0.0693 -0.4318
11152TIP3    H154947   5.606   3.643   6.360 -0.0766 -0.1893 -1.4119
11152TIP3    H254948   5.540   3.571   6.475  0.5566  0.8961 -0.3577
11153TIP3   OH254949   2.138   4.860  17.260  0.0095 -0.1332 -0.2416
11153TIP3    H154950   2.148   4.942  17.213  0.7855 -0.5246 -0.7602
11153TIP3    H254951   2.044   4.854  17.278 -0.3875 -0.2665 -2.2560
11154TIP3   OH254952   3.851   2.238   3.612 -0.3203  0.3736 -0.1655
11154TIP3    H154953   3.897   2.256   3.530 -0.6834  1.4572 -0.1469
11154TIP3    H254954   3.864   2.318   3.664 -0.3816 -0.1712  0.6929
11155TIP3   OH254955   2.180   1.549   3.699  0.3564  0.5475 -0.1666
11155TIP3    H154956   2.104   1.585   3.653  0.2135 -0.3623 -0.6563
11155TIP3    H254957   2.243   1.528   3.630  1.5508  2.3949  0.3181
11156TIP3   OH254958   6.002   3.079  11.262  0.0430 -0.0922  0.5598
11156TIP3    H154959   5.980   3.064  11.170  3.9135 -0.6843 -0.3561
11156TIP3    H254960   6.014   2.991  11.298  3.0662  0.1752  0.3597
11157TIP3   OH254961   2.315   0.692  15.553  0.0417 -0.3314  0.5767
11157TIP3    H154962   2.332   0.639  15.630 -0.7091  0.7222  1.4830
11157TIP3    H254963   2.220   0.705  15.553 -0.0405 -0.8761 -0.8898
11158TIP3   OH254964   0.063   1.446   3.789  0.6909 -0.0696 -0.0692
11158TIP3    H154965   0.022   1.479   3.708 -0.1058  0.2599  0.4580
11158TIP3    H254966   0.132   1.388   3.759  0.3043 -0.0632 -0.9923
11159TIP3   OH254967   4.336   4.299   2.859 -0.1467 -0.5461  0.1365
11159TIP3    H154968   4.261   4.309   2.801 -0.9116 -0.7346  1.0912
11159TIP3    H254969   4.305   4.244   2.930  1.3517 -1.9639 -0.2578
11160TIP3   OH254970   4.955   5.360  14.171  0.1487  0.5146  0.3178
11160TIP3    H154971   4.955   5.375  14.077 -1.0187  1.3038  0.4356
11160TIP3    H254972   4.963   5.447  14.210  1.5833  0.1128  0.9515
11161TIP3   OH254973   1.884   3.641   6.270 -0.4144  0.2737  0.5119
11161TIP3    H154974   1.876   3.619   6.177 -0.0699  0.1721  0.5039
11161TIP3    H254975   1.926   3.727   6.271  1.6156 -0.6868  0.6076
11162TIP3   OH254976   4.837   5.053   0.340 -0.4291 -0.3778 -0.0685
11162TIP3    H154977   4.743   5.058   0.354 -0.3309  2.9145 -0.2168
11162TIP3    H254978   4.873   5.047   0.429 -0.7388 -1.5216 -0.0068
11163TIP3   OH254979   3.401   2.413  13.191  0.4802  0.6433  0.8964
11163TIP3    H154980   3.457   2.343  13.225  0.1441  0.5315  1.2219
11163TIP3    H254981   3.380   2.466  13.268  0.7765  1.1367  0.6436
11164TIP3   OH254982   0.090   6.572  16.427 -0.3101 -0.4022  0.0648
11164TIP3    H154983   0.012   6.626  16.427 -0.6725 -0.9242  0.4230
11164TIP3    H254984   0.163   6.634  16.425 -0.7033  0.1133  1.3562
11165TIP3   OH254985   1.411   3.390   3.115 -0.6167  0.0371  0.4663
11165TIP3    H154986   1.395   3.302   3.082 -0.1483 -0.7033  2.1532
11165TIP3    H254987   1.331   3.439   3.095 -0.8828 -0.7760 -0.4627
11166TIP3   OH254988   4.179   1.069   5.412  0.4768  0.4410  0.3500
11166TIP3    H154989   4.112   1.000   5.418  0.4799  0.5711  1.8466
11166TIP3    H254990   4.237   1.038   5.342 -1.4452  0.5942 -1.3851
11167TIP3   OH254991   2.112   5.937  10.830  0.2548 -0.5822 -1.0098
11167TIP3    H154992   2.036   5.993  10.850 -0.1876 -1.6580  0.4156
11167TIP3    H254993   2.091   5.899  10.745  0.3546  1.0554 -1.7953
11168TIP3   OH254994   5.219   2.053  14.089  0.2662 -0.1937  0.1817
11168TIP3    H154995   5.239   1.964  14.063 -0.1869 -0.3065  0.2101
11168TIP3    H254996   5.148   2.080  14.031  2.2109  1.1244 -1.6814
11169TIP3   OH254997   0.566   5.458   4.475  0.5514  0.5125 -0.1499
11169TIP3    H154998   0.650   5.494   4.447  3.0288 -4.3238  0.5313
11169TIP3    H254999   0.574   5.451   4.570 -0.0646 -1.1635 -0.2063
11170TIP3   OH255000   0.900   6.643  12.065  0.9830 -0.4380  0.6367
11170TIP3    H155001   0.894   6.563  12.014 -0.1849  0.1886 -0.2479
11170TIP3    H255002   0.926   6.710  12.001  0.1622  0.2186  0.9771
11171TIP3   OH255003   2.434   6.119  13.687  0.1526  0.6454  0.0925
11171TIP3    H155004   2.420   6.136  13.780  1.2670  1.0621  0.1958
11171TIP3    H255005   2.511   6.172  13.665  0.0505  0.3427 -1.0022
11172TIP3   OH255006   1.179   1.440   2.812 -0.0113  0.2428 -0.0576
11172TIP3    H155007   1.147   1.363   2.765  1.0395 -0.6061  0.6217
11172TIP3    H255008   1.194   1.505   2.743  1.2216 -0.8921 -0.8707
11173TIP3   OH255009   1.983   4.209  15.789 -0.5550 -0.3473  0.3852
11173TIP3    H155010   1.968   4.129  15.839 -2.2088 -0.4990 -0.3187
11173TIP3    H255011   1.905   4.218  15.735  0.3215  0.9031 -0.6930
11174TIP3   OH255012   6.189   1.020  12.468 -0.1848  0.1404  0.0372
11174TIP3    H155013   6.181   1.115  12.468  0.0179  0.1588  0.0396
11174TIP3    H255014   6.258   1.002  12.404  0.8387  0.0966  1.1204
11175TIP3   OH255015   0.439   3.316  11.524 -0.0200  0.4970  0.0945
11175TIP3    H155016   0.476   3.398  11.492 -0.8642  0.3553 -1.3028
11175TIP3    H255017   0.478   3.303  11.611  0.3816  2.1908  0.1707
11176TIP3   OH255018   3.537   4.379   3.397 -0.2351  0.5412 -0.3875
11176TIP3    H155019   3.448   4.344   3.397 -0.0446  0.0577 -1.2407
11176TIP3    H255020   3.563   4.379   3.305  1.1457 -0.5855 -0.0014
11177TIP3   OH255021   4.406   2.956  14.494  0.4661 -0.2285  0.1320
11177TIP3    H155022   4.318   2.953  14.532  0.9263  0.2412  1.2447
11177TIP3    H255023   4.415   3.047  14.464  1.0170  0.0415  1.0985
11178TIP3   OH255024   0.825   4.111   4.411  0.4817 -0.1718 -0.0641
11178TIP3    H155025   0.730   4.109   4.423  0.3700  3.3066  0.1368
11178TIP3    H255026   0.837   4.111   4.316 -0.0270  4.3623 -0.2511
11179TIP3   OH255027   4.880   3.483   3.353 -0.2297 -0.2280 -0.0435
11179TIP3    H155028   4.885   3.578   3.342  0.2024 -0.2979 -0.4565
11179TIP3    H255029   4.970   3.456   3.372 -0.3058 -0.5901 -0.2054
11180TIP3   OH255030   2.260   0.978   1.543 -0.3282 -0.4527  0.0876
11180TIP3    H155031   2.314   1.056   1.556  0.1464 -0.9898  1.3670
11180TIP3    H255032   2.321   0.912   1.508 -0.4828 -0.6074  0.1102
11181TIP3   OH255033   0.045   4.647   1.088  0.0418  1.3299  0.4083
11181TIP3    H155034   0.112   4.651   1.020  0.8887 -2.8202  0.8982
11181TIP3    H255035   0.095   4.640   1.170 -0.9839  1.0672  1.0138
11182TIP3   OH255036   5.138   3.869  14.373 -0.0326 -0.3846 -0.1972
11182TIP3    H155037   5.170   3.819  14.448 -0.3286 -1.3285 -0.6881
11182TIP3    H255038   5.054   3.905  14.402  0.3360  0.1009  0.2714
11183TIP3   OH255039   0.832   2.601   5.905 -0.3845  0.3336 -0.5874
11183TIP3    H155040   0.751   2.647   5.925 -0.0112  0.2488  1.1423
11183TIP3    H255041   0.808   2.539   5.837 -2.1852 -0.9829  1.2175
11184TIP3   OH255042   1.144   2.537   0.526 -0.3896 -0.3974  0.5311
11184TIP3    H155043   1.087   2.601   0.484  0.8686  1.1569  1.1371
11184TIP3    H255044   1.098   2.512   0.606 -0.6623  0.1587  0.5511
11185TIP3   OH255045   5.481   5.708  17.126  0.0440 -0.3888 -0.0732
11185TIP3    H155046   5.454   5.631  17.175  2.8498  0.4069  2.9039
11185TIP3    H255047   5.575   5.716  17.142  0.0547  2.9465 -1.2820
11186TIP3   OH255048   1.029   0.633   0.106  0.2546  0.1380 -0.3068
11186TIP3    H155049   1.096   0.650   0.172 -0.9472 -0.9159  1.2188
11186TIP3    H255050   1.013   0.719   0.066 -1.3418  1.4673  3.0476
11187TIP3   OH255051   4.896   3.600   2.581  0.6610 -0.8158 -0.4668
11187TIP3    H155052   4.850   3.622   2.661  0.2529  0.8128 -1.1348
11187TIP3    H255053   4.958   3.532   2.607 -0.6346 -1.5076  0.8631
11188TIP3   OH255054   1.546   4.454   3.421  0.0410  0.8218 -0.1818
11188TIP3    H155055   1.520   4.499   3.341  1.0602  0.2141 -0.8729
11188TIP3    H255056   1.638   4.478   3.434  0.0473  0.4610  0.4969
11189TIP3   OH255057   0.040   2.478  13.359 -0.5582 -0.8070 -0.1918
11189TIP3    H155058   0.123   2.440  13.388 -0.4500 -2.2018 -2.1975
11189TIP3    H255059  -0.026   2.415  13.389 -0.6688 -0.9676 -0.7750
11190TIP3   OH255060   3.990   4.289  14.521 -0.3049  0.5704  0.3995
11190TIP3    H155061   3.902   4.324  14.538  0.1371  1.7068  0.3986
11190TIP3    H255062   4.001   4.297  14.427 -0.2750  0.2265  0.3724
11191TIP3   OH255063   5.072   0.579  16.650 -0.7303  0.3758 -0.4778
11191TIP3    H155064   5.043   0.642  16.584 -3.1974  1.1799  1.2950
11191TIP3    H255065   5.148   0.620  16.692  0.9393 -0.1971 -2.8295
11192TIP3   OH255066   0.516   6.683  13.821 -0.3880 -0.4631 -0.3265
11192TIP3    H155067   0.536   6.682  13.728  1.2104 -0.0529  0.0036
11192TIP3    H255068   0.519   6.591  13.847  2.0398 -0.3534 -0.1046
11193TIP3   OH255069   1.255   4.505  15.463 -0.6188  0.1700  0.6276
11193TIP3    H155070   1.297   4.483  15.546  0.3135 -2.1776 -0.4168
11193TIP3    H255071   1.187   4.438  15.452  0.8895 -1.0783 -1.6407
11194TIP3   OH255072   2.304   0.863  15.189 -0.0413  0.5344 -1.0652
11194TIP3    H155073   2.238   0.793  15.186 -1.0604  1.4256  0.0796
11194TIP3    H255074   2.387   0.817  15.200 -0.8672 -0.4224  1.4104
11195TIP3   OH255075   3.625   5.913  11.581 -0.2010  0.0592  0.9115
11195TIP3    H155076   3.547   5.922  11.526 -0.4132 -1.7416  0.8638
11195TIP3    H255077   3.692   5.964  11.536 -0.8147 -0.0325 -0.1343
11196TIP3   OH255078   3.361   4.559   1.871 -0.0249  0.6414  0.7459
11196TIP3    H155079   3.438   4.611   1.846  0.3202 -0.2753 -0.1747
11196TIP3    H255080   3.296   4.580   1.804  0.1010 -0.0633  0.3977
11197TIP3   OH255081   3.098   2.064   0.355 -0.2800 -0.3940  0.2372
11197TIP3    H155082   3.043   2.044   0.279 -1.3189  0.1738  0.8229
11197TIP3    H255083   3.105   2.159   0.354  0.4748 -0.4453  0.3330
11198TIP3   OH255084   0.848   4.240   2.320  0.8934 -0.1097  0.2058
11198TIP3    H155085   0.791   4.232   2.244  0.8907  0.3345  0.1591
11198TIP3    H255086   0.835   4.330   2.351  0.4171 -0.4892  1.1119
11199TIP3   OH255087   0.661   6.713  14.103  0.4644  0.3088 -0.0559
11199TIP3    H155088   0.750   6.748  14.107  0.6750  0.0523 -2.1757
11199TIP3    H255089   0.627   6.744  14.019 -1.2215 -0.1478  0.4446
11200TIP3   OH255090   4.904   3.435  11.564 -0.0513 -0.1261  0.6442
11200TIP3    H155091   4.918   3.482  11.646 -0.8782 -1.5904  1.6483
11200TIP3    H255092   4.947   3.350  11.578 -0.1813 -0.3755 -0.4454
11201TIP3   OH255093   1.432   2.006  15.073 -0.1989  0.5878  0.1951
11201TIP3    H155094   1.441   2.003  15.168  1.4930 -2.7032  0.0114
11201TIP3    H255095   1.510   1.961  15.040  0.0286  3.0165 -2.8233
11202TIP3   OH255096   5.438   1.520   6.068 -0.0531 -0.1002  0.3833
11202TIP3    H155097   5.406   1.595   6.118  0.6026  0.3521  0.1308
11202TIP3    H255098   5.521   1.497   6.109  0.9085  0.8070 -0.9958
11203TIP3   OH255099   0.037   3.650  16.190  0.4571 -0.5679  0.2650
11203TIP3    H155100   0.032   3.559  16.161  0.9658 -1.0207  1.5596
11203TIP3    H255101  -0.021   3.698  16.131 -0.4726 -1.8731  0.1157
11204TIP3   OH255102   2.119   3.687  16.950 -0.8497 -0.3709  0.1046
11204TIP3    H155103   2.149   3.607  16.907 -3.8538 -1.3925 -0.1986
11204TIP3    H255104   2.066   3.656  17.023 -2.4872  1.3319 -0.3243
11205TIP3   OH255105   3.548   0.009  12.257 -0.5863  0.1724  0.4834
11205TIP3    H155106   3.522   0.033  12.346  2.3979 -0.5038  1.6184
11205TIP3    H255107   3.565   0.092  12.213  0.1413  0.4427  1.2712
11206TIP3   OH255108   0.891   6.814  16.969 -0.3235 -0.6792 -0.0602
11206TIP3    H155109   0.798   6.831  16.982 -0.5012 -1.4158 -0.3531
11206TIP3    H255110   0.909   6.842  16.880 -0.6911 -2.2610 -0.6616
11207TIP3   OH255111   0.987   3.717   6.073 -0.0354 -0.0314 -0.2388
11207TIP3    H155112   0.913   3.664   6.043 -0.1030  0.9953 -1.9670
11207TIP3    H255113   0.949   3.803   6.091  0.2492 -0.2676  1.5997
11208TIP3   OH255114   6.602   1.999   2.555 -0.6711  0.1412  0.1106
11208TIP3    H155115   6.660   2.006   2.479  0.6742  0.5725  1.1589
11208TIP3    H255116   6.547   2.077   2.550  0.9057  1.3222  0.7797
11209TIP3   OH255117   1.669   4.516   3.792  0.6380  0.8602 -0.1100
11209TIP3    H155118   1.754   4.541   3.827  1.1205 -0.2643 -0.4565
11209TIP3    H255119   1.661   4.566   3.710  2.4240 -1.4500 -1.7730
11210TIP3   OH255120   4.826   4.967   3.692  0.2992 -0.6632 -0.2213
11210TIP3    H155121   4.740   4.967   3.649 -0.6633  1.3627  1.5843
11210TIP3    H255122   4.831   4.882   3.735 -2.4130  0.4720  2.5815
11211TIP3   OH255123   4.581   2.149   6.167 -0.0564 -0.3078 -0.4859
11211TIP3    H155124   4.645   2.088   6.204  0.7672 -0.1616 -1.6636
11211TIP3    H255125   4.631   2.228   6.147 -0.5058 -0.3505 -1.8327
11212TIP3   OH255126   3.083   5.230   4.338 -0.4282  0.0596 -0.6757
11212TIP3    H155127   3.017   5.261   4.276  0.3902  1.0052 -1.0738
11212TIP3    H255128   3.149   5.298   4.339 -1.1079  0.7484  2.2895
11213TIP3   OH255129   4.372   0.318  12.679 -0.5386  0.2187 -0.1195
11213TIP3    H155130   4.286   0.325  12.638 -0.3248  1.1365 -0.4296
11213TIP3    H255131   4.400   0.409  12.691 -0.3652 -0.0457  1.5859
11214TIP3   OH255132   2.775   1.496  13.900  0.0396  0.1705 -0.1118
11214TIP3    H155133   2.783   1.578  13.851  0.8137  0.1354 -0.0513
11214TIP3    H255134   2.682   1.475  13.896  0.2384 -0.4049 -2.5249
11215TIP3   OH255135   4.161   5.104   2.629  0.0418  0.2814 -0.6419
11215TIP3    H155136   4.188   5.123   2.719  0.5052 -2.6057 -0.1032
11215TIP3    H255137   4.069   5.127   2.627  0.1760  0.9638  0.4026
11216TIP3   OH255138   0.382   1.360  16.377  0.8673 -0.0793 -0.1049
11216TIP3    H155139   0.405   1.408  16.456  0.3516 -0.1651  0.1000
11216TIP3    H255140   0.401   1.268  16.398  0.4930 -0.1317  0.0101
11217TIP3   OH255141   0.393   2.911   0.881 -0.1293  0.4130 -0.1267
11217TIP3    H155142   0.401   2.943   0.791  0.4586 -0.3231 -0.3372
11217TIP3    H255143   0.373   2.990   0.933  1.3353  1.1315 -0.6334
11218TIP3   OH255144   5.186   2.267  14.272  0.1797  0.0443  0.2015
11218TIP3    H155145   5.104   2.232  14.309  0.5139 -0.1087  0.8009
11218TIP3    H255146   5.216   2.199  14.212  1.4104 -1.2196  2.1868
11219TIP3   OH255147   3.178   3.569  12.814 -0.0943 -0.2815 -0.1381
11219TIP3    H155148   3.199   3.590  12.905  0.3604  0.0093 -0.3054
11219TIP3    H255149   3.100   3.620  12.795 -1.7206 -2.3307  0.8731
11220TIP3   OH255150   6.744   0.053  16.179  0.0447 -0.9510  0.3860
11220TIP3    H155151   6.701   0.029  16.096  0.8272 -2.0642  0.2979
11220TIP3    H255152   6.673   0.055  16.243 -0.9065  1.8459 -0.6689
11221TIP3   OH255153   2.635   2.526  17.032 -0.2322 -0.3566  0.2074
11221TIP3    H155154   2.672   2.442  17.061 -2.1551 -1.3661 -0.2220
11221TIP3    H255155   2.664   2.535  16.941  0.4393 -0.2786  0.4257
11222TIP3   OH255156   6.417   1.000   1.456 -0.3891  0.6388 -0.1488
11222TIP3    H155157   6.489   1.028   1.513 -0.7342  0.3359  0.4399
11222TIP3    H255158   6.340   1.044   1.492 -0.7755 -0.3138  0.2049
11223TIP3   OH255159   1.295   0.223   0.773  0.5820  0.5528  0.2511
11223TIP3    H155160   1.232   0.233   0.844 -1.6323 -1.6738 -1.3134
11223TIP3    H255161   1.336   0.137   0.789 -0.5662 -0.3700 -1.5885
11224TIP3   OH255162   3.016   2.684  11.622 -0.3107 -0.1877 -0.1127
11224TIP3    H155163   2.957   2.694  11.547 -0.3719 -0.0279 -0.0441
11224TIP3    H255164   2.963   2.638  11.688 -0.4926  0.3322  0.1037
11225TIP3   OH255165   0.150   0.122  14.231 -0.3801  0.3107 -0.0914
11225TIP3    H155166   0.228   0.113  14.285 -0.0009 -2.3771 -1.0009
11225TIP3    H255167   0.122   0.032  14.214 -3.0001  1.1963 -0.7622
11226TIP3   OH255168   3.281   4.197   1.341  0.0372  0.0510 -0.4467
11226TIP3    H155169   3.301   4.287   1.316 -0.0363  0.0046 -0.6794
11226TIP3    H255170   3.366   4.154   1.345  0.0627  0.1001 -0.4541
11227TIP3   OH255171   3.402   0.041   1.981 -0.5550  0.5395 -0.3594
11227TIP3    H155172   3.354  -0.026   1.932 -0.3350  2.1611 -2.9477
11227TIP3    H255173   3.447   0.091   1.913  1.0718  1.9117  1.6868
11228TIP3   OH255174   5.196   3.969  13.662  0.6020  0.2268  0.5074
11228TIP3    H155175   5.213   3.877  13.684 -1.1468  0.1686  1.7523
11228TIP3    H255176   5.192   4.013  13.746  0.6787  1.3078 -0.0511
11229TIP3   OH255177   3.506   3.001  12.145  0.6352  0.1470  0.0740
11229TIP3    H155178   3.599   3.016  12.130  0.4794 -0.0258 -1.1290
11229TIP3    H255179   3.482   2.934  12.080 -0.4037  0.4926  0.0967
11230TIP3   OH255180   0.865   0.810  12.936  0.7230 -0.2504  0.1137
11230TIP3    H155181   0.935   0.876  12.936  0.7138 -0.2023 -2.4031
11230TIP3    H255182   0.901   0.737  12.887 -0.6382 -0.6286 -0.3467
11231TIP3   OH255183   3.809   0.202  13.939  0.0020 -0.5388 -0.3208
11231TIP3    H155184   3.818   0.238  14.027  1.4668 -0.6976 -0.3858
11231TIP3    H255185   3.728   0.241  13.905  1.4310  2.5962 -0.3048
11232TIP3   OH255186   6.733   4.169  12.736 -0.5993 -0.4361 -0.1131
11232TIP3    H155187   6.719   4.114  12.813  0.2163 -0.1801  0.2267
11232TIP3    H255188   6.819   4.209  12.751 -0.1856 -0.8039 -1.4162
11233TIP3   OH255189   2.908   6.592  14.269  0.1804 -0.2936  0.0075
11233TIP3    H155190   2.928   6.645  14.192 -0.4261  0.8629  0.6199
11233TIP3    H255191   2.882   6.656  14.336 -0.9979 -1.3843  0.6323
11234TIP3   OH255192   5.298   4.828   1.142  0.1754  0.4292  0.6162
11234TIP3    H155193   5.317   4.885   1.067  3.3406 -2.6810 -1.0986
11234TIP3    H255194   5.225   4.774   1.113 -0.9581  1.6681  1.1542
11235TIP3   OH255195   6.521   5.471  11.946  0.0079 -0.5366 -0.1836
11235TIP3    H155196   6.554   5.528  12.016  0.7498 -0.2429 -0.7654
11235TIP3    H255197   6.487   5.395  11.992 -1.0050  0.3685  0.6147
11236TIP3   OH255198   2.764   0.810  14.969  0.4975 -0.0279  0.3190
11236TIP3    H155199   2.820   0.765  14.906 -0.7320 -0.7172 -0.2984
11236TIP3    H255200   2.819   0.822  15.046  2.0144  0.7928 -0.8571
11237TIP3   OH255201   4.141   1.467  15.731  0.1482 -0.1971  0.3893
11237TIP3    H155202   4.056   1.424  15.725  0.1687  0.0924 -2.5372
11237TIP3    H255203   4.205   1.398  15.714  0.2732  0.4589 -2.0183
11238TIP3   OH255204   6.271   1.949  15.449 -0.5513  0.0451 -0.1669
11238TIP3    H155205   6.360   1.930  15.478 -0.5695  0.5038  0.2039
11238TIP3    H255206   6.222   1.963  15.530 -1.0342 -0.5014 -0.3604
11239TIP3   OH255207   4.437   3.190  15.941 -0.5677  0.4615  0.1301
11239TIP3    H155208   4.486   3.167  16.020 -1.2651  1.4086  0.8606
11239TIP3    H255209   4.489   3.260  15.901 -2.1359  2.6686  1.8142
11240TIP3   OH255210   1.633   4.798  14.008  0.5197 -0.5489  0.8705
11240TIP3    H155211   1.542   4.776  13.986  0.8855  1.0040 -2.4046
11240TIP3    H255212   1.683   4.721  13.979  0.2712 -1.4819  2.8401
11241TIP3   OH255213   5.644   4.865  15.999 -0.0018  0.2943 -0.4300
11241TIP3    H155214   5.656   4.770  16.002 -2.8989 -0.1070 -0.0527
11241TIP3    H255215   5.656   4.887  15.906  1.5913 -0.2872 -0.3731
11242TIP3   OH255216   1.825   0.683   0.661  0.1698  0.2517  0.4672
11242TIP3    H155217   1.880   0.645   0.592 -0.8055  0.4524 -0.4382
11242TIP3    H255218   1.737   0.653   0.640 -0.0107 -0.4889  2.2027
11243TIP3   OH255219   0.691   3.730  11.040  0.3722 -0.4292  0.0449
11243TIP3    H155220   0.646   3.667  11.096 -2.7846  1.5821 -0.1019
11243TIP3    H255221   0.695   3.689  10.954 -0.1607 -1.1149  0.3477
11244TIP3   OH255222   1.711   5.834  11.815  0.5958 -0.6226  0.1002
11244TIP3    H155223   1.795   5.861  11.853  0.6377 -0.4466 -0.1212
11244TIP3    H255224   1.647   5.858  11.881  0.7069 -0.6604  0.2232
11245TIP3   OH255225   3.813   0.036  10.969  0.8498 -0.2555 -0.5730
11245TIP3    H155226   3.859  -0.034  11.015  1.6495 -0.3105 -1.4628
11245TIP3    H255227   3.838   0.027  10.877 -2.2788 -1.3940 -1.3949
11246TIP3   OH255228   6.815   1.288  15.747  0.3494 -0.0771  0.2151
11246TIP3    H155229   6.774   1.374  15.735  2.9206  1.6946  3.1364
11246TIP3    H255230   6.902   1.299  15.709  0.7865 -1.3105  0.8581
11247TIP3   OH255231   2.573   2.242  15.974 -0.4317 -0.3842 -0.3318
11247TIP3    H155232   2.567   2.273  16.064 -0.3022 -0.3411 -0.3363
11247TIP3    H255233   2.543   2.316  15.921  0.8482  0.0900 -0.4044
11248TIP3   OH255234   1.389   0.229  16.603  0.2562 -0.1650  0.4625
11248TIP3    H155235   1.423   0.280  16.529  0.1981 -1.7478 -0.6570
11248TIP3    H255236   1.333   0.291  16.651  0.5555  0.9580 -0.6105
11249TIP3   OH255237   3.813   4.531   6.421  0.2479 -0.1152 -0.4216
11249TIP3    H155238   3.873   4.496   6.487 -0.0836  0.8831  0.4178
11249TIP3    H255239   3.737   4.473   6.424 -0.3055  0.6506  0.9813
11250TIP3   OH255240   5.472   4.368  12.490 -0.0173 -0.3140  0.1620
11250TIP3    H155241   5.458   4.295  12.429 -0.4058  0.7147 -1.0058
11250TIP3    H255242   5.564   4.362  12.514 -0.3181 -1.8644  0.9600
11251TIP3   OH255243   3.773   3.043   1.243 -0.2029 -0.1263 -0.1401
11251TIP3    H155244   3.742   2.980   1.307  1.0013  0.1083  0.6829
11251TIP3    H255245   3.719   3.027   1.165 -0.4271 -1.6315  0.3156
11252TIP3   OH255246   6.717   5.221  15.558 -0.1285  0.8100  0.7250
11252TIP3    H155247   6.721   5.306  15.513  0.3708  0.6104  0.3965
11252TIP3    H255248   6.629   5.219  15.596 -0.9106  0.5556 -1.0580
11253TIP3   OH255249   2.954   0.025  11.524  0.3787 -0.3966 -0.2396
11253TIP3    H155250   2.943   0.120  11.530  1.6144 -0.2550 -0.1064
11253TIP3    H255251   2.925   0.003  11.435  0.4617  0.1642 -0.4095
11254TIP3   OH255252   0.965   4.348   3.433 -0.4612 -0.2240  0.1235
11254TIP3    H155253   0.998   4.435   3.408  1.5422 -1.5237 -1.9156
11254TIP3    H255254   1.034   4.312   3.488 -2.9868  0.9233  4.2600
11255TIP3   OH255255   4.865   0.486  14.093  0.5298 -0.3648  0.2585
11255TIP3    H155256   4.891   0.509  14.182  1.3147 -1.5473  0.3444
11255TIP3    H255257   4.798   0.418  14.104 -0.8465  0.9370 -0.0175
11256TIP3   OH255258   1.912   0.567   1.115 -0.2767 -0.0140 -0.2748
11256TIP3    H155259   1.899   0.592   1.207 -1.4258 -0.1039 -0.4101
11256TIP3    H255260   1.977   0.629   1.083 -0.7206  0.7548  0.2883
11257TIP3   OH255261   3.903   5.974   5.389 -0.3145  0.2477 -0.9419
11257TIP3    H155262   3.879   5.918   5.463  1.8091  0.4904 -0.0266
11257TIP3    H255263   3.880   5.923   5.311 -2.1055 -0.2242 -0.1375
11258TIP3   OH255264   1.873   3.700   4.458  0.3882  0.2599 -0.0076
11258TIP3    H155265   1.859   3.623   4.403  3.1527 -0.9523  0.9152
11258TIP3    H255266   1.834   3.772   4.409 -1.2639 -1.5246 -1.3990
11259TIP3   OH255267   0.176   0.434   2.514  0.0217  0.0217 -0.3749
11259TIP3    H155268   0.257   0.392   2.541 -0.1545 -0.8202 -1.1391
11259TIP3    H255269   0.108   0.397   2.571  0.2162  0.9424  0.4609
11260TIP3   OH255270   2.936   5.792   1.846  0.3293 -0.2182 -0.3967
11260TIP3    H155271   2.948   5.815   1.938 -0.8226 -1.8537  0.1836
11260TIP3    H255272   3.023   5.768   1.815  0.5398 -0.6426  0.5324
11261TIP3   OH255273   4.301   6.605   5.344  0.5995  0.7763 -0.6512
11261TIP3    H155274   4.244   6.682   5.342  0.8581  0.9537 -1.3952
11261TIP3    H255275   4.384   6.638   5.379  0.2454  0.5173  0.4385
11262TIP3   OH255276   3.079   0.090   2.440  0.1554  0.2583 -0.1417
11262TIP3    H155277   3.159   0.046   2.470  1.3465  1.2424 -1.7239
11262TIP3    H255278   3.011   0.063   2.501  1.5053 -1.3793  0.6695
11263TIP3   OH255279   5.359   5.616  14.409 -0.2627  0.0245  0.2713
11263TIP3    H155280   5.351   5.712  14.410  3.5923  0.4262  1.6109
11263TIP3    H255281   5.384   5.595  14.320  1.1082  0.5104  0.5349
11264TIP3   OH255282   1.820   1.511   4.077 -0.0773  0.1835 -0.1955
11264TIP3    H155283   1.869   1.481   4.001  0.1479  0.3717 -0.1235
11264TIP3    H255284   1.750   1.446   4.087 -0.4514  0.4622 -0.9065
11265TIP3   OH255285   2.628   4.577  15.906 -0.8237  0.7672  0.1232
11265TIP3    H155286   2.556   4.532  15.950 -3.4215  3.0734 -1.6009
11265TIP3    H255287   2.610   4.565  15.812  1.5713  0.6107 -0.3589
11266TIP3   OH255288   5.109   4.509   0.709  0.1475 -0.2340  0.2135
11266TIP3    H155289   5.171   4.456   0.760  0.7223 -0.4071 -0.6608
11266TIP3    H255290   5.124   4.483   0.618  0.0859  1.0731 -0.1744
11267TIP3   OH255291   5.817   2.766  13.765 -0.3746  0.1318  0.0742
11267TIP3    H155292   5.768   2.739  13.843  0.8127 -2.8703 -0.1419
11267TIP3    H255293   5.759   2.748  13.692 -0.3446  0.1113  0.0555
11268TIP3   OH255294   6.641   2.475   4.656  0.3125  0.3507  0.8756
11268TIP3    H155295   6.643   2.427   4.573  0.2814 -1.2504  1.7638
11268TIP3    H255296   6.732   2.475   4.686  0.3534  1.0897  0.7427
11269TIP3   OH255297   5.825   0.100  12.517 -0.2344  0.0446  0.3331
11269TIP3    H155298   5.783   0.053  12.445  1.0146  0.7911 -0.9186
11269TIP3    H255299   5.911   0.058  12.525 -0.2748  0.1295  1.2440
11270TIP3   OH255300   0.933   0.672   1.376 -0.1394 -0.7176 -0.5558
11270TIP3    H155301   0.904   0.701   1.290 -1.6412 -0.7369 -0.0585
11270TIP3    H255302   0.933   0.751   1.430  0.1118 -0.8300 -0.3890
11271TIP3   OH255303   4.814   0.887  12.299 -0.8680  0.5892 -0.8112
11271TIP3    H155304   4.872   0.916  12.369 -0.5545  1.3298 -1.3732
11271TIP3    H255305   4.861   0.815  12.256 -1.6869 -0.8365  0.6419
11272TIP3   OH255306   5.797   5.854  12.626  0.0764  0.5438 -0.4598
11272TIP3    H155307   5.755   5.936  12.599 -0.2184  0.7997  0.7659
11272TIP3    H255308   5.864   5.880  12.689 -0.6048 -0.2263  0.6065
11273TIP3   OH255309   5.826   3.884  17.116 -0.3529  0.1075 -0.0093
11273TIP3    H155310   5.869   3.936  17.185 -0.8806  0.5238  0.0093
11273TIP3    H255311   5.871   3.909  17.036  1.6535 -1.8910  0.4478
11274TIP3   OH255312   4.088   5.353  12.810 -0.3339 -1.2920  0.2015
11274TIP3    H155313   4.027   5.293  12.766 -1.1300 -0.6659  0.4370
11274TIP3    H255314   4.037   5.390  12.882  0.1030 -0.2241 -0.0330
11275TIP3   OH255315   5.203   3.951  13.339  0.4270  0.7189 -0.7062
11275TIP3    H155316   5.188   3.925  13.430 -0.7800 -1.8276 -1.5659
11275TIP3    H255317   5.118   3.983  13.309  0.3556 -0.1326 -1.4344
11276TIP3   OH255318   4.465   5.415   2.717  0.3971 -0.2562  0.1282
11276TIP3    H155319   4.518   5.495   2.711  0.6186 -0.2775  1.6291
11276TIP3    H255320   4.442   5.395   2.626  1.1327  0.9813 -0.3478
11277TIP3   OH255321   4.117   1.573   6.676  0.5298 -0.0989 -0.0265
11277TIP3    H155322   4.182   1.541   6.739 -0.5095 -1.0854  0.5670
11277TIP3    H255323   4.066   1.638   6.724  1.1361  0.7600 -0.5270
11278TIP3   OH255324   1.074   5.671  13.710 -0.2918 -0.2025 -0.0709
11278TIP3    H155325   1.001   5.695  13.766 -1.5029  1.2966 -2.2605
11278TIP3    H255326   1.055   5.581  13.684 -0.4393 -0.4163  0.7388
11279TIP3   OH255327   1.858   3.639  11.752  0.0945 -0.0082  0.5321
11279TIP3    H155328   1.849   3.724  11.796 -1.3185 -0.0417  0.3308
11279TIP3    H255329   1.949   3.614  11.766  0.3844  1.2976  1.0460
11280TIP3   OH255330   3.842   2.226   2.397  0.1019 -0.0672 -0.0694
11280TIP3    H155331   3.851   2.132   2.386  1.2583  0.2303 -1.8382
11280TIP3    H255332   3.751   2.238   2.427  0.0135 -1.7321  0.3721
11281TIP3   OH255333   1.937   4.646  16.383  0.3791 -0.4020  0.0431
11281TIP3    H155334   1.905   4.679  16.467 -0.3394  0.0037 -0.3830
11281TIP3    H255335   2.007   4.707  16.359  1.4704 -1.2798  0.9648
11282TIP3   OH255336   4.009   1.062   1.120  0.4379  0.5292  0.1552
11282TIP3    H155337   4.025   1.146   1.165 -0.1936  0.2718  0.8748
11282TIP3    H255338   4.015   0.997   1.190  1.4929 -0.0913 -0.5020
11283TIP3   OH255339   5.503   6.065  12.700 -0.1451 -0.3154  0.8530
11283TIP3    H155340   5.451   6.057  12.780 -1.4321 -3.5253 -0.2145
11283TIP3    H255341   5.474   6.147  12.660 -3.0435 -1.0917  1.2691
11284TIP3   OH255342   2.493   5.470   2.819  0.1892  0.0006  0.6621
11284TIP3    H155343   2.540   5.521   2.753 -0.1485 -0.5730 -0.0266
11284TIP3    H255344   2.543   5.388   2.825 -0.2772 -0.2916  0.5020
11285TIP3   OH255345   0.834   1.213   4.711 -0.0686  0.7537  0.0032
11285TIP3    H155346   0.910   1.238   4.763 -0.8710  0.2041  1.4506
11285TIP3    H255347   0.760   1.218   4.771 -0.6981 -2.0762 -0.4628
11286TIP3   OH255348   0.643   0.568   5.392  0.0047 -0.1456 -0.1486
11286TIP3    H155349   0.585   0.619   5.336  0.1294 -0.1563 -0.2869
11286TIP3    H255350   0.646   0.617   5.475 -2.0760 -1.3700  0.6852
11287TIP3   OH255351   1.483   5.988  14.397 -0.3098 -0.6623 -0.1069
11287TIP3    H155352   1.485   5.971  14.303  0.1107  0.9515 -0.4076
11287TIP3    H255353   1.416   6.055  14.409  2.6306  2.3842  0.1336
11288TIP3   OH255354   0.746   1.829   1.957 -0.0514  0.5648 -0.0448
11288TIP3    H155355   0.756   1.851   1.864  1.5807  0.3121  0.0526
11288TIP3    H255356   0.830   1.790   1.981 -1.6292 -2.5447  0.6793
11289TIP3   OH255357   6.726   6.004   0.369  0.2839 -0.3000  0.6569
11289TIP3    H155358   6.807   5.953   0.370 -0.3093 -1.3818 -2.4012
11289TIP3    H255359   6.735   6.061   0.293 -2.3294 -1.3008 -0.4396
11290TIP3   OH255360   1.417   4.423   4.752 -0.4589  0.1858 -0.1495
11290TIP3    H155361   1.374   4.399   4.670  0.1761  1.3142 -0.8093
11290TIP3    H255362   1.346   4.454   4.808 -1.0187 -1.3777  0.0409
11291TIP3   OH255363   5.712   2.672   3.683 -0.2280  0.1774 -0.7804
11291TIP3    H155364   5.682   2.618   3.756  2.4153 -0.0821  0.1801
11291TIP3    H255365   5.753   2.609   3.623  1.0981  0.8689 -0.6015
11292TIP3   OH255366   0.574   4.323   3.136  0.2759  0.6421  0.3773
11292TIP3    H155367   0.665   4.340   3.161  0.7622 -0.9974 -0.2445
11292TIP3    H255368   0.548   4.400   3.085  1.3955  0.9884  0.3234
11293TIP3   OH255369   6.394   3.223   5.137 -0.8484 -0.0969  0.4047
11293TIP3    H155370   6.322   3.220   5.199 -0.9135 -0.1276  0.3265
11293TIP3    H255371   6.382   3.306   5.090  1.0560  1.5582  2.6842
11294TIP3   OH255372   0.991   3.082   6.374  0.2422 -0.1381  0.5415
11294TIP3    H155373   0.949   3.004   6.338  1.7703 -0.9377  0.4558
11294TIP3    H255374   1.038   3.052   6.451 -0.1478  0.9383  1.2229
11295TIP3   OH255375   0.935   3.705  17.085 -0.3538 -0.4986 -0.3540
11295TIP3    H155376   0.928   3.800  17.077 -1.7252 -0.4748  1.0134
11295TIP3    H255377   0.953   3.690  17.177  3.5635 -1.4062 -1.1793
11296TIP3   OH255378   4.184   3.232   2.675  0.9079 -0.9026 -0.4059
11296TIP3    H155379   4.226   3.290   2.738 -0.0594 -0.6187 -0.0037
11296TIP3    H255380   4.159   3.289   2.602  1.2511 -1.0761 -0.6611
11297TIP3   OH255381   5.440   4.828   4.670  0.7449 -0.0507  0.0748
11297TIP3    H155382   5.393   4.754   4.709 -1.3537  0.4071 -1.5360
11297TIP3    H255383   5.521   4.834   4.721  0.9750 -3.4574  0.2281
11298TIP3   OH255384   0.937   4.237   2.905  0.4377 -0.2425 -0.3910
11298TIP3    H155385   0.856   4.193   2.878  1.0813 -2.1839  0.7195
11298TIP3    H255386   0.913   4.282   2.986  0.4688 -0.7968 -0.0742
11299TIP3   OH255387   5.723   1.177  11.848 -0.1619  0.0617 -0.3904
11299TIP3    H155388   5.678   1.154  11.929  0.2696 -2.1520 -0.7711
11299TIP3    H255389   5.727   1.096  11.798  0.7708  1.1110 -2.0571
11300TIP3   OH255390   0.738   0.296  13.616 -0.1777 -0.2612 -0.4410
11300TIP3    H155391   0.771   0.206  13.621 -1.6717 -0.8321 -0.7139
11300TIP3    H255392   0.709   0.306  13.526  1.5741  1.0871 -0.8897
11301TIP3   OH255393   4.285   3.204  13.873 -0.3393  0.2806 -0.0104
11301TIP3    H155394   4.208   3.175  13.824  0.5142 -0.9581 -0.6560
11301TIP3    H255395   4.313   3.284  13.829  0.3609 -0.7636 -1.5145
11302TIP3   OH255396   5.214   6.752  12.407  0.2935 -0.1883 -0.4101
11302TIP3    H155397   5.301   6.782  12.382  0.9279  0.4065  2.3359
11302TIP3    H255398   5.165   6.832  12.429 -0.6101 -0.5822 -0.9532
11303TIP3   OH255399   1.585   2.509   5.853 -0.4489 -0.2346  0.0377
11303TIP3    H155400   1.587   2.428   5.904 -1.3918 -0.5399 -0.4136
11303TIP3    H255401   1.526   2.567   5.901 -2.7321 -1.1352 -1.6031
11304TIP3   OH255402   3.213   6.383  13.295 -0.1533 -0.0656 -0.0957
11304TIP3    H155403   3.297   6.337  13.290 -0.0806  0.1965 -1.3437
11304TIP3    H255404   3.192   6.384  13.389  0.3250 -1.7831  0.0553
11305TIP3   OH255405   4.786   2.048   4.915 -0.3038 -0.8788  0.4938
11305TIP3    H155406   4.693   2.025   4.914 -0.6282  0.3818 -0.0251
11305TIP3    H255407   4.787   2.140   4.943  0.7854 -0.8790  0.4751
11306TIP3   OH255408   4.694   1.896  13.831  0.2407  0.3967  0.0484
11306TIP3    H155409   4.696   1.848  13.914 -0.7367 -1.2785 -0.8669
11306TIP3    H255410   4.632   1.968  13.847  1.4847  1.2096  1.3349
11307TIP3   OH255411   2.868   5.569   3.846  0.4028  0.1620  0.0806
11307TIP3    H155412   2.898   5.508   3.778  0.1968 -0.5415  0.6099
11307TIP3    H255413   2.789   5.608   3.810  0.5896  0.1890 -0.3038
11308TIP3   OH255414   2.038   1.474  15.026 -0.1691 -0.6890  0.5603
11308TIP3    H155415   2.061   1.415  15.097 -0.6888  0.8036  1.9899
11308TIP3    H255416   1.963   1.524  15.059 -0.3171  0.1410 -0.9682
11309TIP3   OH255417   6.166   6.644   3.470 -0.1683 -0.6529  0.1681
11309TIP3    H155418   6.089   6.633   3.526 -0.6876 -2.0339 -0.8152
11309TIP3    H255419   6.217   6.564   3.482  1.4627  0.5016  1.2835
11310TIP3   OH255420   3.061   1.663  14.673 -0.0612  0.3398 -0.1560
11310TIP3    H155421   3.120   1.656  14.748  0.7654  0.9959 -0.7394
11310TIP3    H255422   2.982   1.704  14.708 -1.1199 -2.6590  1.1490
11311TIP3   OH255423   2.771   2.786   3.268 -0.5498  0.2382  0.1065
11311TIP3    H155424   2.858   2.826   3.274 -0.8530  0.9204 -0.0928
11311TIP3    H255425   2.767   2.750   3.179 -1.3279  2.1718 -0.6500
11312TIP3   OH255426   3.291   1.235   0.845 -0.2777 -1.2175 -0.2976
11312TIP3    H155427   3.221   1.186   0.888 -0.5345 -1.2679 -0.7655
11312TIP3    H255428   3.322   1.296   0.912 -1.6207 -0.3228 -0.4636
11313TIP3   OH255429   2.590   1.149  12.253 -0.1236  0.1857  0.5844
11313TIP3    H155430   2.586   1.152  12.349  0.0439 -0.0770  0.5974
11313TIP3    H255431   2.503   1.180  12.225 -0.4741 -0.5629  0.8355
11314TIP3   OH255432   4.874   2.244   4.303  0.9080  0.1761  0.2421
11314TIP3    H155433   4.951   2.199   4.267  3.3386  2.2493  2.5704
11314TIP3    H255434   4.891   2.337   4.285 -1.9405  0.5388 -0.7451
11315TIP3   OH255435   6.259   3.981   5.638 -0.7383 -0.2282 -0.0160
11315TIP3    H155436   6.254   4.071   5.605  0.5272  0.5125  1.7242
11315TIP3    H255437   6.232   3.927   5.564  1.1332  1.4254 -2.0054
11316TIP3   OH255438   5.143   1.777  12.072 -0.4337 -0.1965 -0.0299
11316TIP3    H155439   5.140   1.864  12.111 -0.2320  0.7962 -2.1919
11316TIP3    H255440   5.167   1.792  11.980  1.1079 -2.6224 -0.0821
11317TIP3   OH255441   3.437   6.025   0.901  0.1983  0.7481 -0.0358
11317TIP3    H155442   3.357   6.025   0.954  0.1440  0.2450 -0.1119
11317TIP3    H255443   3.407   6.044   0.812  0.3102  1.7644  0.1481
11318TIP3   OH255444   0.517   0.696  13.473 -0.0073 -0.8375  0.3839
11318TIP3    H155445   0.470   0.647  13.406  1.6908 -0.7822 -0.8651
11318TIP3    H255446   0.600   0.650  13.483  0.3970  0.0714  1.3293
11319TIP3   OH255447   4.084   6.030   2.350  0.7369  0.0661  0.2125
11319TIP3    H155448   4.158   6.034   2.290 -0.5277  1.2780 -1.3289
11319TIP3    H255449   4.007   6.032   2.293 -0.4941 -0.5926  1.8062
11320TIP3   OH255450   2.726   0.561   0.161  0.2131  0.0203 -0.1836
11320TIP3    H155451   2.741   0.468   0.147  0.0481  0.0398 -0.5156
11320TIP3    H255452   2.644   0.579   0.115 -0.6674 -0.0301  1.3456
11321TIP3   OH255453   4.164   0.205  12.865 -0.0357 -0.0241  0.4809
11321TIP3    H155454   4.211   0.183  12.784 -2.0428 -0.3374 -0.6093
11321TIP3    H255455   4.081   0.159  12.858 -1.0492  1.5554  1.8128
11322TIP3   OH255456   2.857   3.625   5.424  0.0852  0.2866  0.0106
11322TIP3    H155457   2.929   3.638   5.361  0.6192 -0.1715  0.5235
11322TIP3    H255458   2.900   3.625   5.509 -0.6037  0.5863  0.3561
11323TIP3   OH255459   0.340   1.521   5.784  0.0679  0.2279  0.1465
11323TIP3    H155460   0.407   1.457   5.809 -0.0070  0.1099  0.0507
11323TIP3    H255461   0.272   1.468   5.741  0.4099  0.4842 -0.7272
11324TIP3   OH255462   5.701   1.872   1.938 -0.2737 -0.1524  0.2458
11324TIP3    H155463   5.695   1.943   1.874 -0.1096  1.3124  1.8303
11324TIP3    H255464   5.792   1.874   1.967  0.0163 -1.7530 -0.5123
11325TIP3   OH255465   0.495   3.911  13.237 -0.0261  0.4372 -0.3160
11325TIP3    H155466   0.474   3.870  13.321 -0.0985  4.5665  1.8674
11325TIP3    H255467   0.413   3.909  13.188 -0.7530  0.4656  0.8825
11326TIP3   OH255468   3.164   4.938   0.464 -0.3326  0.5174 -0.4653
11326TIP3    H155469   3.185   5.014   0.409 -1.5967  0.3632 -1.1901
11326TIP3    H255470   3.166   4.864   0.403  0.9256 -0.0462  0.2481
11327TIP3   OH255471   5.822   5.686   5.379 -0.6964  0.1781 -0.0626
11327TIP3    H155472   5.910   5.693   5.342 -0.6968 -1.2335 -0.3318
11327TIP3    H255473   5.820   5.752   5.449  1.1667 -0.9820  1.1124
11328TIP3   OH255474   3.317   1.422  11.908 -0.3070  0.7190 -0.0212
11328TIP3    H155475   3.304   1.508  11.948  0.7446  1.2608 -0.8461
11328TIP3    H255476   3.361   1.440  11.825 -1.5168 -0.4989 -0.9364
11329TIP3   OH255477   2.924   4.179  16.866  0.6916  0.0764 -0.0966
11329TIP3    H155478   2.974   4.104  16.833  1.0060 -0.5961  1.8513
11329TIP3    H255479   2.951   4.252  16.810  0.0287 -1.3434 -2.3107
11330TIP3   OH255480   1.775   6.250   5.670  0.1593  0.4517 -0.4800
11330TIP3    H155481   1.727   6.300   5.736  1.3288  1.5085 -0.4055
11330TIP3    H255482   1.738   6.162   5.674 -0.3454  0.7236  1.0008
11331TIP3   OH255483   5.578   6.154   5.432 -0.4603  0.0807  0.1796
11331TIP3    H155484   5.668   6.183   5.418 -0.9914  1.6281 -0.1845
11331TIP3    H255485   5.543   6.215   5.497 -1.4520 -0.0509 -0.2187
11332TIP3   OH255486   4.761   6.098  13.298  0.3170 -0.4646  0.6373
11332TIP3    H155487   4.676   6.083  13.340  0.6767 -1.4176  1.0675
11332TIP3    H255488   4.817   6.028  13.333  0.8583 -0.7779 -0.8156
11333TIP3   OH255489   1.405   6.471  11.633 -0.3420  0.7877  0.2088
11333TIP3    H155490   1.353   6.392  11.650  0.3488 -0.1991 -2.0431
11333TIP3    H255491   1.455   6.485  11.714 -0.2655 -1.2411  0.5309
11334TIP3   OH255492   1.624   5.614   4.878  0.7190  0.0087  0.0597
11334TIP3    H155493   1.638   5.670   4.801  1.0323  0.0269  0.1283
11334TIP3    H255494   1.686   5.542   4.866  1.6567  0.6648  0.9266
11335TIP3   OH255495   6.513   2.239  14.297  0.0083  0.5270  0.4343
11335TIP3    H155496   6.546   2.252  14.386  1.9309 -1.2591 -0.0015
11335TIP3    H255497   6.582   2.271  14.240 -0.0953 -0.8018 -0.4540
11336TIP3   OH255498   4.077   0.248   0.033  0.0812 -0.1708 -0.6725
11336TIP3    H155499   4.076   0.303  -0.046 -2.7987  0.1648 -0.4522
11336TIP3    H255500   3.993   0.203   0.032  0.2723 -0.6580  1.8756
11337TIP3   OH255501   2.727   3.708  13.437 -0.0399  0.8791 -0.1117
11337TIP3    H155502   2.804   3.658  13.410 -0.3936  1.1816 -1.7408
11337TIP3    H255503   2.687   3.655  13.506  2.8461  1.7889  2.3976
11338TIP3   OH255504   1.955   3.756  14.965 -0.2827 -0.3234  0.5506
11338TIP3    H155505   1.862   3.771  14.948 -0.0253  0.4510 -0.2284
11338TIP3    H255506   1.964   3.765  15.059 -0.9026  0.1446  0.5683
11339TIP3   OH255507   6.772   3.249   4.129 -0.2775 -0.1289  0.0739
11339TIP3    H155508   6.817   3.296   4.198  0.0959 -1.8539  1.0398
11339TIP3    H255509   6.817   3.164   4.124 -2.5287 -1.3723  0.1281
11340TIP3   OH255510   3.261   1.771  14.081 -0.3470  0.1129 -0.1215
11340TIP3    H155511   3.172   1.800  14.061 -0.5271 -0.1403  0.3144
11340TIP3    H255512   3.300   1.844  14.128 -0.2311  0.3322 -0.5491
11341TIP3   OH255513   3.279   2.449   4.481 -0.4934  0.5975  0.1312
11341TIP3    H155514   3.359   2.494   4.507 -1.4487  2.8502 -0.6790
11341TIP3    H255515   3.291   2.431   4.388 -0.3279 -0.4001  0.3395
11342TIP3   OH255516   2.501   3.873   5.424  0.1081  0.7286 -0.2481
11342TIP3    H155517   2.517   3.802   5.362  1.2834  1.1699 -0.4619
11342TIP3    H255518   2.587   3.891   5.462 -0.4829  0.8970  1.0412
11343TIP3   OH255519   0.191   5.265   0.953 -0.4025 -0.0121 -0.2175
11343TIP3    H155520   0.099   5.287   0.970 -0.4926  0.7231 -1.6215
11343TIP3    H255521   0.187   5.200   0.883  0.0490 -1.8273  1.3883
11344TIP3   OH255522   4.517   2.290   2.271 -0.2674 -0.1660  0.0535
11344TIP3    H155523   4.477   2.364   2.225 -0.3724 -0.7042 -0.7173
11344TIP3    H255524   4.479   2.212   2.230  0.0963 -0.6550  0.6385
11345TIP3   OH255525   3.045   1.911  12.070  0.1140  0.0081  0.8205
11345TIP3    H155526   3.089   1.885  12.151  2.1148  0.0821 -0.2096
11345TIP3    H255527   3.081   1.997  12.051 -0.7250  0.2025  0.0968
11346TIP3   OH255528   4.556   2.487  11.699 -0.2527  0.3919 -0.6239
11346TIP3    H155529   4.556   2.467  11.605 -0.5415 -0.6728 -0.4139
11346TIP3    H255530   4.598   2.410  11.739  0.3070  1.0579  0.0743
11347TIP3   OH255531   3.990   6.415   3.621 -0.0018 -0.6904  0.4855
11347TIP3    H155532   4.002   6.359   3.544 -0.0721  0.6514 -0.5265
11347TIP3    H255533   4.077   6.454   3.637 -0.9694  2.6752 -1.8372
11348TIP3   OH255534   5.424   3.820   0.299  0.2762 -0.2897  0.3454
11348TIP3    H155535   5.429   3.814   0.203  0.5160  0.0968  0.3362
11348TIP3    H255536   5.510   3.851   0.326 -0.0766  0.4582  0.6228
11349TIP3   OH255537   5.566   2.479   2.240 -0.3515  0.5512  0.4437
11349TIP3    H155538   5.532   2.392   2.260  0.6296  0.0497 -0.0278
11349TIP3    H255539   5.489   2.537   2.243 -0.8285 -0.1542  1.7713
11350TIP3   OH255540   4.752   2.385  14.772  0.0992 -0.4931  0.1259
11350TIP3    H155541   4.667   2.402  14.731  0.7472  0.0067 -1.0303
11350TIP3    H255542   4.745   2.424  14.859 -0.3674  0.8291 -0.4888
11351TIP3   OH255543   2.167   5.449  11.103  0.4326  0.3944 -0.3059
11351TIP3    H155544   2.163   5.504  11.025 -0.1783  0.7357 -0.0372
11351TIP3    H255545   2.213   5.503  11.167 -1.4548  1.1839  0.4241
11352TIP3   OH255546   1.328   6.287  17.081 -0.2951 -0.0853 -0.0338
11352TIP3    H155547   1.297   6.253  17.165  1.9493 -0.0602  0.8257
11352TIP3    H255548   1.248   6.317  17.036 -1.4663  0.2984  2.2594
11353TIP3   OH255549   4.044   2.591  11.128  0.3308 -0.5191 -0.3672
11353TIP3    H155550   4.131   2.617  11.159 -0.0790 -0.6942  0.9482
11353TIP3    H255551   4.052   2.497  11.111  0.6530 -0.3554 -1.1359
11354TIP3   OH255552   2.918   5.101   5.550  0.2766 -0.3526  0.2961
11354TIP3    H155553   2.840   5.104   5.605  0.4110  1.5899  0.4146
11354TIP3    H255554   2.933   5.008   5.535 -1.4718 -0.7891  1.1065
11355TIP3   OH255555   6.558   3.100   1.402 -0.6626 -0.6127  0.1116
11355TIP3    H155556   6.491   3.102   1.334 -0.5799 -0.6043  0.0321
11355TIP3    H255557   6.537   3.021   1.453 -1.4913  0.0678  0.8464
11356TIP3   OH255558   2.464   5.292  11.902 -0.0142  0.6791  0.7000
11356TIP3    H155559   2.378   5.335  11.901 -0.5469 -0.3874  0.4992
11356TIP3    H255560   2.516   5.341  11.838 -0.0315  2.1898  1.7887
11357TIP3   OH255561   0.266   2.991   2.833 -0.5408  0.2901 -0.0500
11357TIP3    H155562   0.201   2.946   2.889 -0.7361  0.6395  0.0052
11357TIP3    H255563   0.276   2.933   2.757  0.1193 -0.4487  0.5897
11358TIP3   OH255564   4.169   6.206  15.218  0.2058 -0.1545 -0.5227
11358TIP3    H155565   4.082   6.238  15.193  0.0884 -1.2204 -1.5264
11358TIP3    H255566   4.161   6.111  15.214  0.6735 -0.3490  1.9783
11359TIP3   OH255567   0.151   3.090   5.851 -0.6086  0.0398  0.4508
11359TIP3    H155568   0.129   3.000   5.826 -2.2960  1.1722 -2.4258
11359TIP3    H255569   0.245   3.097   5.834 -0.8082 -0.6824 -1.0726
11360TIP3   OH255570   5.798   3.874  10.641 -0.1848  0.0706  0.3216
11360TIP3    H155571   5.839   3.869  10.727  0.9939 -0.5202 -0.2658
11360TIP3    H255572   5.822   3.961  10.609 -0.7128  0.3327  0.6226
11361TIP3   OH255573   3.141   0.070  14.736 -0.7488  0.0186 -0.1138
11361TIP3    H155574   3.203   0.072  14.809 -1.3416 -0.6456  0.4100
11361TIP3    H255575   3.195   0.052  14.659 -0.0046  1.5645  0.0283
11362TIP3   OH255576   2.186   4.111   4.841 -0.7797 -0.1933  0.0201
11362TIP3    H155577   2.233   4.130   4.760 -1.5130  2.3226  0.1388
11362TIP3    H255578   2.249   4.063   4.895 -0.3139 -1.9768 -2.0332
11363TIP3   OH255579   4.707   3.068   6.710 -0.1162  0.7094  0.0166
11363TIP3    H155580   4.671   2.987   6.746  0.9030  0.8239  1.3510
11363TIP3    H255581   4.641   3.099   6.649 -1.6009  0.1372  1.2955
11364TIP3   OH255582   0.794   3.750   5.841 -0.1436  0.2560 -0.0306
11364TIP3    H155583   0.701   3.725   5.839  0.2782 -1.3494 -1.5182
11364TIP3    H255584   0.839   3.674   5.804  1.6209  1.6772 -0.8479
11365TIP3   OH255585   3.364   2.276   3.277  0.1652 -0.1706  0.1492
11365TIP3    H155586   3.301   2.218   3.235  1.4904 -0.5776 -1.3202
11365TIP3    H255587   3.449   2.247   3.244  0.9004  2.1630 -0.0648
11366TIP3   OH255588   4.240   2.757   1.565  0.2020 -0.2660  0.1087
11366TIP3    H155589   4.298   2.771   1.490 -0.8143  0.3713 -0.5688
11366TIP3    H255590   4.288   2.793   1.639  1.0564 -0.5573 -0.2986
11367TIP3   OH255591   0.457   1.760  14.476  0.0277  0.0999  0.2306
11367TIP3    H155592   0.438   1.668  14.494 -1.5943  0.1798 -1.0558
11367TIP3    H255593   0.377   1.795  14.438  1.3409  1.5236 -1.3073
11368TIP3   OH255594   0.550   4.349  11.185 -0.6776  0.1118 -0.5990
11368TIP3    H155595   0.643   4.364  11.200 -0.9939  0.1632  1.4645
11368TIP3    H255596   0.522   4.421  11.129  0.4500  0.2862 -0.9358
11369TIP3   OH255597   0.457   6.205   1.991 -0.1152 -0.4508 -0.1647
11369TIP3    H155598   0.511   6.219   2.069 -1.3044  1.1783  0.3767
11369TIP3    H255599   0.388   6.145   2.019 -0.3087 -0.1856 -0.0778
11370TIP3   OH255600   6.622   1.909   0.059  0.5093 -0.2921  0.3935
11370TIP3    H155601   6.583   1.857  -0.011 -1.1322  0.2215  0.8995
11370TIP3    H255602   6.690   1.961   0.016 -0.5559  0.1094 -0.8280
11371TIP3   OH255603   2.121   0.870  16.711 -0.4724  0.1841 -0.0268
11371TIP3    H155604   2.155   0.780  16.716 -0.1528  0.4007  1.8661
11371TIP3    H255605   2.113   0.887  16.617  1.0151 -1.2340 -0.4280
11372TIP3   OH255606   3.329   2.637  12.847 -0.5693  0.2180  0.1936
11372TIP3    H155607   3.290   2.580  12.780 -0.7209  0.4952  0.0472
11372TIP3    H255608   3.286   2.610  12.928  0.0595 -0.5444  0.2826
11373TIP3   OH255609   6.242   1.480  16.727  0.3318 -0.0360 -0.0206
11373TIP3    H155610   6.304   1.541  16.687  0.4967  1.1592  1.9749
11373TIP3    H255611   6.162   1.531  16.737 -0.2782 -0.8866 -0.5128
11374TIP3   OH255612   0.845   5.413   4.351 -1.2540  0.3730  0.6714
11374TIP3    H155613   0.835   5.413   4.446 -2.3608  1.5693  0.5628
11374TIP3    H255614   0.797   5.490   4.321 -2.0879 -0.7410 -0.9713
11375TIP3   OH255615   2.447   6.318  12.564  0.5536  0.2751  0.2260
11375TIP3    H155616   2.465   6.244  12.507  0.5797  0.3003  0.2012
11375TIP3    H255617   2.442   6.281  12.652 -0.3758  0.0961  0.1125
11376TIP3   OH255618   3.683   5.529  13.704 -0.3827 -0.1572  0.2421
11376TIP3    H155619   3.633   5.448  13.700 -0.1580 -0.3134  0.5535
11376TIP3    H255620   3.774   5.501  13.713 -0.1990  0.1233 -0.7079
11377TIP3   OH255621   5.967   2.818  11.303  0.4277 -0.2704  0.0762
11377TIP3    H155622   6.003   2.735  11.334 -0.7263 -0.5049  0.8268
11377TIP3    H255623   5.873   2.812  11.322  0.1663  0.7720 -0.8386
11378TIP3   OH255624   2.326   5.984   4.899  0.0629  0.1878 -0.3190
11378TIP3    H155625   2.296   5.895   4.885  1.0097 -0.4486  1.4836
11378TIP3    H255626   2.421   5.977   4.903  0.0643  0.9716  1.6747
11379TIP3   OH255627   5.369   2.617   4.422 -0.8635  0.1767  0.1943
11379TIP3    H155628   5.439   2.651   4.477 -0.8936  1.1871 -0.3620
11379TIP3    H255629   5.294   2.675   4.439 -1.0995  0.0381 -0.3345
11380TIP3   OH255630   0.001   4.924  12.752  0.0703  0.1473  0.1081
11380TIP3    H155631   0.086   4.881  12.763 -0.0073 -0.3134 -0.9906
11380TIP3    H255632  -0.058   4.853  12.724 -0.2022  0.8540 -1.1252
11381TIP3   OH255633   2.726   5.555   3.248 -0.1726  0.3220  0.3123
11381TIP3    H155634   2.741   5.481   3.190 -1.4044  0.8224 -0.6745
11381TIP3    H255635   2.813   5.590   3.266  0.5277 -1.9848  1.6491
11382TIP3   OH255636   2.291   1.041  12.217  0.0759  0.2533  0.5826
11382TIP3    H155637   2.376   0.999  12.225  0.6406  1.1510 -0.5088
11382TIP3    H255638   2.231   0.985  12.268  0.9002 -1.5656 -0.3927
11383TIP3   OH255639   0.600   4.767  14.170  0.4271  0.3765 -0.3033
11383TIP3    H155640   0.571   4.855  14.193  1.7667  1.0602 -1.2201
11383TIP3    H255641   0.565   4.752  14.082 -0.0548 -0.1229 -0.0279
11384TIP3   OH255642   5.152   0.019   6.821 -0.2457  0.1951 -0.0647
11384TIP3    H155643   5.102   0.071   6.883 -0.0665 -0.9512  1.0485
11384TIP3    H255644   5.093   0.005   6.747 -2.3805 -3.0312  2.1744
11385TIP3   OH255645   4.961   5.494   2.106  0.0280 -0.0779 -1.3100
11385TIP3    H155646   4.924   5.535   2.028  0.6706  0.0004 -1.5766
11385TIP3    H255647   5.029   5.435   2.072  1.1302  0.8581 -0.7322
11386TIP3   OH255648   0.459   1.251  15.263  0.2765  0.3108  0.0776
11386TIP3    H155649   0.460   1.274  15.356  2.2018 -1.9378  0.6706
11386TIP3    H255650   0.518   1.313  15.222  2.3515 -0.9927  1.0051
11387TIP3   OH255651   6.044   4.166  16.681 -0.2834  0.4926 -0.2079
11387TIP3    H155652   6.137   4.148  16.692 -0.2428  0.6600 -0.2673
11387TIP3    H255653   6.025   4.232  16.748  0.1124  2.0395 -1.5604
11388TIP3   OH255654   2.417   1.076  13.694 -0.3047 -0.5036 -0.4918
11388TIP3    H155655   2.489   1.028  13.652  0.4210 -0.6318  0.8786
11388TIP3    H255656   2.403   1.152  13.637  0.1395 -1.0758 -1.3916
11389TIP3   OH255657   3.280   2.446   5.321  0.2320  0.2627  0.2411
11389TIP3    H155658   3.220   2.506   5.365 -0.1961 -0.0655  0.1087
11389TIP3    H255659   3.307   2.492   5.242  0.2613  0.4681  0.3721
11390TIP3   OH255660   3.766   1.980  12.424  0.2640 -0.1396  0.1151
11390TIP3    H155661   3.733   1.899  12.384 -0.8740 -0.3629  1.4686
11390TIP3    H255662   3.771   2.042  12.351  1.5904 -1.5484 -1.0260
11391TIP3   OH255663   6.166   4.522   2.927  0.1736 -0.0504  0.3032
11391TIP3    H155664   6.243   4.493   2.977  0.3902 -2.0524 -1.1739
11391TIP3    H255665   6.103   4.451   2.936 -0.7144  0.6519 -0.2871
11392TIP3   OH255666   5.732   6.432  15.494 -0.5206 -0.0838 -0.2566
11392TIP3    H155667   5.767   6.414  15.407 -0.8425 -0.0486 -0.3963
11392TIP3    H255668   5.791   6.496  15.532  0.2901 -0.9826  0.0053
11393TIP3   OH255669   5.568   4.237   1.521  0.2514  0.1984 -0.3324
11393TIP3    H155670   5.605   4.174   1.583 -0.2071 -0.1199 -0.3818
11393TIP3    H255671   5.480   4.256   1.556  1.4206  2.9921  1.2886
11394TIP3   OH255672   4.373   0.962   5.243 -0.3825  0.1700 -0.1115
11394TIP3    H155673   4.337   1.037   5.195 -1.8205 -1.3358 -1.4584
11394TIP3    H255674   4.468   0.974   5.239 -0.4042 -0.1971 -3.9101
11395TIP3   OH255675   4.720   2.883  16.848  0.0811 -0.5846  0.4255
11395TIP3    H155676   4.769   2.802  16.834 -0.0118 -0.6868  0.6767
11395TIP3    H255677   4.739   2.937  16.771 -1.3768 -1.6173 -0.7048
11396TIP3   OH255678   2.888   4.452   2.996  0.0103  0.2554  0.0738
11396TIP3    H155679   2.926   4.386   2.938  0.6567  1.2377 -0.6368
11396TIP3    H255680   2.888   4.532   2.944 -1.6275  0.6222  0.6136
11397TIP3   OH255681   1.161   0.642  11.504 -0.8990 -0.0729  0.1882
11397TIP3    H155682   1.203   0.701  11.442 -3.4420  0.9993 -0.5632
11397TIP3    H255683   1.128   0.570  11.450 -2.1887  0.3324  0.4252
11398TIP3   OH255684   5.525   4.108  16.931 -0.2169 -0.1343  0.0662
11398TIP3    H155685   5.448   4.121  16.876 -0.9982 -1.0101  0.9435
11398TIP3    H255686   5.561   4.196  16.944 -0.7388  0.2123 -0.8055
11399TIP3   OH255687   0.103   1.130   1.246 -0.2368 -0.0151 -0.0916
11399TIP3    H155688   0.105   1.155   1.338 -2.1274  1.5205 -0.4298
11399TIP3    H255689   0.186   1.164   1.210 -0.5089  1.3983  0.5691
11400TIP3   OH255690   3.426   6.449   4.829  0.9058 -0.3065 -0.2456
11400TIP3    H155691   3.378   6.507   4.769  0.0410  1.1538  1.8126
11400TIP3    H255692   3.505   6.497   4.852  0.2747  0.0155  1.3273
11401TIP3   OH255693   5.220   4.205   0.704  0.0303  0.1556  0.4311
11401TIP3    H155694   5.277   4.149   0.650  0.4030 -0.2480  1.2302
11401TIP3    H255695   5.280   4.265   0.747 -0.0731 -0.6486  1.7333
11402TIP3   OH255696   0.789   1.817  12.769 -0.4925 -0.0833  0.2455
11402TIP3    H155697   0.714   1.875  12.754 -0.3446  0.4628  1.6024
11402TIP3    H255698   0.851   1.842  12.700 -1.5036 -0.4800 -0.8329
11403TIP3   OH255699   6.624   2.176  16.295  0.0968  0.1952  0.1272
11403TIP3    H155700   6.596   2.152  16.383 -2.8868  0.4427 -0.6852
11403TIP3    H255701   6.663   2.263  16.305  0.2914 -0.0237  1.2968
11404TIP3   OH255702   6.339   0.225   1.562  0.1957  0.4629  0.2450
11404TIP3    H155703   6.263   0.184   1.604 -1.5011  2.2383 -0.9689
11404TIP3    H255704   6.406   0.228   1.630 -1.0153 -0.6338  1.5117
11405TIP3   OH255705   5.532   3.846  10.513  0.1891  0.1918  0.4009
11405TIP3    H155706   5.469   3.907  10.474 -0.9562 -0.9790  0.4046
11405TIP3    H255707   5.586   3.902  10.569 -0.8319  1.2286  0.3869
11406TIP3   OH255708   1.361   1.574   0.506  0.1691 -0.0759  0.1411
11406TIP3    H155709   1.307   1.503   0.538  0.7594 -1.0207 -0.9019
11406TIP3    H255710   1.451   1.539   0.509  0.4527  0.5821 -0.4496
11407TIP3   OH255711   4.905   4.151  17.093  0.6401  0.3578  0.1376
11407TIP3    H155712   4.826   4.101  17.115  0.5995  0.9873  1.4709
11407TIP3    H255713   4.877   4.215  17.028  0.3743 -0.3837 -0.4830
11408TIP3   OH255714   4.122   3.349   2.210  0.2613 -0.3153 -0.0867
11408TIP3    H155715   4.177   3.287   2.258 -2.1017 -1.2947  1.4385
11408TIP3    H255716   4.033   3.332   2.241 -0.9201  1.3174 -2.4011
11409TIP3   OH255717   0.577   3.477   5.650  0.0341 -0.7751 -0.3084
11409TIP3    H155718   0.532   3.463   5.733  0.5467  0.3890  0.1679
11409TIP3    H255719   0.664   3.441   5.664  0.2883 -0.1047 -0.1716
11410TIP3   OH255720   1.848   3.540  10.282  0.3130  0.3471 -0.2830
11410TIP3    H155721   1.942   3.555  10.277  0.2603  0.7144 -0.1882
11410TIP3    H255722   1.827   3.493  10.202  0.6648 -0.2116 -0.0605
11411TIP3   OH255723   1.910   2.436   0.891 -0.2567  0.3331  0.1036
11411TIP3    H155724   1.877   2.405   0.975  0.3138  0.6525  0.4491
11411TIP3    H255725   1.856   2.513   0.871 -0.2457  0.3869  0.2825
11412TIP3   OH255726   3.657   3.667  15.084 -0.3224  0.2101  0.0373
11412TIP3    H155727   3.596   3.741  15.087 -0.8117 -0.1900  0.1049
11412TIP3    H255728   3.606   3.596  15.043 -0.3865 -0.5815  1.4532
11413TIP3   OH255729   0.194   6.519   4.503  0.3277  0.2856  0.2311
11413TIP3    H155730   0.222   6.524   4.595 -1.1165 -0.2496  0.7173
11413TIP3    H255731   0.124   6.583   4.495 -1.0001 -1.1502  0.0635
11414TIP3   OH255732   5.390   4.581   5.161  0.3335 -0.4906 -0.0568
11414TIP3    H155733   5.354   4.497   5.132  1.7513 -1.5660  1.2457
11414TIP3    H255734   5.354   4.645   5.099 -3.1099 -1.6393  0.6628
11415TIP3   OH255735   5.742   1.165   3.412  0.1773  0.2454  0.0024
11415TIP3    H155736   5.773   1.255   3.426  0.0299  0.0157  1.9563
11415TIP3    H255737   5.796   1.132   3.341  2.3584  0.8705  1.3101
11416TIP3   OH255738   3.928   0.045  13.474 -0.0533 -0.5970  0.1630
11416TIP3    H155739   3.900   0.135  13.488  2.1616  0.4597 -1.7686
11416TIP3    H255740   4.014   0.039  13.517 -0.7025 -2.1425  1.2973
11417TIP3   OH255741   4.230   3.125  11.887  0.4644  0.3809 -0.0685
11417TIP3    H155742   4.217   3.061  11.817 -0.1725  0.5784 -0.1286
11417TIP3    H255743   4.224   3.210  11.844  3.9617  0.5086 -0.4820
11418TIP3   OH255744   2.587   5.481   3.782 -0.5172  0.4757  0.5829
11418TIP3    H155745   2.496   5.510   3.775  0.1789  2.9414  1.1332
11418TIP3    H255746   2.605   5.483   3.876  0.3057  0.6864  0.4265
11419TIP3   OH255747   1.159   4.687  14.364 -0.2602 -0.0417  0.4063
11419TIP3    H155748   1.157   4.774  14.323  0.2614 -0.5010 -0.6088
11419TIP3    H255749   1.125   4.628  14.297 -0.2553 -0.6854  0.9627
11420TIP3   OH255750   0.132   4.754  16.108 -0.5808 -0.8654 -0.4235
11420TIP3    H155751   0.121   4.659  16.111 -2.0009 -0.7299 -1.1608
11420TIP3    H255752   0.138   4.774  16.014 -0.5998 -0.1900 -0.2801
11421TIP3   OH255753   4.154   4.067  15.176  0.3448 -0.2866 -0.3532
11421TIP3    H155754   4.158   4.160  15.197 -2.5684 -0.6413  2.1590
11421TIP3    H255755   4.079   4.058  15.118  0.1735 -1.1560 -0.0085
11422TIP3   OH255756   3.266   4.314  16.431 -0.2397  0.3204 -1.1039
11422TIP3    H155757   3.355   4.346  16.439  0.7474 -2.3836 -0.7930
11422TIP3    H255758   3.230   4.319  16.520 -1.2498  3.5825 -1.6137
11423TIP3   OH255759   6.550   2.515   3.805  0.1472  0.1743  0.0199
11423TIP3    H155760   6.553   2.583   3.736  1.6858 -1.1109 -1.2281
11423TIP3    H255761   6.566   2.563   3.886 -0.8965  1.6109 -0.6037
11424TIP3   OH255762   4.310   3.708  16.644  0.2267  0.6971 -0.0364
11424TIP3    H155763   4.338   3.667  16.726 -0.4064 -0.0693 -0.1999
11424TIP3    H255764   4.215   3.714  16.651  0.1239  0.2088 -0.8969
11425TIP3   OH255765   4.637   5.264   5.406 -0.2214 -0.4527 -0.4656
11425TIP3    H155766   4.617   5.235   5.495  0.4737 -1.4492 -0.6344
11425TIP3    H255767   4.726   5.299   5.410 -0.3024 -0.2103 -0.7075
11426TIP3   OH255768   5.941   4.512  12.634  0.3680 -0.0944 -0.2264
11426TIP3    H155769   5.960   4.582  12.571  2.1038  0.7103  1.1374
11426TIP3    H255770   5.941   4.556  12.719 -0.7032 -1.3805  0.4504
11427TIP3   OH255771   2.306   2.723  14.532 -0.2758 -0.0861  0.5118
11427TIP3    H155772   2.269   2.731  14.444  0.6936 -1.3781 -0.0378
11427TIP3    H255773   2.362   2.800  14.542  0.1163 -0.2633 -0.2557
11428TIP3   OH255774   5.772   3.713   1.628 -0.5319 -0.6465  0.0601
11428TIP3    H155775   5.736   3.705   1.540 -0.5339 -2.8751  0.2539
11428TIP3    H255776   5.848   3.656   1.629  2.0908  2.6688  0.2110
11429TIP3   OH255777   5.649   1.056  12.078  0.1743  0.1288 -0.1386
11429TIP3    H155778   5.666   0.972  12.120  2.2564  0.0626 -1.0454
11429TIP3    H255779   5.633   1.117  12.150 -2.5959 -1.2665  0.4844
11430TIP3   OH255780   2.636   2.535  16.075  0.0776  0.5754  0.4275
11430TIP3    H155781   2.645   2.497  15.987  1.4469  0.0656  0.7616
11430TIP3    H255782   2.543   2.530  16.094 -0.1967  0.4530 -0.8997
11431TIP3   OH255783   0.964   2.574   1.649  0.1935  0.0324 -0.5636
11431TIP3    H155784   0.958   2.483   1.677 -2.5892  0.6910  1.1847
11431TIP3    H255785   0.945   2.572   1.555  0.8406 -1.2321 -0.6728
11432TIP3   OH255786   3.356   0.686   3.984 -0.4972 -0.3820 -0.2258
11432TIP3    H155787   3.446   0.712   4.004 -0.1764 -1.2453 -0.5239
11432TIP3    H255788   3.306   0.767   3.990  0.1981 -0.0023  0.5250
11433TIP3   OH255789   2.714   3.320   3.539  0.2797  0.7784 -0.2160
11433TIP3    H155790   2.799   3.324   3.582 -0.4328  2.4470  1.1247
11433TIP3    H255791   2.698   3.410   3.510 -1.5069  0.7484  0.5515
11434TIP3   OH255792   0.854   2.590  15.406 -0.2213  0.3974  0.1751
11434TIP3    H155793   0.936   2.619  15.366  1.1937 -0.4851  2.3872
11434TIP3    H255794   0.787   2.643  15.362  1.7072  2.6986 -0.1362
11435TIP3   OH255795   3.594   5.920   2.615  0.7665 -0.3207  0.9336
11435TIP3    H155796   3.588   5.885   2.526 -0.3665  1.8331  0.1168
11435TIP3    H255797   3.503   5.919   2.647  0.5369  2.6203  0.5394
11436TIP3   OH255798   1.615   5.285   5.568  0.0368  0.1719 -0.2495
11436TIP3    H155799   1.547   5.315   5.506 -0.2207 -1.2712 -0.6718
11436TIP3    H255800   1.654   5.209   5.525 -1.4535 -2.0662  2.2071
11437TIP3   OH255801   3.551   4.603   1.092  0.0292  0.1976  0.1732
11437TIP3    H155802   3.512   4.641   1.170 -0.6595  0.9353 -0.5259
11437TIP3    H255803   3.634   4.648   1.082 -0.8448  1.6502 -0.7338
11438TIP3   OH255804   1.447   2.440   0.842 -0.3356  0.3971  0.4729
11438TIP3    H155805   1.361   2.473   0.814 -0.9562  0.4847  2.3847
11438TIP3    H255806   1.500   2.440   0.762 -2.3890 -0.5508 -0.9552
11439TIP3   OH255807   0.465   3.913   3.591 -0.2081  0.3259 -0.3927
11439TIP3    H155808   0.404   3.847   3.558  1.1537 -0.0677 -2.1949
11439TIP3    H255809   0.548   3.867   3.598  0.1604  1.1527  0.9749
11440TIP3   OH255810   4.644   6.446  14.422 -0.2219  0.3400  0.1796
11440TIP3    H155811   4.718   6.433  14.481  0.3686 -1.6327 -0.9671
11440TIP3    H255812   4.676   6.509  14.357 -0.8697  2.5134  1.8807
11441TIP3   OH255813   4.058   2.093   5.186  0.1242  0.1484  0.0163
11441TIP3    H155814   4.038   2.158   5.119 -1.1982  0.2396  0.4980
11441TIP3    H255815   4.018   2.127   5.265 -0.6792 -1.3175  0.2431
11442TIP3   OH255816   5.113   5.285  16.887 -0.0760  0.0538  0.3079
11442TIP3    H155817   5.208   5.283  16.897 -0.2955  1.8536  3.1334
11442TIP3    H255818   5.097   5.358  16.828  0.2494  0.2101  0.4127
11443TIP3   OH255819   5.918   1.942  14.089 -0.8001 -0.4616 -0.3839
11443TIP3    H155820   5.993   1.894  14.124 -0.5560 -0.0387 -0.3245
11443TIP3    H255821   5.938   2.034  14.106 -2.0765 -0.4257  1.1021
11444TIP3   OH255822   4.591   1.064  17.111  0.1520  0.4323  0.1127
11444TIP3    H155823   4.542   1.012  17.047 -0.4979 -0.3427  1.2413
11444TIP3    H255824   4.550   1.151  17.106 -1.4895 -0.2538  1.1881
11445TIP3   OH255825   1.021   5.006  14.873  0.0915  0.3578 -0.1051
11445TIP3    H155826   1.109   5.042  14.889 -0.0636 -0.0066  1.7117
11445TIP3    H255827   1.035   4.912  14.861 -0.2024  0.0031  2.0276
11446TIP3   OH255828   0.025   6.231  15.605  0.4971  0.5832  0.3547
11446TIP3    H155829   0.038   6.212  15.512 -1.3312 -1.3081  0.4440
11446TIP3    H255830   0.099   6.190  15.649  0.4764  0.0086 -0.1390
11447TIP3   OH255831   1.414   0.025  13.943 -0.2287  0.3898  0.0184
11447TIP3    H155832   1.497   0.048  13.985 -0.2494  0.4010  0.0531
11447TIP3    H255833   1.440  -0.021  13.863 -0.1789  1.0708 -0.3609
11448TIP3   OH255834   2.053   0.292   4.438  0.5942 -0.1107 -0.0463
11448TIP3    H155835   2.102   0.316   4.517  0.3350  1.0318 -0.2236
11448TIP3    H255836   2.120   0.258   4.378  0.4767 -3.3380  1.5247
11449TIP3   OH255837   0.691   2.141  14.552  0.4109  0.1121  0.6834
11449TIP3    H155838   0.635   2.176  14.483 -0.1381  0.6903  1.4207
11449TIP3    H255839   0.683   2.046  14.542 -1.2997  0.1717  1.2390
11450TIP3   OH255840   5.903   0.441   4.055 -0.3695 -0.0192  0.6746
11450TIP3    H155841   5.888   0.365   4.110 -1.3802 -0.6830 -0.4857
11450TIP3    H255842   5.849   0.426   3.977 -1.9872  2.6825  1.1836
11451TIP3   OH255843   2.535   5.664  11.174  0.4266 -0.4533  0.3257
11451TIP3    H155844   2.591   5.721  11.120  1.5283 -0.4249  1.4790
11451TIP3    H255845   2.526   5.584  11.122  0.2275  0.1448 -0.5819
11452TIP3   OH255846   1.929   5.954  16.604 -0.7910  0.1435  0.0012
11452TIP3    H155847   1.844   5.997  16.613 -0.4366  0.9515 -0.4547
11452TIP3    H255848   1.991   6.016  16.642 -0.3984 -0.4363  0.3134
11453TIP3   OH255849   0.285   3.555  10.206  1.0373  0.3625  0.1923
11453TIP3    H155850   0.290   3.628  10.144 -0.2102 -0.4588 -0.9188
11453TIP3    H255851   0.264   3.479  10.151  0.6753 -0.5195  1.5338
11454TIP3   OH255852   2.151   6.344   3.686 -0.1297  0.1374 -0.1906
11454TIP3    H155853   2.234   6.306   3.659 -0.3789 -1.1695  0.8012
11454TIP3    H255854   2.132   6.302   3.770 -2.1162 -0.1066 -0.7272
11455TIP3   OH255855   6.717   5.540   5.469 -0.7097 -0.3573 -0.2802
11455TIP3    H155856   6.723   5.519   5.563 -0.0934 -0.1633 -0.2721
11455TIP3    H255857   6.807   5.531   5.438 -0.7541  0.5020 -0.6610
11456TIP3   OH255858   2.949   2.909   1.291 -0.5057  0.9319  0.1124
11456TIP3    H155859   2.899   2.860   1.226 -0.7438 -0.5105  1.3714
11456TIP3    H255860   3.040   2.902   1.262 -0.6326  0.4746 -0.1703
11457TIP3   OH255861   5.299   0.397  12.730  0.4851  1.0832 -0.1070
11457TIP3    H155862   5.227   0.451  12.764 -0.7959  1.0778 -2.7501
11457TIP3    H255863   5.377   0.453  12.740 -0.4691  2.5481 -0.6805
11458TIP3   OH255864   3.591   2.448   4.120 -0.2822 -0.0074 -0.5014
11458TIP3    H155865   3.624   2.519   4.066 -1.9201 -0.1051 -1.6405
11458TIP3    H255866   3.651   2.446   4.195  1.2342  0.9632 -1.6502
11459TIP3   OH255867   1.883   5.840   1.658  0.1165  0.1375 -0.4335
11459TIP3    H155868   1.974   5.811   1.665 -0.0007 -0.2407 -0.4891
11459TIP3    H255869   1.877   5.915   1.718  0.7946  0.9657 -1.3818
11460TIP3   OH255870   2.800   3.506  11.931  0.0507  0.2782 -0.1269
11460TIP3    H155871   2.854   3.432  11.903 -1.6578 -1.5494  1.1900
11460TIP3    H255872   2.858   3.560  11.985  1.4701  0.2100 -1.5542
11461TIP3   OH255873   2.637   3.381   5.994  0.1202  0.1487  0.5770
11461TIP3    H155874   2.602   3.423   6.073  1.5409  1.6790  0.3965
11461TIP3    H255875   2.574   3.404   5.925 -1.2225 -1.3389  1.2573
11462TIP3   OH255876   3.961   2.066   2.804  0.2811 -0.1412  0.1205
11462TIP3    H155877   3.958   2.092   2.896 -0.4652  1.3091 -0.2900
11462TIP3    H255878   3.989   2.145   2.758 -2.2554  0.0482 -1.1930
11463TIP3   OH255879   1.977   3.023  15.336 -0.1004 -0.0309  0.2314
11463TIP3    H155880   2.020   2.993  15.256  0.1014  0.1536  0.2708
11463TIP3    H255881   2.049   3.055  15.391 -0.0358 -1.8932  1.2513
11464TIP3   OH255882   5.737   6.502  16.022  0.7201 -0.3166  0.1048
11464TIP3    H155883   5.744   6.452  15.941  2.3231  1.3138 -0.8070
11464TIP3    H255884   5.700   6.586  15.995 -0.2036 -0.3236  1.3112
11465TIP3   OH255885   6.209   6.176   4.789 -0.6445  0.2749  0.2417
11465TIP3    H155886   6.186   6.248   4.730  1.6235 -1.8031 -3.3823
11465TIP3    H255887   6.289   6.206   4.832 -0.0216  0.1727 -0.8310
11466TIP3   OH255888   6.111   2.088   4.699  0.4199 -0.4868  0.1134
11466TIP3    H155889   6.163   2.060   4.775  0.2977  1.8305  1.1106
11466TIP3    H255890   6.146   2.175   4.678 -3.2753  1.3187  1.0793
11467TIP3   OH255891   4.515   4.023   5.963 -0.1189 -0.2003 -0.0113
11467TIP3    H155892   4.484   3.938   5.930 -1.1393 -0.5304  1.7405
11467TIP3    H255893   4.540   4.006   6.054  2.8879  0.6548 -0.6369
11468TIP3   OH255894   0.458   2.813   2.372  0.7365  0.3431  0.2017
11468TIP3    H155895   0.488   2.754   2.441 -1.2240  0.3254  1.0951
11468TIP3    H255896   0.435   2.894   2.418 -0.4119  0.4001 -0.4465
11469TIP3   OH255897   2.301   0.614   0.656 -0.4656  0.0394 -0.2244
11469TIP3    H155898   2.213   0.620   0.618 -1.6047  1.1663  2.4666
11469TIP3    H255899   2.308   0.523   0.687 -1.1013  0.2184  0.4663
11470TIP3   OH255900   3.242   3.502  14.094 -0.0408  0.4460 -0.3829
11470TIP3    H155901   3.308   3.441  14.126 -0.7871 -0.0118  0.3173
11470TIP3    H255902   3.248   3.498  13.999  0.7921  0.2575 -0.3256
11471TIP3   OH255903   6.114   6.272  14.007 -0.1701 -0.1350 -0.7938
11471TIP3    H155904   6.177   6.239  14.071  0.4602  1.4819 -0.5345
11471TIP3    H255905   6.166   6.289  13.928 -0.5744 -0.2838 -1.0939
11472TIP3   OH255906   4.888   0.812   5.795 -0.4024 -0.0894 -0.2311
11472TIP3    H155907   4.924   0.772   5.716  2.3511  1.2102  0.3093
11472TIP3    H255908   4.941   0.777   5.867 -1.8492 -0.0381  0.8871
11473TIP3   OH255909   3.327   5.508  16.562  0.5001  0.2255  0.0034
11473TIP3    H155910   3.339   5.450  16.487 -0.5763  1.2730 -0.9946
11473TIP3    H255911   3.240   5.486  16.595  0.1614  1.1586 -0.2715
11474TIP3   OH255912   6.371   0.961   0.293  0.4566 -1.0434  0.2283
11474TIP3    H155913   6.294   1.003   0.254  1.2552  0.0990 -0.1304
11474TIP3    H255914   6.348   0.868   0.296 -1.6889 -0.4881  1.8899
11475TIP3   OH255915   0.174   5.328  15.454 -0.2437  0.5449 -0.1131
11475TIP3    H155916   0.085   5.342  15.486  0.0108  1.5647  0.1552
11475TIP3    H255917   0.230   5.348  15.530  0.2420  0.4583 -0.4466
11476TIP3   OH255918   6.778   3.628  17.028  0.3734  0.3666  0.2831
11476TIP3    H155919   6.708   3.564  17.016  0.6642 -0.4344  2.6493
11476TIP3    H255920   6.747   3.707  16.985 -2.0672  0.0801  1.4606
11477TIP3   OH255921   2.331   6.096  14.447  0.1814  0.2298 -0.5998
11477TIP3    H155922   2.396   6.124  14.511  0.6230 -1.0800 -0.4664
11477TIP3    H255923   2.247   6.110  14.492  0.5838 -3.7986  1.6126
11478TIP3   OH255924   0.487   4.754   3.208 -0.1941  0.0668 -0.3685
11478TIP3    H155925   0.531   4.816   3.265 -0.8789  1.3166 -1.1835
11478TIP3    H255926   0.478   4.675   3.262  1.5157  0.3428  0.3533
11479TIP3   OH255927   6.323   2.561   1.517 -0.0174 -0.1303 -0.0948
11479TIP3    H155928   6.254   2.625   1.535 -0.7547 -1.0048  0.2032
11479TIP3    H255929   6.277   2.478   1.505  0.9680 -0.6925 -0.0395
11480TIP3   OH255930   4.899   1.181  11.932 -0.0899 -0.0851  0.4301
11480TIP3    H155931   4.938   1.141  12.009  1.2317 -0.4336 -0.4052
11480TIP3    H255932   4.835   1.115  11.901  0.4957 -0.6106  0.3311
11481TIP3   OH255933   2.164   2.059   4.159  0.4112  0.2042 -0.1525
11481TIP3    H155934   2.260   2.064   4.150  0.4100 -0.4983 -0.5684
11481TIP3    H255935   2.132   2.140   4.118  0.7385 -0.2965 -1.4157
11482TIP3   OH255936   1.957   5.426   3.790  0.1618  0.5230 -0.5769
11482TIP3    H155937   2.020   5.444   3.720  0.5596  0.8993 -0.1225
11482TIP3    H255938   1.872   5.447   3.752  0.4035  0.9768 -0.8637
11483TIP3   OH255939   4.803   3.640   1.821 -0.1708  0.0636 -0.0335
11483TIP3    H155940   4.846   3.602   1.898  1.7400  1.2444 -0.4833
11483TIP3    H255941   4.731   3.692   1.857  0.7598  0.6804  0.9867
11484TIP3   OH255942   5.817   5.012  14.508  0.2068  0.4822 -0.4142
11484TIP3    H155943   5.831   4.918  14.518 -0.3628  0.5215  0.9008
11484TIP3    H255944   5.899   5.052  14.536  0.3759  0.3902 -0.7739
11485TIP3   OH255945   6.381   5.826   2.010 -0.6825  0.3387 -0.1022
11485TIP3    H155946   6.299   5.823   1.962 -1.5567 -0.2146  1.4080
11485TIP3    H255947   6.393   5.737   2.043  0.3321  0.5113  0.0116
11486TIP3   OH255948   4.213   0.646   0.910  0.4144 -0.0260 -0.4205
11486TIP3    H155949   4.124   0.673   0.887  0.4586 -0.1890 -0.7879
11486TIP3    H255950   4.246   0.716   0.966 -0.3467 -0.5034  0.6420
11487TIP3   OH255951   5.020   4.861   2.654 -0.2045  0.1753 -0.0346
11487TIP3    H155952   5.023   4.957   2.649 -0.0890  0.2385  1.0918
11487TIP3    H255953   4.926   4.841   2.657 -0.2247  0.2848  0.1171
11488TIP3   OH255954   1.500   4.208   2.621  0.0236  0.7849  0.4660
11488TIP3    H155955   1.453   4.192   2.703  0.3965 -1.0359  0.3447
11488TIP3    H255956   1.591   4.220   2.647  0.9939 -4.4300  0.0137
11489TIP3   OH255957   5.181   4.027   4.341 -0.6085 -1.0613 -0.1496
11489TIP3    H155958   5.232   4.081   4.280  0.1784  0.2531  1.6317
11489TIP3    H255959   5.195   3.937   4.312 -1.2365 -0.3845 -2.6494
11490TIP3   OH255960   6.384   0.650  15.448 -0.0641  0.1941 -0.4225
11490TIP3    H155961   6.292   0.648  15.422 -0.4343  1.0561  0.8063
11490TIP3    H255962   6.383   0.674  15.540  1.3471 -0.8508 -0.1197
11491TIP3   OH255963   3.340   3.059  14.001  0.4124  0.5623  0.1474
11491TIP3    H155964   3.328   2.983  14.058  0.2465  1.1263  0.8733
11491TIP3    H255965   3.372   3.022  13.919  2.3227 -0.1000  1.1703
11492TIP3   OH255966   5.707   2.216  15.953 -0.1837 -0.1394  0.2716
11492TIP3    H155967   5.761   2.208  16.032  0.3127  0.2333 -0.0314
11492TIP3    H255968   5.617   2.219  15.987 -0.2077 -3.3088  0.6195
11493TIP3   OH255969   2.780   3.997   1.340  0.0642 -0.2857  0.2842
11493TIP3    H155970   2.809   3.942   1.267  0.9642  0.7545 -0.1604
11493TIP3    H255971   2.830   4.078   1.330 -0.5542  0.2543  1.4748
11494TIP3   OH255972   3.346   0.622   5.751  0.5498 -0.1189 -0.2037
11494TIP3    H155973   3.386   0.545   5.790  0.9606 -0.2252 -0.8284
11494TIP3    H255974   3.352   0.607   5.657 -3.1305 -1.2695 -0.3382
11495TIP3   OH255975   1.431   5.152  16.144  1.1281  0.5312 -0.5253
11495TIP3    H155976   1.491   5.120  16.077 -0.4909 -1.6493 -0.9766
11495TIP3    H255977   1.431   5.083  16.211 -1.1354  0.3063 -0.7130
11496TIP3   OH255978   4.469   6.765  11.753 -0.5950  0.7082  0.1999
11496TIP3    H155979   4.494   6.679  11.720 -0.7891  0.3633  0.9341
11496TIP3    H255980   4.471   6.756  11.848  0.0028  1.7022  0.2877
11497TIP3   OH255981   2.871   3.219   5.400  0.2403  0.0142 -0.3465
11497TIP3    H155982   2.925   3.295   5.381 -0.4086  0.6292  0.2456
11497TIP3    H255983   2.874   3.210   5.495 -1.1976  0.4277 -0.2541
11498TIP3   OH255984   6.021   6.200   0.654  0.4614  0.2396  0.3411
11498TIP3    H155985   5.985   6.129   0.601  1.6132 -0.9887  1.1809
11498TIP3    H255986   5.975   6.278   0.623  0.1037 -0.6563 -1.4890
11499TIP3   OH255987   3.797   6.181   1.495  0.1681 -0.0327  0.3415
11499TIP3    H155988   3.718   6.208   1.542 -0.3979  0.4588 -0.8777
11499TIP3    H255989   3.869   6.219   1.546 -0.5036  1.7548 -0.0113
11500TIP3   OH255990   3.748   3.176   4.948  0.1510 -0.8691  0.0847
11500TIP3    H155991   3.712   3.089   4.968  0.6153 -0.2916  3.8095
11500TIP3    H255992   3.672   3.228   4.922 -0.2015 -2.1930 -1.6653
11501TIP3   OH255993   1.658   2.431  12.646  0.5446 -0.1917 -0.5915
11501TIP3    H155994   1.690   2.345  12.674  1.9575 -0.2208 -2.2781
11501TIP3    H255995   1.706   2.494  12.700  0.0859 -0.4066  0.0816
11502TIP3   OH255996   0.213   6.060  13.747  0.3327  1.2513  0.1091
11502TIP3    H155997   0.173   6.060  13.834  0.4316 -0.4203  0.1688
11502TIP3    H255998   0.216   6.152  13.722 -0.4488  1.6761  1.5311
11503TIP3   OH255999   0.059   0.119   2.873 -0.3807 -0.0296 -0.0791
11503TIP3    H156000   0.133   0.134   2.933 -1.5257  0.9102  1.1385
11503TIP3    H256001   0.039   0.026   2.883 -0.1136 -0.0312  0.5033
11504TIP3   OH256002   6.747   0.218  12.368 -0.0076 -0.2582  0.6186
11504TIP3    H156003   6.712   0.143  12.416  1.7060 -1.4370  0.0942
11504TIP3    H256004   6.670   0.260  12.330 -0.8223 -3.2745 -1.2461
11505TIP3   OH256005   4.254   1.926  14.563 -0.3894 -0.0901 -0.0858
11505TIP3    H156006   4.288   1.874  14.490 -1.8988  0.1557 -1.0015
11505TIP3    H256007   4.159   1.920  14.554 -0.5876  0.8864  1.1900
11506TIP3   OH256008   4.388   2.788  10.872 -0.1727 -0.1949  0.0465
11506TIP3    H156009   4.341   2.867  10.844  1.4206  0.1289 -1.8445
11506TIP3    H256010   4.350   2.718  10.820 -0.1647 -0.3245  0.2149
11507TIP3   OH256011   0.070   1.444  13.922  0.3058 -0.8327  0.6547
11507TIP3    H156012   0.098   1.477  14.007 -0.7041 -1.6118  1.3024
11507TIP3    H256013   0.047   1.352  13.939 -0.8164 -0.7266 -0.2582
11508TIP3   OH256014   0.189   2.382   5.901 -0.3904 -0.5943 -0.0970
11508TIP3    H156015   0.108   2.332   5.896  0.9510 -2.7397 -0.7220
11508TIP3    H256016   0.225   2.362   5.988 -0.6317  0.5368  0.2747
11509TIP3   OH256017   0.709   0.915   3.354  0.1829  0.2277 -0.6625
11509TIP3    H156018   0.630   0.943   3.307 -0.0535  0.7374  0.0324
11509TIP3    H256019   0.708   0.820   3.347 -0.6516  0.2104 -0.4264
11510TIP3   OH256020   0.314   0.507   4.605  0.0100 -0.1307  0.5585
11510TIP3    H156021   0.390   0.558   4.580  0.1617 -0.8096 -0.3862
11510TIP3    H256022   0.332   0.418   4.574 -1.0184 -0.3727  0.6095
11511TIP3   OH256023   4.901   0.473   2.926  0.7170 -0.7212 -0.1127
11511TIP3    H156024   4.831   0.462   2.991  0.9877 -1.5691  0.0505
11511TIP3    H256025   4.907   0.567   2.913 -0.4659 -0.6326 -0.1397
11512TIP3   OH256026   2.241   5.467   2.954  0.1056 -0.3328  0.6681
11512TIP3    H156027   2.330   5.442   2.929  0.6402  0.1589  2.0096
11512TIP3    H256028   2.249   5.559   2.981 -0.8304 -0.2535  0.6827
11513TIP3   OH256029   4.804   4.594   3.063 -0.2875  0.0751 -0.5599
11513TIP3    H156030   4.853   4.673   3.039  1.1242 -0.8900 -0.9443
11513TIP3    H256031   4.840   4.569   3.149 -0.1119 -0.6316 -0.8320
11514TIP3   OH256032   5.642   6.637  15.737 -0.4075  0.1147  0.2940
11514TIP3    H156033   5.592   6.566  15.777 -0.9092  1.0833  1.4286
11514TIP3    H256034   5.611   6.641  15.647  1.0996 -2.4251 -0.3833
11515TIP3   OH256035   6.494   6.363   2.700 -0.4433 -0.0856 -0.0577
11515TIP3    H156036   6.553   6.297   2.737 -1.1132 -0.2916  0.6467
11515TIP3    H256037   6.408   6.322   2.702 -0.4861 -0.1797 -2.0263
11516TIP3   OH256038   1.075   6.245  11.387  0.0456  0.1445  0.0411
11516TIP3    H156039   1.113   6.225  11.473  1.3648 -1.8071 -0.9543
11516TIP3    H256040   1.144   6.291  11.340 -0.4010  0.5331 -0.2406
11517TIP3   OH256041   5.359   0.115   3.269  0.6422  0.0623  0.3306
11517TIP3    H156042   5.368   0.097   3.176  1.2789  2.4994 -0.0931
11517TIP3    H256043   5.436   0.168   3.291  0.9524 -1.2080  2.4374
11518TIP3   OH256044   1.591   6.276   2.052 -0.2130 -0.5691  0.1086
11518TIP3    H156045   1.523   6.284   2.119 -0.2968 -1.1158  0.0831
11518TIP3    H256046   1.653   6.213   2.088 -0.8531 -1.7448 -0.8390
11519TIP3   OH256047   2.582   0.680   2.738 -0.1946 -0.5551 -0.6211
11519TIP3    H156048   2.507   0.730   2.772 -0.6512 -0.5773 -1.5763
11519TIP3    H256049   2.593   0.608   2.800  0.3436  0.6033  0.6705
11520TIP3   OH256050   6.544   6.339  12.204  0.3304 -0.1587  0.3546
11520TIP3    H156051   6.537   6.281  12.280 -1.2208 -1.6739 -0.9153
11520TIP3    H256052   6.494   6.417  12.229 -1.8493 -1.4592  0.1600
11521TIP3   OH256053   2.637   2.363   1.294 -0.1078 -0.4983 -0.7337
11521TIP3    H156054   2.664   2.274   1.274  0.2448 -0.1440 -1.8579
11521TIP3    H256055   2.691   2.388   1.370 -0.6396 -1.4449 -0.0430
11522TIP3   OH256056   2.800   6.084   1.450 -0.0286  0.9459  0.1265
11522TIP3    H156057   2.818   6.009   1.506 -0.7089  0.1906 -0.6408
11522TIP3    H256058   2.867   6.080   1.381 -0.1665  0.9353 -0.0088
11523TIP3   OH256059   6.761   1.433   0.632  0.0357 -0.6104  0.4433
11523TIP3    H156060   6.777   1.348   0.672 -1.6073 -0.5459  1.2586
11523TIP3    H256061   6.668   1.433   0.610 -0.1391  1.2193  1.0646
11524TIP3   OH256062   1.839   0.148  11.661  0.2868  0.2390  0.5071
11524TIP3    H156063   1.915   0.204  11.678  0.7555 -0.6156  1.2586
11524TIP3    H256064   1.857   0.068  11.710  0.2098 -1.0574 -1.5314
11525TIP3   OH256065   0.784   0.206  16.773  0.3203  0.3390  0.5489
11525TIP3    H156066   0.858   0.165  16.729 -1.4916 -0.4656 -1.8737
11525TIP3    H256067   0.711   0.146  16.758 -1.8184  3.1505 -0.8740
11526TIP3   OH256068   5.777   3.328   5.706 -0.2787 -0.2228 -0.5478
11526TIP3    H156069   5.794   3.361   5.794  2.3349 -0.6155 -0.8554
11526TIP3    H256070   5.786   3.404   5.649 -1.2380 -0.1154 -0.5692
11527TIP3   OH256071   0.567   2.779  12.531  0.2555  0.4411  0.0896
11527TIP3    H156072   0.636   2.808  12.471 -1.6243  1.2980 -1.6920
11527TIP3    H256073   0.575   2.684  12.533 -0.0139  0.3639 -1.9669
11528TIP3   OH256074   5.963   6.795   2.957 -0.8800  0.1350  0.0022
11528TIP3    H156075   5.981   6.742   3.034  0.3469 -0.6272 -0.7927
11528TIP3    H256076   5.942   6.732   2.888  1.2040  0.6083 -1.1090
11529TIP3   OH256077   2.507   2.295   5.265  0.3489 -0.0995 -0.0127
11529TIP3    H156078   2.500   2.388   5.244  1.2622  0.2192  1.0468
11529TIP3    H256079   2.592   2.268   5.229  0.5042 -0.2952  0.4848
11530TIP3   OH256080   1.966   6.353  15.246 -0.1097 -0.1567  0.3474
11530TIP3    H156081   1.955   6.260  15.266 -1.0717  0.2243  1.5917
11530TIP3    H256082   1.877   6.387  15.239  0.2352  0.6277 -0.3382
11531TIP3   OH256083   3.206   6.491  10.629 -0.2053  0.4317 -0.4413
11531TIP3    H156084   3.147   6.543  10.574  2.5664  0.7630 -3.2912
11531TIP3    H256085   3.241   6.424  10.570 -0.4121 -1.9990  2.0927
11532TIP3   OH256086   2.798   5.594  10.730  0.4446 -0.8045 -0.6478
11532TIP3    H156087   2.738   5.530  10.692  0.6325 -0.9061 -0.7700
11532TIP3    H256088   2.881   5.580  10.685  0.3774 -0.1932 -0.9725
11533TIP3   OH256089   6.425   0.724  11.380 -0.0100 -0.2586  0.4844
11533TIP3    H156090   6.493   0.746  11.444  0.8061  0.0819 -0.4725
11533TIP3    H256091   6.461   0.648  11.333 -0.8026 -0.7893  0.7275
11534TIP3   OH256092   5.270   6.808  13.885 -0.2176  0.1983  0.0415
11534TIP3    H156093   5.309   6.838  13.967 -2.8867 -0.9084  1.7822
11534TIP3    H256094   5.338   6.822  13.819  2.1667  0.6137  2.5231
11535TIP3   OH256095   4.859   3.932  16.620  0.1148  0.6114 -0.0604
11535TIP3    H156096   4.952   3.909  16.615  0.0338 -0.1534  1.5053
11535TIP3    H256097   4.817   3.852  16.652 -0.7961  1.6154  1.2847
11536TIP3   OH256098   4.529   2.029   5.921 -0.5948  0.0613 -0.4178
11536TIP3    H156099   4.544   2.072   6.006  0.8851  1.6209 -1.4331
11536TIP3    H256100   4.435   2.010   5.920 -0.8836  1.2794  0.9919
11537TIP3   OH256101   5.191   0.496   4.969 -0.6218 -0.3527  0.3884
11537TIP3    H156102   5.199   0.581   5.012  1.2645  0.7301 -1.9994
11537TIP3    H256103   5.172   0.517   4.878  1.8095 -2.3762 -0.6574
11538TIP3   OH256104   6.592   0.015  11.698  0.7092  0.4203  0.3001
11538TIP3    H156105   6.514  -0.002  11.750  2.3797  0.0330  2.7985
11538TIP3    H256106   6.565   0.001  11.608 -2.4181  1.5526  0.9953
11539TIP3   OH256107   3.733   1.958   2.028 -1.1487 -0.1990 -0.3414
11539TIP3    H156108   3.752   1.893   2.096 -0.5367 -0.8093 -1.0847
11539TIP3    H256109   3.818   1.979   1.991 -1.2807  1.4562  0.2672
11540TIP3   OH256110   2.802   6.398  16.198 -0.0459  0.5571 -0.3141
11540TIP3    H156111   2.757   6.482  16.194 -1.4626 -0.0681  1.4359
11540TIP3    H256112   2.880   6.414  16.252 -0.2147  0.8064 -0.1445
11541TIP3   OH256113   5.436   6.597   1.860 -0.7288  0.1800 -0.2118
11541TIP3    H156114   5.396   6.649   1.791  2.0094  1.7340 -0.6938
11541TIP3    H256115   5.457   6.513   1.818 -1.6358  0.0959 -0.4883
11542TIP3   OH256116   1.438   0.145   4.209 -0.1935  0.4530 -0.3761
11542TIP3    H156117   1.523   0.142   4.254 -1.4738  2.3203  2.3093
11542TIP3    H256118   1.374   0.141   4.279 -2.3167  1.2292 -2.2290
11543TIP3   OH256119   0.557   4.093   6.528  0.7825 -0.1696 -0.0106
11543TIP3    H156120   0.617   4.023   6.504  0.7683 -0.0118 -0.4997
11543TIP3    H256121   0.492   4.095   6.458  0.8853  0.4511 -0.0944
11544TIP3   OH256122   5.429   1.933   6.819 -0.7775 -0.2942 -0.9434
11544TIP3    H156123   5.334   1.940   6.823 -0.7165  0.6897 -1.0483
11544TIP3    H256124   5.461   2.004   6.875 -0.1045 -0.8450 -0.6105
11545TIP3   OH256125   4.105   2.192   4.339  0.0014  0.2319  0.2360
11545TIP3    H156126   4.036   2.191   4.271  0.0902 -1.9674  0.1398
11545TIP3    H256127   4.181   2.231   4.295 -0.5859  0.8435 -0.2577
11546TIP3   OH256128   5.165   4.729   1.851  0.3768  0.3472 -0.1122
11546TIP3    H156129   5.125   4.750   1.935  0.1358  1.0902 -0.4100
11546TIP3    H256130   5.123   4.787   1.788  3.1436  2.4354 -0.1368
11547TIP3   OH256131   3.499   2.449   2.274 -0.1351  0.6572 -0.2915
11547TIP3    H156132   3.486   2.357   2.249  0.8294  0.1913  0.9147
11547TIP3    H256133   3.485   2.450   2.369  0.8853  1.5671 -0.1469
11548TIP3   OH256134   1.738   0.450  17.066  0.3074  0.3488  0.5823
11548TIP3    H156135   1.677   0.401  17.122  0.4994  2.2184  2.5205
11548TIP3    H256136   1.695   0.534  17.052  1.8075  1.1695  0.8080
11549TIP3   OH256137   6.769   1.992   1.592  0.4201  0.3460  0.3518
11549TIP3    H156138   6.839   1.942   1.549  0.2420  0.4726 -0.0938
11549TIP3    H256139   6.756   2.068   1.534 -0.2415  0.1999  0.3150
11550TIP3   OH256140   3.575   0.983  17.026 -0.5295  0.6081 -0.3800
11550TIP3    H156141   3.669   0.969  17.025 -0.6178 -0.0447  0.4092
11550TIP3    H256142   3.564   1.073  17.058 -0.1639  0.8623 -0.9581
11551TIP3   OH256143   6.055   4.984  10.386 -0.3928  0.2276 -0.1999
11551TIP3    H156144   6.067   5.049  10.456  0.6494  0.7652 -0.8624
11551TIP3    H256145   6.136   4.990  10.334 -0.0761 -1.9733  0.0243
11552TIP3   OH256146   5.641   1.103   1.935  0.5698  0.1496 -0.3241
11552TIP3    H156147   5.693   1.183   1.944  0.9387 -0.3296  2.1226
11552TIP3    H256148   5.700   1.041   1.892  1.4034  0.1878  0.7478
11553TIP3   OH256149   5.251   6.067   0.038  0.1017 -0.3290 -0.2808
11553TIP3    H156150   5.289   6.072  -0.050 -0.1523 -0.5543 -0.4029
11553TIP3    H256151   5.157   6.074   0.024 -0.0845 -2.3471 -0.1999
11554TIP3   OH256152   4.394   4.045  11.475 -0.3018  0.1210  0.2821
11554TIP3    H156153   4.350   4.115  11.522 -0.5745  0.3347 -0.2853
11554TIP3    H256154   4.370   4.058  11.383 -1.6607 -1.6714  0.3627
11555TIP3   OH256155   0.277   2.872  16.753 -0.2166  0.6519  0.4528
11555TIP3    H156156   0.324   2.885  16.836 -1.6723 -2.0956  1.7651
11555TIP3    H256157   0.323   2.799  16.711 -0.4452  1.0216 -0.4352
11556TIP3   OH256158   0.217   1.260   4.642 -1.1811 -0.4808 -0.6445
11556TIP3    H156159   0.297   1.247   4.592 -1.3467 -1.9547 -0.5633
11556TIP3    H256160   0.227   1.346   4.682 -0.2602 -0.0547 -1.7560
11557TIP3   OH256161   2.137   2.178   0.187  0.5127  0.0977  0.2545
11557TIP3    H156162   2.100   2.230   0.259 -0.1424 -0.4745  0.3327
11557TIP3    H256163   2.115   2.228   0.108  0.8450  0.4957  0.4077
11558TIP3   OH256164   5.746   3.803  13.327  0.1287  0.1024 -1.2513
11558TIP3    H156165   5.678   3.736  13.331 -0.6752  0.9518 -0.0484
11558TIP3    H256166   5.815   3.771  13.386 -0.3111  0.3636 -0.5778
11559TIP3   OH256167   5.743   5.531   3.428  0.0994 -0.5940  0.1387
11559TIP3    H156168   5.789   5.604   3.468  0.3441  0.9226 -2.7444
11559TIP3    H256169   5.762   5.456   3.485  1.6420  1.1229  1.9524
11560TIP3   OH256170   2.879   0.041   0.776  0.2776 -0.0334 -0.5585
11560TIP3    H156171   2.792   0.079   0.769  1.6701  2.9771 -2.1986
11560TIP3    H256172   2.928   0.101   0.832  2.0809 -0.1464 -1.9385
11561TIP3   OH256173   6.817   5.024  16.139 -0.5611 -0.4680  0.2291
11561TIP3    H156174   6.816   5.035  16.234  2.3333  0.5341  0.1940
11561TIP3    H256175   6.864   4.942  16.125  0.6387  0.3031 -0.3641
11562TIP3   OH256176   6.348   0.013   0.247  0.1575  0.3970  0.0411
11562TIP3    H156177   6.299   0.087   0.284 -0.6492 -0.2010  0.1688
11562TIP3    H256178   6.418  -0.002   0.310 -0.9901 -0.3748  1.1577
11563TIP3   OH256179   2.344   0.680  10.804 -0.6622  0.3307 -0.0932
11563TIP3    H156180   2.426   0.702  10.849  0.8676 -1.4588 -1.9122
11563TIP3    H256181   2.310   0.765  10.775  1.1700  1.0167 -0.3411
11564TIP3   OH256182   4.748   2.685  16.348 -0.3621  0.7328  0.0712
11564TIP3    H156183   4.793   2.617  16.400 -0.5917  0.6696  0.1889
11564TIP3    H256184   4.759   2.765  16.400  1.2803  1.1132 -0.8389
11565TIP3   OH256185   2.563   3.263  11.870  0.7239 -0.6004 -0.1492
11565TIP3    H156186   2.621   3.333  11.840  1.2492  0.3323  2.8083
11565TIP3    H256187   2.475   3.295  11.850  1.0403  0.2011 -0.2808
11566TIP3   OH256188   4.414   3.971  12.124  0.2757  0.9744 -0.5898
11566TIP3    H156189   4.398   3.878  12.105  0.5606  0.7281  0.3568
11566TIP3    H256190   4.327   4.012  12.116 -0.4612  0.0661  2.0987
11567TIP3   OH256191   2.658   3.961  16.693  0.1082 -0.4726  1.1706
11567TIP3    H156192   2.722   3.936  16.760  0.9945  1.5422  1.1073
11567TIP3    H256193   2.631   4.049  16.718 -1.5084 -0.7120  0.3227
11568TIP3   OH256194   0.071   3.926  12.279  0.5169  0.2688  0.7571
11568TIP3    H156195   0.016   3.853  12.306  1.6708 -0.3511  1.4391
11568TIP3    H256196   0.098   3.967  12.361  0.4822  1.0199  0.3979
11569TIP3   OH256197   0.159   1.063   1.517 -0.0031  0.3658 -0.8438
11569TIP3    H156198   0.248   1.058   1.553  0.1755  2.1781 -0.9895
11569TIP3    H256199   0.118   0.981   1.545  1.0576  0.4233  1.0108
11570TIP3   OH256200   6.502   0.461   6.375 -0.5395  0.0249  0.1309
11570TIP3    H156201   6.575   0.519   6.355 -1.8190  1.4996 -0.4022
11570TIP3    H256202   6.424   0.509   6.345 -1.6676 -1.7926  0.0521
11571TIP3   OH256203   3.654   4.439   4.619 -0.9280  0.3698  0.4121
11571TIP3    H156204   3.637   4.439   4.524  0.2426 -2.0708  0.1455
11571TIP3    H256205   3.736   4.390   4.628 -1.7204 -0.5634  2.8116
11572TIP3   OH256206   0.794   0.635   2.553 -0.5143  0.3391  0.5292
11572TIP3    H156207   0.875   0.676   2.581 -0.0595 -0.9474  1.1421
11572TIP3    H256208   0.751   0.701   2.498  1.3688  0.6934 -0.5481
11573TIP3   OH256209   2.778   6.124  16.236  0.0390 -0.2292 -0.2285
11573TIP3    H156210   2.794   6.218  16.232  1.3527 -0.4361  0.0256
11573TIP3    H256211   2.692   6.112  16.196 -0.4975  1.1783  0.4928
11574TIP3   OH256212   2.866   2.826   5.326 -0.2580 -0.1419  0.7742
11574TIP3    H156213   2.788   2.881   5.317  0.4235  0.7093  0.0416
11574TIP3    H256214   2.908   2.858   5.406  1.3444  1.9645 -0.8471
11575TIP3   OH256215   5.011   2.256   3.627 -0.9162  0.6939  0.0597
11575TIP3    H156216   5.068   2.283   3.699 -1.3370  1.1782  0.2169
11575TIP3    H256217   4.946   2.199   3.669 -1.4103  1.3095  0.1441
11576TIP3   OH256218   6.501   5.212  16.767 -0.0601 -0.1223  0.0221
11576TIP3    H156219   6.432   5.261  16.811 -1.6736 -1.2202 -1.2202
11576TIP3    H256220   6.558   5.280  16.730 -1.0362  0.8179  0.2072
11577TIP3   OH256221   4.759   0.922  16.316 -0.3659 -0.0807  0.3313
11577TIP3    H156222   4.694   0.905  16.385 -0.9538 -1.2745 -0.4931
11577TIP3    H256223   4.708   0.916  16.234  0.3717  1.0687 -0.2097
11578TIP3   OH256224   2.801   3.886   4.342 -0.0213 -0.2266  0.3294
11578TIP3    H156225   2.785   3.903   4.435 -0.0394  1.0021  0.1156
11578TIP3    H256226   2.890   3.918   4.327 -1.0468  2.2649 -0.6980
11579TIP3   OH256227   3.842   4.531   5.914 -0.4663 -0.3006  0.0538
11579TIP3    H156228   3.777   4.526   5.984  0.5928  0.0577  1.0629
11579TIP3    H256229   3.913   4.473   5.942  1.0794  1.7306  0.4770
11580TIP3   OH256230   4.500   1.613  12.021  0.0512 -0.0106 -0.2817
11580TIP3    H156231   4.497   1.590  11.928 -0.1984  1.3413 -0.6265
11580TIP3    H256232   4.426   1.672  12.033  1.0154  1.0762  0.4122
11581TIP3   OH256233   0.857   4.872   3.350 -0.0341 -0.3478  0.1455
11581TIP3    H156234   0.815   4.791   3.378 -0.6517 -0.7668 -1.9061
11581TIP3    H256235   0.843   4.932   3.423  0.0028 -1.9246  1.4942
11582TIP3   OH256236   4.855   2.658   0.331  0.8455 -0.2706  0.5715
11582TIP3    H156237   4.783   2.640   0.392 -1.0145  0.1263 -1.4544
11582TIP3    H256238   4.855   2.584   0.271  0.4885  0.9568 -0.9631
11583TIP3   OH256239   2.009   1.924  13.446 -0.5758  0.1414 -0.1655
11583TIP3    H156240   1.988   2.008  13.405  0.4449  0.4615 -0.0425
11583TIP3    H256241   2.104   1.920  13.446 -0.6207 -1.5722 -1.2816
11584TIP3   OH256242   1.296   3.155   4.510  0.4684  0.1383  0.1191
11584TIP3    H156243   1.331   3.066   4.501 -0.0398 -0.0646  0.1419
11584TIP3    H256244   1.349   3.208   4.451 -1.0624 -0.6843 -2.0677
11585TIP3   OH256245   5.445   2.714  14.892 -0.6658 -0.0724  0.2815
11585TIP3    H156246   5.447   2.630  14.847  0.2404  0.7074 -1.1620
11585TIP3    H256247   5.533   2.749  14.883 -1.4007  1.6743 -0.3906
11586TIP3   OH256248   1.868   1.487   2.753  0.2603  0.4917  0.2204
11586TIP3    H156249   1.796   1.423   2.754  1.3597 -0.7765 -0.1413
11586TIP3    H256250   1.918   1.467   2.832 -0.1133  1.7540  0.7763
11587TIP3   OH256251   0.196   0.818   5.880  0.5783  0.9963  0.1451
11587TIP3    H156252   0.168   0.889   5.939  0.5236  1.5973 -0.5902
11587TIP3    H256253   0.146   0.742   5.909 -0.5198  1.6343 -0.0248
11588TIP3   OH256254   4.956   4.250   2.945 -0.9694  0.1077  0.4760
11588TIP3    H156255   4.949   4.267   3.039 -1.2669  0.4154  0.4009
11588TIP3    H256256   5.017   4.317   2.914 -0.6658 -0.1594  0.4908
11589TIP3   OH256257   5.343   1.739   0.200 -0.0435 -0.3846  0.4079
11589TIP3    H156258   5.429   1.782   0.204 -0.3108 -0.0165  3.3734
11589TIP3    H256259   5.363   1.646   0.195  0.5182 -0.2990  1.0486
11590TIP3   OH256260   4.343   5.987  14.897  0.1989  0.2868 -0.0312
11590TIP3    H156261   4.340   5.988  14.801  0.0060  0.9911 -0.0240
11590TIP3    H256262   4.262   5.945  14.923 -0.1516  0.8805 -0.1634
11591TIP3   OH256263   4.598   4.719   4.189  0.5503  0.0123 -0.7713
11591TIP3    H156264   4.576   4.697   4.099 -0.7970 -1.7086 -0.0266
11591TIP3    H256265   4.674   4.664   4.210  2.9758  2.7867 -1.8943
11592TIP3   OH256266   4.010   2.885   2.376 -0.5642  0.4616  0.2036
11592TIP3    H156267   3.986   2.823   2.307 -1.8276  0.6778  0.4313
11592TIP3    H256268   4.098   2.858   2.403 -0.1965  0.1681 -1.2535
11593TIP3   OH256269   5.352   1.090   4.459 -0.3551 -0.5595 -0.5359
11593TIP3    H156270   5.436   1.133   4.474  0.3965 -1.6336 -1.6381
11593TIP3    H256271   5.293   1.132   4.521  0.9999  0.1678  0.2876
11594TIP3   OH256272   6.730   4.152  14.907  0.0440  0.3789  0.0706
11594TIP3    H156273   6.732   4.190  14.819 -1.1846  0.5798  0.1268
11594TIP3    H256274   6.717   4.227  14.966  0.8701  0.2487  0.4275
11595TIP3   OH256275   3.680   2.070   1.298  0.4917 -0.1719 -0.4376
11595TIP3    H156276   3.745   2.084   1.366 -0.0768  1.6285 -0.2173
11595TIP3    H256277   3.596   2.090   1.340 -0.0215 -0.5876 -1.2355
11596TIP3   OH256278   3.487   6.184  15.029  0.2105 -0.0874 -0.5227
11596TIP3    H156279   3.491   6.274  15.062 -2.9552  0.0984 -0.4473
11596TIP3    H256280   3.398   6.156  15.050  0.4328 -2.4507 -2.6158
11597TIP3   OH256281   3.676   1.157  12.973 -0.6901  0.0680  0.3168
11597TIP3    H156282   3.768   1.150  12.948 -0.7281  1.4063 -0.2566
11597TIP3    H256283   3.654   1.072  13.010  0.2977 -0.8309 -1.1543
11598TIP3   OH256284   4.186   6.509   6.119 -0.2147 -0.3250 -0.2407
11598TIP3    H156285   4.195   6.537   6.028  0.5654 -0.7042 -0.2790
11598TIP3    H256286   4.114   6.563   6.153  1.0655  1.5137 -0.3950
11599TIP3   OH256287   1.038   2.549   3.658 -0.2798 -0.2962 -0.0096
11599TIP3    H156288   1.105   2.569   3.723 -0.7697  0.0274  0.4022
11599TIP3    H256289   0.982   2.626   3.657 -1.2496 -0.9835  0.4193
11600TIP3   OH256290   1.509   0.919  15.708  0.0559 -0.3823 -0.1734
11600TIP3    H156291   1.433   0.905  15.765  3.0085 -2.6011  3.4709
11600TIP3    H256292   1.545   1.003  15.737 -0.5641  0.3140 -1.3942
11601TIP3   OH256293   2.681   3.852   4.051  0.5453 -0.2635 -0.1880
11601TIP3    H156294   2.617   3.837   3.981  0.4864  1.7857 -0.5937
11601TIP3    H256295   2.766   3.833   4.010  0.2813 -2.3203  0.1581
11602TIP3   OH256296   2.683   4.455  16.942 -0.3191  0.1863  1.2003
11602TIP3    H156297   2.605   4.404  16.964 -1.1911  2.0859  2.6462
11602TIP3    H256298   2.651   4.525  16.884  0.2334  1.1659  2.0562
11603TIP3   OH256299   5.448   0.614   1.829 -0.0503 -0.2189  0.3831
11603TIP3    H156300   5.496   0.531   1.831 -2.0417 -1.4082  0.4878
11603TIP3    H256301   5.493   0.670   1.892  1.6086 -1.0406 -0.0521
11604TIP3   OH256302   0.100   4.719  10.831 -0.1844 -0.9963  0.1171
11604TIP3    H156303   0.144   4.686  10.753  0.6905 -1.3923  0.7716
11604TIP3    H256304   0.021   4.761  10.798  1.1968  0.6757 -1.1899
11605TIP3   OH256305   2.266   2.741   1.624 -0.3760  0.4015 -0.3990
11605TIP3    H156306   2.228   2.699   1.547  0.3772 -0.9091 -0.0666
11605TIP3    H256307   2.334   2.681   1.653  0.0422  1.3845  0.6839
11606TIP3   OH256308   0.149   6.643  15.253  0.3181  0.2499  0.0956
11606TIP3    H156309   0.243   6.628  15.265  0.7308  0.5077 -2.4879
11606TIP3    H256310   0.134   6.624  15.161 -2.2113  0.1132  0.5207
11607TIP3   OH256311   2.370   2.605   2.127 -0.3279  0.2847 -0.4315
11607TIP3    H156312   2.351   2.532   2.185  0.8620  0.7127  0.5315
11607TIP3    H256313   2.285   2.646   2.111 -0.8027 -0.4337  0.1892
11608TIP3   OH256314   6.287   6.671   4.224  0.0715 -0.2206  0.4749
11608TIP3    H156315   6.258   6.581   4.206 -0.6834  0.1819 -0.3442
11608TIP3    H256316   6.223   6.704   4.287 -1.2946  0.6913 -1.3814
11609TIP3   OH256317   4.819   3.967   5.030  0.1739  0.1030  0.7368
11609TIP3    H156318   4.808   4.031   4.960  2.1521  0.0612  0.3717
11609TIP3    H256319   4.813   3.882   4.985  1.2795  0.0747  0.6447
11610TIP3   OH256320   0.743   3.129   2.400  0.1182 -0.5002  0.7311
11610TIP3    H156321   0.711   3.063   2.339 -0.1948  0.7876 -0.5438
11610TIP3    H256322   0.710   3.102   2.486 -1.7528 -0.8858 -0.0889
11611TIP3   OH256323   3.369   5.656  12.215 -0.5653  0.3400  0.0394
11611TIP3    H156324   3.303   5.718  12.186 -0.1817  0.6715 -0.1286
11611TIP3    H256325   3.408   5.623  12.134  1.9679  2.8293  0.1804
11612TIP3   OH256326   4.626   3.184  10.600  0.7413 -0.9092  0.2043
11612TIP3    H156327   4.530   3.185  10.599  0.7239 -0.8187  1.3429
11612TIP3    H256328   4.648   3.135  10.680  1.6405 -0.1783  0.4042
11613TIP3   OH256329   2.225   0.654  16.292 -0.3474 -0.0079  0.4170
11613TIP3    H156330   2.317   0.630  16.305  1.3214  3.9675 -2.9933
11613TIP3    H256331   2.197   0.603  16.216 -1.0549 -1.2519  1.4815
11614TIP3   OH256332   5.724   0.216  16.506  0.4399  0.1184  0.7177
11614TIP3    H156333   5.747   0.166  16.584  0.5454 -0.4558  0.3207
11614TIP3    H256334   5.747   0.306  16.528  1.2078 -0.1549  1.0632
11615TIP3   OH256335   1.761   4.745  13.273 -0.3159 -0.3810  0.1834
11615TIP3    H156336   1.771   4.773  13.182  0.9134  0.7219  0.6348
11615TIP3    H256337   1.680   4.693  13.274  0.1435 -1.1693 -1.6979
11616TIP3   OH256338   0.595   5.881  16.686 -0.0112  0.3020 -0.1190
11616TIP3    H156339   0.556   5.806  16.730 -0.2022 -0.4907 -1.6161
11616TIP3    H256340   0.689   5.864  16.688 -0.0519  0.0311 -0.4183
11617TIP3   OH256341   6.789   6.659   3.913  0.6536  0.3410  0.7828
11617TIP3    H156342   6.783   6.602   3.837  1.6423 -0.0136  0.9687
11617TIP3    H256343   6.777   6.600   3.988 -3.6429  1.1393  0.8547
11618TIP3   OH256344   6.568   2.229   0.782  0.2146 -0.3622  0.5598
11618TIP3    H156345   6.515   2.257   0.707 -0.2657  0.8479  1.3410
11618TIP3    H256346   6.607   2.146   0.754 -0.9239 -0.5292 -0.5756
11619TIP3   OH256347   3.318   6.409  11.911 -0.4742 -1.3222 -0.1907
11619TIP3    H156348   3.399   6.370  11.944  1.0470 -0.5506 -2.8823
11619TIP3    H256349   3.296   6.357  11.834 -1.9900 -0.8892 -0.0696
11620TIP3   OH256350   3.821   1.533   1.051  0.4174  0.1660  0.2568
11620TIP3    H156351   3.897   1.535   1.110  1.0066  1.4696 -0.4977
11620TIP3    H256352   3.828   1.449   1.006  2.2899  0.8631 -0.8579
11621TIP3   OH256353   0.276   6.485  11.210 -0.6270 -0.1196 -0.3523
11621TIP3    H156354   0.212   6.525  11.152  0.4883  1.5389 -0.4712
11621TIP3    H256355   0.263   6.529  11.294  0.8377  0.7782 -0.5751
11622TIP3   OH256356   6.671   5.253   5.174  0.0448 -1.0414 -0.2683
11622TIP3    H156357   6.628   5.258   5.088 -3.0558 -0.5847  1.2484
11622TIP3    H256358   6.750   5.307   5.164 -1.4536  0.8959 -2.1446
11623TIP3   OH256359   2.421   3.509   1.741 -0.4579  0.0141  0.1040
11623TIP3    H156360   2.490   3.443   1.751 -0.2106  0.4124  0.9979
11623TIP3    H256361   2.458   3.573   1.679  0.6509  1.1218  1.8686
11624TIP3   OH256362   3.542   3.851   5.995 -0.0828  0.3766 -0.5276
11624TIP3    H156363   3.560   3.775   6.050  1.5057  1.3599  0.3571
11624TIP3    H256364   3.575   3.926   6.046 -2.4213  1.7574 -0.9717
11625TIP3   OH256365   3.265   1.347  14.647 -0.1838 -0.2754  0.4332
11625TIP3    H156366   3.255   1.253  14.658 -1.1717 -0.3611 -1.1203
11625TIP3    H256367   3.355   1.365  14.674  0.9605 -2.1119 -2.0562
11626TIP3   OH256368   2.355   5.373  10.746  0.0009  0.6459 -0.2965
11626TIP3    H156369   2.300   5.295  10.755 -0.2086  0.9015  0.7009
11626TIP3    H256370   2.298   5.437  10.704 -0.1190  0.5664 -0.2541
11627TIP3   OH256371   5.786   0.169  14.698 -0.0566 -0.1150 -0.1700
11627TIP3    H156372   5.844   0.094  14.711  0.1294  0.1249  0.3760
11627TIP3    H256373   5.821   0.237  14.755  0.5352  0.8047 -1.6050
11628TIP3   OH256374   1.079   0.648  13.782 -0.1266  0.0264 -0.6946
11628TIP3    H156375   1.039   0.695  13.855  0.5963  1.0169 -0.9269
11628TIP3    H256376   1.040   0.688  13.704  0.1835 -0.0447 -0.8856
11629TIP3   OH256377   1.618   1.785  14.583  0.4750  0.1326  0.5023
11629TIP3    H156378   1.630   1.698  14.543  1.3470 -0.3344  1.7638
11629TIP3    H256379   1.704   1.826  14.576  0.4396  0.3267  1.2629
11630TIP3   OH256380   4.243   1.659  15.324  0.1382  0.4456 -0.1720
11630TIP3    H156381   4.305   1.731  15.313  1.7732 -0.5935  1.9182
11630TIP3    H256382   4.172   1.697  15.375 -0.6845  1.4554 -1.9972
11631TIP3   OH256383   3.834   2.509  13.612 -0.0654 -0.9268 -0.4902
11631TIP3    H156384   3.815   2.574  13.679  0.1442  1.0350 -2.2696
11631TIP3    H256385   3.915   2.540  13.571 -0.0488 -2.2268 -1.4809
11632TIP3   OH256386   3.182   5.423   0.682  0.5842 -0.0104 -0.4110
11632TIP3    H156387   3.276   5.405   0.677  0.7176  0.7533 -0.8044
11632TIP3    H256388   3.169   5.498   0.624 -0.5728 -1.2236 -1.7602
11633TIP3   OH256389   4.149   0.677  12.678 -0.1631  0.5311 -0.3310
11633TIP3    H156390   4.114   0.593  12.709  2.5602 -0.7310 -0.5231
11633TIP3    H256391   4.244   0.664  12.675  0.2320  3.2744 -1.4555
11634TIP3   OH256392   3.061   4.095  13.494 -0.4596 -0.3552  0.3662
11634TIP3    H156393   3.029   4.150  13.566 -0.3151  0.4537 -0.1884
11634TIP3    H256394   3.089   4.157  13.427  0.9543 -1.0914  0.2704
11635TIP3   OH256395   6.448   3.046  11.358  0.6099  0.6865 -0.1619
11635TIP3    H156396   6.462   2.952  11.347  1.2457  0.5401  1.6583
11635TIP3    H256397   6.406   3.074  11.277  0.0947 -1.2342 -0.5884
11636TIP3   OH256398   6.068   6.598  15.817  0.7296  0.2446 -0.4681
11636TIP3    H156399   5.986   6.587  15.770  0.1028  1.1540  0.3904
11636TIP3    H256400   6.127   6.534  15.777 -1.3133 -2.7861  1.0893
11637TIP3   OH256401   3.488   2.495  11.334  0.2835  0.1651  1.6873
11637TIP3    H156402   3.435   2.487  11.413 -0.1152  0.4454  1.4468
11637TIP3    H256403   3.448   2.567  11.285 -1.3577 -1.9960 -0.2471
11638TIP3   OH256404   3.132   3.139  11.504 -0.2646 -0.0401  0.0457
11638TIP3    H156405   3.124   3.178  11.417 -0.2803  2.4952  1.1568
11638TIP3    H256406   3.209   3.082  11.498  0.2024  0.7221 -1.3817
11639TIP3   OH256407   2.599   6.262  16.824  0.0847 -0.1035 -0.6791
11639TIP3    H156408   2.585   6.321  16.898 -0.5007  0.2265 -1.0463
11639TIP3    H256409   2.563   6.309  16.748  0.1392 -0.6867 -1.0750
11640TIP3   OH256410   1.398   4.527  11.375  0.9884 -0.8289 -0.3973
11640TIP3    H156411   1.370   4.563  11.459 -2.1463  0.3510 -1.8526
11640TIP3    H256412   1.347   4.446  11.366 -0.2604  0.0921 -2.0117
11641TIP3   OH256413   0.793   0.547  11.669  0.6393 -0.4591  0.4915
11641TIP3    H156414   0.831   0.624  11.628  2.0524 -1.6803 -0.5799
11641TIP3    H256415   0.867   0.505  11.713 -0.7644  0.6307  4.0740
11642TIP3   OH256416   1.883   3.808   0.633 -0.4924 -0.2377  0.2051
11642TIP3    H156417   1.948   3.745   0.602 -2.6979 -2.0296 -0.9642
11642TIP3    H256418   1.818   3.755   0.678 -2.1134  1.2809 -0.2968
11643TIP3   OH256419   4.162   4.045  12.052  0.3627  0.3054  0.2824
11643TIP3    H156420   4.134   4.111  11.988 -0.1529  0.3352  0.5300
11643TIP3    H256421   4.190   3.971  11.998 -0.1250  0.3075  0.0110
11644TIP3   OH256422   0.173   0.789  13.034 -0.1685 -0.5547 -0.4505
11644TIP3    H156423   0.215   0.800  12.948 -0.5222  1.5228 -0.3876
11644TIP3    H256424   0.100   0.730  13.017  0.7813 -1.5478 -1.2212
11645TIP3   OH256425   2.893   3.300  14.445  0.2673 -0.3491  0.0589
11645TIP3    H156426   2.967   3.348  14.482  0.0746  0.0942 -0.1272
11645TIP3    H256427   2.933   3.236  14.385  0.5412 -0.6531  0.5615
11646TIP3   OH256428   5.880   5.666  16.454  0.0823  0.4845  0.3212
11646TIP3    H156429   5.877   5.714  16.537 -0.7015  1.1012 -0.0524
11646TIP3    H256430   5.871   5.734  16.387  0.1645 -0.0671 -0.2500
11647TIP3   OH256431   2.744   3.933   1.633  0.3451  0.4905  0.0723
11647TIP3    H156432   2.737   4.020   1.593  1.9264  1.0263  0.9072
11647TIP3    H256433   2.818   3.893   1.587 -0.3237 -0.3932 -0.2465
11648TIP3   OH256434   4.267   2.584   4.965 -0.1552  0.0533 -0.2759
11648TIP3    H156435   4.354   2.590   4.925  0.1711 -0.9898  0.2677
11648TIP3    H256436   4.209   2.561   4.892  0.3875 -1.5326 -0.2115
11649TIP3   OH256437   2.087   1.831  12.146  0.1309  0.7834  0.2418
11649TIP3    H156438   2.168   1.825  12.196 -0.3602  0.3362  0.9992
11649TIP3    H256439   2.042   1.748  12.162 -1.0246  1.4964  0.7997
11650TIP3   OH256440   2.367   0.318   5.578  0.1195 -0.0253 -0.1670
11650TIP3    H156441   2.337   0.289   5.664 -0.3400 -0.2220 -0.3940
11650TIP3    H256442   2.460   0.293   5.576 -0.3451 -1.8390 -0.4964
11651TIP3   OH256443   3.990   0.531   4.894  0.6005 -0.0130 -0.1394
11651TIP3    H156444   4.073   0.484   4.887  0.2844 -0.6824  0.6097
11651TIP3    H256445   4.015   0.620   4.918  1.1462 -0.0048 -0.7098
11652TIP3   OH256446   1.714   2.945   0.625 -0.6021 -0.4468 -0.0211
11652TIP3    H156447   1.752   2.943   0.537  0.6806 -0.8144  0.5461
11652TIP3    H256448   1.655   3.021   0.623  0.2717  0.2287 -0.8470
11653TIP3   OH256449   4.160   4.673   5.422  0.2158  0.7220  0.3387
11653TIP3    H156450   4.073   4.637   5.440  0.0296  1.1906  0.3877
11653TIP3    H256451   4.150   4.767   5.436  0.8535  0.7245  0.8053
11654TIP3   OH256452   0.529   4.243  13.851  0.0215 -0.3478 -1.0657
11654TIP3    H156453   0.622   4.237  13.874 -0.1888 -1.9977 -0.5757
11654TIP3    H256454   0.528   4.296  13.771  1.4791 -1.1720 -1.6581
11655TIP3   OH256455   1.940   4.241   0.682  0.2200 -0.5939 -0.3996
11655TIP3    H156456   1.883   4.181   0.634  1.2293 -2.5312  0.7667
11655TIP3    H256457   1.909   4.328   0.657 -2.3000 -1.5868 -0.9362
11656TIP3   OH256458   5.935   2.329   5.640  0.0148  0.4698  0.5710
11656TIP3    H156459   5.854   2.324   5.590  0.4712  0.4754 -0.1791
11656TIP3    H256460   5.907   2.343   5.731 -0.8076  0.7502  0.2756
11657TIP3   OH256461   4.877   6.438  12.963 -0.2590  0.2482  0.7537
11657TIP3    H156462   4.925   6.357  12.981 -0.6167 -0.2525 -0.5207
11657TIP3    H256463   4.944   6.498  12.930 -0.1832  0.1369  0.7049
11658TIP3   OH256464   1.148   5.790   2.514  0.1003  0.1166  0.2819
11658TIP3    H156465   1.222   5.851   2.518 -0.1881  0.5153 -0.4098
11658TIP3    H256466   1.134   5.764   2.605  0.3984  0.8823  0.5563
11659TIP3   OH256467   4.642   2.274   6.569 -0.6796 -0.0441  0.4135
11659TIP3    H156468   4.628   2.317   6.654  0.5513  0.2573  0.4640
11659TIP3    H256469   4.737   2.275   6.557 -0.8424 -0.2250 -0.9008
11660TIP3   OH256470   5.853   4.735   5.133 -0.1094 -0.4301 -0.1841
11660TIP3    H156471   5.759   4.744   5.146 -0.0434  0.5423 -0.3688
11660TIP3    H256472   5.890   4.817   5.166  0.7208 -1.0286  0.4030
11661TIP3   OH256473   3.948   4.727  14.487 -0.2640 -0.6439 -0.3359
11661TIP3    H156474   3.877   4.792  14.486 -1.3682 -1.8004  0.6324
11661TIP3    H256475   3.929   4.670  14.413 -0.0500 -0.6552 -0.3827
11662TIP3   OH256476   0.264   6.458   5.867 -0.1226  0.5482  0.5072
11662TIP3    H156477   0.210   6.501   5.933 -1.9367 -0.7976 -0.0654
11662TIP3    H256478   0.202   6.429   5.800  1.3154 -0.9724 -0.2069
11663TIP3   OH256479   2.261   2.336   5.024  0.3389 -0.6451  0.2653
11663TIP3    H156480   2.169   2.362   5.026  0.3733 -0.4068  5.3312
11663TIP3    H256481   2.309   2.419   5.018  0.2719 -0.5648  0.8549
11664TIP3   OH256482   0.322   3.905   5.394  0.0876  0.0494  0.1672
11664TIP3    H156483   0.307   3.995   5.425  0.6942 -0.2784  1.4195
11664TIP3    H256484   0.381   3.867   5.458 -0.6894 -1.4721 -0.0141
11665TIP3   OH256485   4.367   6.392  15.302 -0.0332  0.0885  0.6949
11665TIP3    H156486   4.296   6.328  15.310  1.5679 -1.5632  1.9898
11665TIP3    H256487   4.439   6.343  15.262  0.9915  1.2740  1.0660
11666TIP3   OH256488   3.237   3.892   6.283  0.2697 -0.4271 -0.5470
11666TIP3    H156489   3.278   3.956   6.226  1.9002 -0.7529  0.2152
11666TIP3    H256490   3.260   3.921   6.372  2.8087 -3.1513 -0.2273
11667TIP3   OH256491   6.193   3.772  12.312  0.5463  0.1595 -0.3616
11667TIP3    H156492   6.220   3.803  12.398  0.7365 -0.0702 -0.3384
11667TIP3    H256493   6.270   3.726  12.278 -0.0983 -1.2591  0.0647
11668TIP3   OH256494   2.423   6.079  16.813  0.6364 -0.5050  0.2383
11668TIP3    H156495   2.496   6.140  16.816  1.2665 -1.2002 -0.8216
11668TIP3    H256496   2.349   6.132  16.783  1.3232 -0.3903 -1.2855
11669TIP3   OH256497   3.024   0.691   1.327  0.1599 -0.3582  0.9634
11669TIP3    H156498   3.089   0.761   1.315  1.1292 -1.5100 -0.5732
11669TIP3    H256499   2.998   0.667   1.239 -1.3960 -0.8290  1.5417
11670TIP3   OH256500   3.494   0.830   2.545 -0.1712 -0.2205  0.2731
11670TIP3    H156501   3.519   0.919   2.567  2.1102 -0.8558  0.3829
11670TIP3    H256502   3.458   0.794   2.627  0.4205  0.0827  0.6671
11671TIP3   OH256503   3.252   5.120  11.028 -0.2672  0.1559 -0.3183
11671TIP3    H156504   3.342   5.151  11.030  0.1594 -1.0635 -0.3269
11671TIP3    H256505   3.242   5.077  10.943 -0.6214 -0.4052  0.0019
11672TIP3   OH256506   3.962   2.266  15.918  0.3613  0.1899 -0.6231
11672TIP3    H156507   3.972   2.184  15.868 -1.6345  0.2438 -1.1389
11672TIP3    H256508   3.940   2.237  16.007 -2.5611  0.1401 -1.3059
11673TIP3   OH256509   2.639   1.916   6.749  0.1639 -0.2537 -0.0424
11673TIP3    H156510   2.734   1.912   6.763  0.1708 -2.0499 -0.4827
11673TIP3    H256511   2.622   2.007   6.725  1.2612  1.0403  3.7055
11674TIP3   OH256512   0.464   4.649  13.330  0.8072  0.1311 -0.3425
11674TIP3    H156513   0.424   4.594  13.263  0.5057  0.7126 -0.6447
11674TIP3    H256514   0.557   4.629  13.325  0.9380  1.0229 -1.7376
11675TIP3   OH256515   0.196   0.617  16.731  0.0277  0.2948 -0.4120
11675TIP3    H156516   0.134   0.637  16.661 -0.4111 -0.9891 -0.4042
11675TIP3    H256517   0.157   0.544  16.777  0.8799  0.3859  0.4659
11676TIP3   OH256518   6.559   6.589  13.099 -0.1677 -0.1691  0.5238
11676TIP3    H156519   6.550   6.580  13.004  0.9309  1.1192  0.2865
11676TIP3    H256520   6.526   6.676  13.118  3.1786  1.1022  0.7932
11677TIP3   OH256521   0.352   6.305  11.015  0.0785 -0.0691  0.0249
11677TIP3    H156522   0.442   6.276  11.025 -0.0534 -0.5975 -0.2882
11677TIP3    H256523   0.339   6.369  11.084  0.0999 -1.4192  1.2997
11678TIP3   OH256524   0.028   5.065   2.682 -0.4036 -0.1078  0.3218
11678TIP3    H156525   0.024   5.003   2.610 -0.5884 -2.5501  2.3398
11678TIP3    H256526  -0.047   5.043   2.737 -0.5399  2.0088  1.0138
11679TIP3   OH256527   1.553   1.373   5.512  0.3106  0.3072 -0.0288
11679TIP3    H156528   1.637   1.417   5.520 -0.2725  1.5767 -0.7174
11679TIP3    H256529   1.560   1.297   5.570  2.0319  0.2251 -0.3310
11680TIP3   OH256530   0.580   1.984  16.268  0.3424  0.1461 -0.1519
11680TIP3    H156531   0.485   1.999  16.277  0.2135 -0.1995 -0.9394
11680TIP3    H256532   0.604   2.030  16.187  0.9179  0.5434  0.2399
11681TIP3   OH256533   0.767   5.309  14.059 -0.7039  0.5850 -0.2717
11681TIP3    H156534   0.847   5.338  14.015 -1.0508  2.8937  0.5652
11681TIP3    H256535   0.781   5.215  14.074  1.4596  0.7695 -0.9340
11682TIP3   OH256536   2.659   1.460   4.876 -0.0062  0.3706 -0.1011
11682TIP3    H156537   2.575   1.413   4.876  0.0816  0.2014  0.9021
11682TIP3    H256538   2.648   1.529   4.811 -0.3418 -0.6856 -1.1707
11683TIP3   OH256539   4.921   1.052  13.322 -0.1084  0.4365  0.1040
11683TIP3    H156540   4.974   1.131  13.313  1.0000 -0.4549 -1.4041
11683TIP3    H256541   4.853   1.076  13.385  1.4314  1.9341  1.2423
11684TIP3   OH256542   0.355   5.116  13.215 -0.2138 -0.1794 -0.1257
11684TIP3    H156543   0.443   5.095  13.182 -0.2790 -0.6679  0.0131
11684TIP3    H256544   0.299   5.115  13.137 -0.8415 -3.8109  0.2976
11685TIP3   OH256545   1.241   2.215  17.109 -0.1988  0.4878 -0.0040
11685TIP3    H156546   1.323   2.232  17.155  0.9605  0.4472 -2.0102
11685TIP3    H256547   1.250   2.263  17.026 -2.1143  0.3189 -0.3254
11686TIP3   OH256548   1.005   2.719  14.989 -0.3624  0.1115 -0.9535
11686TIP3    H156549   0.931   2.779  14.979 -0.7196  0.2275  1.9959
11686TIP3    H256550   0.979   2.640  14.941 -0.7543  1.5456 -3.1406
11687TIP3   OH256551   5.078   2.565   2.984  0.2225 -0.4861  0.1501
11687TIP3    H156552   5.081   2.660   2.979 -0.4809 -0.4116  1.0143
11687TIP3    H256553   4.997   2.541   2.937  0.4006 -0.6562 -0.0713
11688TIP3   OH256554   4.650   4.066  12.270 -0.2160 -0.1510 -0.3170
11688TIP3    H156555   4.658   4.054  12.175  0.0086 -0.8219 -0.2200
11688TIP3    H256556   4.556   4.074  12.285 -0.3606 -1.4225 -0.4511
11689TIP3   OH256557   1.681   5.831  15.019 -0.3176  0.3953 -0.2410
11689TIP3    H156558   1.767   5.872  15.025  0.0923 -0.2191 -1.7053
11689TIP3    H256559   1.666   5.820  14.925 -1.7911  0.0709  0.0196
11690TIP3   OH256560   2.842   3.197   0.389 -0.2010 -0.4112 -0.2481
11690TIP3    H156561   2.759   3.162   0.359  0.8211 -1.3924 -1.9931
11690TIP3    H256562   2.845   3.175   0.482 -1.2342 -1.6596 -0.4995
11691TIP3   OH256563   2.569   3.924   0.929  0.5845  0.5553 -0.2292
11691TIP3    H156564   2.634   3.993   0.920 -1.6895  2.5759 -1.9231
11691TIP3    H256565   2.485   3.968   0.915 -1.2338 -1.8524  2.4087
11692TIP3   OH256566   3.158   4.096  16.710 -0.1027 -0.6105  0.2633
11692TIP3    H156567   3.224   4.040  16.668 -0.4684  0.5774 -1.9340
11692TIP3    H256568   3.209   4.154  16.767  0.6267 -0.6385 -0.3498
11693TIP3   OH256569   6.142   2.596  14.275 -0.2379  0.2628  0.0050
11693TIP3    H156570   6.213   2.660  14.276 -0.6421  0.7442 -1.3494
11693TIP3    H256571   6.089   2.618  14.352  0.7076  0.3090  0.6510
11694TIP3   OH256572   3.933   0.767  15.313 -0.1223 -1.4788  0.3569
11694TIP3    H156573   3.860   0.770  15.250  0.6029 -0.8454 -0.4629
11694TIP3    H256574   3.893   0.736  15.394 -1.5343 -0.1397  0.2006
11695TIP3   OH256575   3.869   5.095  12.346 -1.3360 -0.5359 -0.4959
11695TIP3    H156576   3.926   5.084  12.270  1.1664  2.3938  0.8506
11695TIP3    H256577   3.814   5.170  12.323  0.3425  1.2140  1.0309
11696TIP3   OH256578   1.189   5.400  11.973  0.1009 -0.4351 -0.1357
11696TIP3    H156579   1.213   5.313  12.004 -0.9183 -0.9835 -0.8584
11696TIP3    H256580   1.198   5.395  11.878  0.8107  0.4963 -0.1231
11697TIP3   OH256581   1.618   2.648   5.393  0.2856  0.5225 -0.0448
11697TIP3    H156582   1.685   2.668   5.328 -0.0725  0.6650 -0.3783
11697TIP3    H256583   1.666   2.617   5.469  0.6969 -0.0175 -0.5141
11698TIP3   OH256584   2.748   1.393   4.115  0.6364 -1.1481 -0.1806
11698TIP3    H156585   2.728   1.381   4.023  1.0067  0.2168 -0.4587
11698TIP3    H256586   2.752   1.488   4.126  1.0474 -1.3083  1.1376
11699TIP3   OH256587   5.483   0.839   0.251  0.3592 -0.1310 -0.1307
11699TIP3    H156588   5.434   0.844   0.169  0.7420 -0.8006 -0.4022
11699TIP3    H256589   5.437   0.773   0.303 -1.1775  1.8357  1.0812
11700TIP3   OH256590   3.257   3.319   6.720  0.0071 -0.0545 -0.2302
11700TIP3    H156591   3.281   3.258   6.789  1.4483 -0.6248 -1.1994
11700TIP3    H256592   3.249   3.265   6.641 -1.3282  0.6256 -0.5662
11701TIP3   OH256593   0.235   6.028  12.353  0.5253  0.0644 -0.5278
11701TIP3    H156594   0.156   6.075  12.326  0.2759  0.4094  0.7471
11701TIP3    H256595   0.268   6.077  12.428  1.6246 -0.4180 -0.6828
11702TIP3   OH256596   0.799   1.300  16.708  0.6455 -0.4571  0.3642
11702TIP3    H156597   0.792   1.206  16.724 -2.5025 -0.4327 -0.4296
11702TIP3    H256598   0.760   1.340  16.786 -0.0170  0.1072 -0.2497
11703TIP3   OH256599   1.424   6.198   3.844  0.2753 -0.2060  0.5311
11703TIP3    H156600   1.334   6.174   3.866 -0.0321  1.3402  1.0093
11703TIP3    H256601   1.456   6.244   3.922  0.2515  2.4821 -1.0009
11704TIP3   OH256602   3.176   3.383  11.349  0.1627 -0.3157 -0.0809
11704TIP3    H156603   3.213   3.439  11.417  0.3840  0.2720 -0.6839
11704TIP3    H256604   3.082   3.392  11.359  0.1902  1.2386 -1.0460
11705TIP3   OH256605   1.846   6.160   2.413 -0.6042 -0.4814  0.2128
11705TIP3    H156606   1.891   6.095   2.467 -0.1262 -0.7502 -0.5054
11705TIP3    H256607   1.873   6.244   2.448  0.5524 -0.6401 -0.2973
11706TIP3   OH256608   4.751   5.088  14.909  0.2990 -0.5661 -0.0312
11706TIP3    H156609   4.834   5.086  14.958  0.6116 -1.3445 -0.5821
11706TIP3    H256610   4.712   5.173  14.931  1.0176 -0.3984  0.6087
11707TIP3   OH256611   4.591   3.801   0.940  0.0422  0.1504 -0.0108
11707TIP3    H156612   4.537   3.820   1.016 -0.5142 -0.6337 -0.2003
11707TIP3    H256613   4.681   3.807   0.972 -0.1986 -0.9585  0.9129
11708TIP3   OH256614   4.583   3.031  13.348 -0.0910 -0.2515  0.1097
11708TIP3    H156615   4.587   2.942  13.382  1.2905  0.2219  1.2573
11708TIP3    H256616   4.647   3.080  13.401 -2.1885  1.8560  0.7897
11709TIP3   OH256617   4.332   6.010  11.483  1.0559  0.3497 -0.1821
11709TIP3    H156618   4.360   5.920  11.502 -1.1081 -0.2456  0.2958
11709TIP3    H256619   4.300   6.007  11.393 -1.1177  0.0943  0.5710
11710TIP3   OH256620   4.371   1.842  15.869  0.3426  0.0904 -0.4944
11710TIP3    H156621   4.405   1.868  15.784  0.4675 -0.3797 -0.5886
11710TIP3    H256622   4.445   1.802  15.914 -0.2708 -1.7259 -1.0303
11711TIP3   OH256623   2.158   6.007  11.510  0.0924  0.2107 -0.3437
11711TIP3    H156624   2.145   5.955  11.431  1.5275  0.7367 -0.9471
11711TIP3    H256625   2.083   6.067  11.512 -1.0073 -1.1301 -0.2117
11712TIP3   OH256626   2.691   1.665  11.446 -0.2445  0.9727 -0.3390
11712TIP3    H156627   2.757   1.711  11.497  2.7449 -0.2389 -2.9574
11712TIP3    H256628   2.741   1.604  11.391 -3.5555 -0.2220 -2.1728
11713TIP3   OH256629   0.393   3.945  17.071 -0.1185 -0.2598  0.1088
11713TIP3    H156630   0.362   3.960  17.160  0.4340  0.2290  0.2213
11713TIP3    H256631   0.429   3.857  17.072  0.9193  0.1616  0.6676
11714TIP3   OH256632   3.958   1.780   5.295 -0.0155  0.1878 -0.5050
11714TIP3    H156633   4.035   1.810   5.343  1.3315 -0.4510 -2.2537
11714TIP3    H256634   3.959   1.685   5.305 -1.4625  0.2852  0.7721
11715TIP3   OH256635   0.924   0.061   1.167  0.3699 -0.0994 -0.0575
11715TIP3    H156636   0.948   0.106   1.247 -0.7790 -1.2896  0.9716
11715TIP3    H256637   0.829   0.067   1.163  0.2752 -1.6089 -0.3974
11716TIP3   OH256638   4.742   6.630  15.554 -0.5275  0.6898 -0.0609
11716TIP3    H156639   4.796   6.707  15.539  0.9586 -0.3358 -0.1500
11716TIP3    H256640   4.659   6.664  15.587 -0.4825  2.4200 -1.6447
11717TIP3   OH256641   1.939   5.959  15.547  0.0435 -0.2183 -0.3307
11717TIP3    H156642   1.915   5.894  15.481  0.5883  0.7743 -1.5173
11717TIP3    H256643   2.008   5.917  15.598 -0.5310 -1.0695 -0.2384
11718TIP3   OH256644   3.131   0.081   1.400  0.1287  0.6151 -0.6849
11718TIP3    H156645   3.086   0.163   1.384  1.3359  1.6325  1.0718
11718TIP3    H256646   3.181   0.095   1.480 -0.4589 -2.1685  0.2421
11719TIP3   OH256647   0.461   1.374  12.530 -0.3494 -0.0750 -0.1626
11719TIP3    H156648   0.424   1.307  12.472  0.6711 -1.5187  0.8100
11719TIP3    H256649   0.419   1.359  12.615 -1.2411  1.5125 -0.3003
11720TIP3   OH256650   4.648   3.642  11.973  0.1101  0.3512 -0.3541
11720TIP3    H156651   4.649   3.608  11.884  0.5841 -0.3398 -0.0869
11720TIP3    H256652   4.680   3.732  11.965  0.5307  0.1608 -0.8250
11721TIP3   OH256653   1.883   3.058   2.505  0.1064 -0.4338 -0.3927
11721TIP3    H156654   1.958   3.003   2.482 -0.3840 -0.9346 -0.8099
11721TIP3    H256655   1.915   3.147   2.496  0.8313 -0.6447  0.0213
11722TIP3   OH256656   6.040   6.727  12.492 -0.9349 -0.3794 -0.1727
11722TIP3    H156657   6.121   6.755  12.451 -1.8183  0.3876 -1.4592
11722TIP3    H256658   6.067   6.668  12.562  0.9249  2.7404  1.8253
11723TIP3   OH256659   0.630   6.688  10.563  0.7966 -0.0894 -0.9096
11723TIP3    H156660   0.707   6.654  10.519  0.8979  0.0615 -0.8484
11723TIP3    H256661   0.564   6.694  10.494  0.3520 -1.7274 -0.6512
11724TIP3   OH256662   6.041   0.463   0.078  0.0044 -0.2527  0.5537
11724TIP3    H156663   6.058   0.374   0.046  0.4064 -0.3731  1.1037
11724TIP3    H256664   6.021   0.451   0.171 -0.6843  0.1508  0.4608
11725TIP3   OH256665   2.396   1.844   6.093 -0.2818 -0.2972 -0.0259
11725TIP3    H156666   2.368   1.800   6.013  0.9200  0.9644 -1.1699
11725TIP3    H256667   2.479   1.886   6.069  0.1202  0.0355  1.9038
11726TIP3   OH256668   1.374   4.399   3.642 -0.2381 -0.3030 -0.3241
11726TIP3    H156669   1.448   4.365   3.592 -0.3783 -1.2831  0.1302
11726TIP3    H256670   1.297   4.379   3.588 -0.2516  0.0434 -0.4398
11727TIP3   OH256671   0.603   6.278  12.905  0.0081  0.1587  0.0973
11727TIP3    H156672   0.520   6.316  12.877  0.4827  0.6309 -0.6853
11727TIP3    H256673   0.668   6.320  12.849  0.3869 -2.8777 -1.8550
11728TIP3   OH256674   1.590   1.847  12.895  0.1386  0.4013 -0.4637
11728TIP3    H156675   1.639   1.828  12.815 -0.7233 -0.5406 -0.7818
11728TIP3    H256676   1.549   1.932  12.878  1.2057  0.9333 -0.4118
11729TIP3   OH256677   0.058   3.338  14.605  0.6660  0.3622 -0.0103
11729TIP3    H156678   0.142   3.382  14.593  1.2231  0.1698  2.7727
11729TIP3    H256679   0.080   3.254  14.646 -0.8592  0.2488  0.6346
11730TIP3   OH256680   1.790   5.102   3.033  0.3208  0.7774  0.0220
11730TIP3    H156681   1.703   5.074   3.061  0.7622 -0.9422 -0.2815
11730TIP3    H256682   1.851   5.045   3.080  1.3324  2.2991  0.6330
11731TIP3   OH256683   3.335   1.050  15.061 -0.2844 -0.2189 -0.1605
11731TIP3    H156684   3.380   1.130  15.088  0.2694 -0.3531 -0.6727
11731TIP3    H256685   3.387   0.979  15.099  0.8004 -0.4301 -1.9594
11732TIP3   OH256686   3.752   4.559  15.807  0.5737  0.3476 -0.9049
11732TIP3    H156687   3.834   4.513  15.787  0.9109  1.2953 -1.7608
11732TIP3    H256688   3.696   4.492  15.846  1.6294 -0.3966 -0.6257
11733TIP3   OH256689   5.073   4.580  13.938 -0.1578 -0.3214  0.4528
11733TIP3    H156690   5.054   4.668  13.971  4.2414  0.8807  0.1076
11733TIP3    H256691   5.054   4.585  13.845  0.6793  0.5131  0.3111
11734TIP3   OH256692   4.607   3.336   3.364 -0.1661  0.5403 -0.4410
11734TIP3    H156693   4.701   3.355   3.356 -0.4753  2.7021  0.6657
11734TIP3    H256694   4.566   3.423   3.365 -2.1851 -0.3942 -0.9540
11735TIP3   OH256695   1.047   1.843   2.357 -0.9825  0.3609  0.4646
11735TIP3    H156696   1.118   1.792   2.397 -1.3119 -2.2184 -2.0315
11735TIP3    H256697   0.969   1.817   2.405 -0.6235  1.2967  1.5744
11736TIP3   OH256698   2.371   2.609  10.523  0.6527  0.6651  0.4216
11736TIP3    H156699   2.433   2.543  10.554  1.0184  0.4186 -0.8272
11736TIP3    H256700   2.424   2.667  10.468  0.3976  2.1615  1.6982
11737TIP3   OH256701   4.626   5.765  14.129  0.0799  0.5707  0.1411
11737TIP3    H156702   4.718   5.764  14.102 -0.5711 -0.0219 -2.1067
11737TIP3    H256703   4.626   5.814  14.211  2.0023  3.3280 -1.4327
11738TIP3   OH256704   5.549   0.431   0.178 -0.9889  0.0384  0.4308
11738TIP3    H156705   5.607   0.461   0.107  0.0367  0.4049  1.4089
11738TIP3    H256706   5.465   0.471   0.158 -0.1394  1.9721  0.6324
11739TIP3   OH256707   5.970   5.575   5.689  0.4332 -0.3568  0.0136
11739TIP3    H156708   5.901   5.510   5.699  0.4982 -0.6200 -1.1639
11739TIP3    H256709   5.924   5.659   5.685 -0.0356 -0.7222 -3.2470
11740TIP3   OH256710   0.667   4.017  10.806  0.1754  1.0345 -0.7452
11740TIP3    H156711   0.713   4.094  10.840 -0.9335  1.0308  0.8532
11740TIP3    H256712   0.677   3.952  10.875  0.5018 -0.0225 -1.7847
11741TIP3   OH256713   2.388   6.798   2.740  0.1661  0.0918 -0.5827
11741TIP3    H156714   2.459   6.746   2.702  1.1853  1.2079 -0.2191
11741TIP3    H256715   2.359   6.747   2.815  0.3337 -0.5430 -0.9410
11742TIP3   OH256716   0.570   4.772  12.439  0.7228 -0.4761 -0.0166
11742TIP3    H156717   0.500   4.716  12.406 -0.0987 -0.2265  1.2584
11742TIP3    H256718   0.643   4.757  12.379 -0.8816  0.3853 -2.2216
11743TIP3   OH256719   4.434   6.814  14.208  0.0013  0.1096 -0.3132
11743TIP3    H156720   4.497   6.863  14.262 -0.6018  0.2469  0.2699
11743TIP3    H256721   4.406   6.877  14.141 -0.4806  0.4463  0.2003
11744TIP3   OH256722   0.771   2.535   5.244 -0.1398  0.6354  0.7461
11744TIP3    H156723   0.811   2.479   5.178 -1.1135 -0.1450  0.8079
11744TIP3    H256724   0.806   2.622   5.226  1.9227 -0.0880  1.0699
11745TIP3   OH256725   5.722   1.525  16.505  0.3013 -0.3777  0.0512
11745TIP3    H156726   5.659   1.597  16.504 -0.3703 -0.9434  0.6461
11745TIP3    H256727   5.704   1.479  16.587  1.0687 -0.9170 -0.0781
11746TIP3   OH256728   0.193   2.856  16.474 -0.5913  0.2090  0.2269
11746TIP3    H156729   0.231   2.856  16.561  1.3388 -1.3372 -0.5937
11746TIP3    H256730   0.265   2.884  16.416 -1.1463 -1.1573 -1.1528
11747TIP3   OH256731   1.369   1.243  16.113  0.1269 -0.4531 -0.4874
11747TIP3    H156732   1.452   1.290  16.117 -0.5770  0.7199  0.9385
11747TIP3    H256733   1.355   1.212  16.203 -2.8250  2.6883  0.2349
11748TIP3   OH256734   2.863   0.794   3.555 -0.6686 -0.0002 -0.5616
11748TIP3    H156735   2.931   0.727   3.564  0.3886  0.9832 -1.1587
11748TIP3    H256736   2.812   0.767   3.478  0.2014  0.2674 -1.2337
11749TIP3   OH256737   3.590   0.432  12.335  0.1968  0.0879 -0.3123
11749TIP3    H156738   3.635   0.388  12.262 -1.0087  0.4222 -1.2657
11749TIP3    H256739   3.584   0.523  12.307  1.4354  0.6038  1.0552
11750TIP3   OH256740   4.955   5.575  11.542  0.4829 -0.0463  0.3850
11750TIP3    H156741   4.912   5.490  11.551  2.0394 -0.8633  0.2407
11750TIP3    H256742   4.970   5.585  11.448 -1.7790  1.4697  0.1326
11751TIP3   OH256743   2.759   5.914   3.101  0.1453 -0.4956  0.1230
11751TIP3    H156744   2.719   5.953   3.179 -1.0121 -1.0495 -0.1815
11751TIP3    H256745   2.722   5.964   3.028  0.9474 -0.2191 -0.1044
11752TIP3   OH256746   6.362   3.901  16.053 -0.3901  0.6148  0.0488
11752TIP3    H156747   6.453   3.930  16.060  0.0789 -0.4866 -1.3280
11752TIP3    H256748   6.325   3.954  15.982 -0.4367  0.1118 -0.3044
11753TIP3   OH256749   4.477   2.127  11.575 -0.5913  0.6791  0.3001
11753TIP3    H156750   4.477   2.216  11.540  1.2616  1.2247  1.5748
11753TIP3    H256751   4.481   2.139  11.670  1.2966 -0.7574  0.4352
11754TIP3   OH256752   2.786   1.124  16.733  0.0603 -0.1106 -0.8954
11754TIP3    H156753   2.879   1.144  16.743  0.6509 -1.5492 -3.3811
11754TIP3    H256754   2.770   1.053  16.795  0.1744  1.3326  0.8362
11755TIP3   OH256755   1.487   4.897   0.266  0.1253  0.5157 -0.0046
11755TIP3    H156756   1.570   4.851   0.260  0.0966  0.4950 -0.2843
11755TIP3    H256757   1.470   4.927   0.176  0.3073  1.3622  0.2425
11756TIP3   OH256758   6.554   2.792   3.685 -0.2858  0.3056 -0.2070
11756TIP3    H156759   6.609   2.864   3.656  1.0245 -1.5392 -2.4711
11756TIP3    H256760   6.464   2.826   3.679  0.1984  1.1887 -2.9605
11757TIP3   OH256761   6.713   2.225   5.339 -0.2518 -0.5571  0.3535
11757TIP3    H156762   6.710   2.140   5.295 -0.1457 -0.8097  0.8285
11757TIP3    H256763   6.804   2.254   5.329 -0.8131  0.5674 -1.7960
11758TIP3   OH256764   4.235   4.742   4.066 -0.2780 -0.7820 -0.2325
11758TIP3    H156765   4.141   4.758   4.057 -0.0807 -0.6505 -2.2457
11758TIP3    H256766   4.255   4.766   4.156 -1.7173  1.6309 -0.5014
11759TIP3   OH256767   3.985   0.101  16.581 -0.1252  0.0191  0.3958
11759TIP3    H156768   4.022   0.134  16.499  0.0613 -0.6499  0.2144
11759TIP3    H256769   3.953   0.180  16.626  0.4078  0.4627 -0.0001
11760TIP3   OH256770   2.372   5.575   0.173 -0.1187 -0.1688  0.0729
11760TIP3    H156771   2.449   5.595   0.121 -0.1137  0.1779  0.2081
11760TIP3    H256772   2.308   5.542   0.110  1.0487 -3.0604  0.3587
11761TIP3   OH256773   3.992   5.711   3.194  0.3368 -0.4436  0.1741
11761TIP3    H156774   3.986   5.805   3.210 -1.9759 -0.5529  0.1759
11761TIP3    H256775   4.086   5.694   3.181  0.7333  1.9130 -0.2365
11762TIP3   OH256776   2.768   5.431   5.206  0.3426  0.1652  0.2417
11762TIP3    H156777   2.718   5.353   5.228  2.0331 -0.1804  3.0339
11762TIP3    H256778   2.755   5.490   5.280 -0.0758  2.1559 -1.3650
11763TIP3   OH256779   3.322   3.685   3.129 -0.0371  0.0931  0.3039
11763TIP3    H156780   3.265   3.621   3.086  0.0126 -0.0298  0.4191
11763TIP3    H256781   3.301   3.768   3.087  0.3780 -0.1131 -0.3190
11764TIP3   OH256782   0.629   6.440  12.502 -0.0829  0.2153  0.0659
11764TIP3    H156783   0.696   6.374  12.522 -0.0262  0.0784 -0.5629
11764TIP3    H256784   0.648   6.466  12.412 -0.8334  0.2314 -0.0824
11765TIP3   OH256785   6.481   3.096   4.598  0.1163  0.1955  0.1172
11765TIP3    H156786   6.482   3.039   4.521 -0.9582  0.4128 -0.0774
11765TIP3    H256787   6.563   3.144   4.594  1.5265 -2.0778  0.8701
11766TIP3   OH256788   2.851   4.308   0.668 -0.1107  0.4735 -0.5634
11766TIP3    H156789   2.919   4.309   0.735 -1.0484 -0.2196  0.4251
11766TIP3    H256790   2.873   4.233   0.613 -0.6292 -0.3760  0.3624
11767TIP3   OH256791   3.196   2.196  14.005  0.3080 -0.2199  0.1845
11767TIP3    H156792   3.286   2.195  14.038  0.0288 -2.1923  0.9688
11767TIP3    H256793   3.156   2.118  14.043 -1.2533 -0.2649 -1.4964
11768TIP3   OH256794   3.305   4.460   1.187  0.2298  0.5937 -0.1766
11768TIP3    H156795   3.211   4.476   1.186  0.1646  0.2093 -0.6602
11768TIP3    H256796   3.332   4.470   1.096  0.7022  0.9484  0.0009
11769TIP3   OH256797   4.826   3.476   3.658 -0.5482  0.3504  0.6925
11769TIP3    H156798   4.782   3.394   3.682  1.9080 -2.0402 -2.5353
11769TIP3    H256799   4.810   3.485   3.564  1.9742  1.8257  0.3594
11770TIP3   OH256800   6.785   0.732   4.107 -0.2348  0.6404  0.4047
11770TIP3    H156801   6.710   0.763   4.157  1.6169  1.6172  2.6660
11770TIP3    H256802   6.775   0.774   4.021 -2.5898  0.2283  0.4458
11771TIP3   OH256803   4.695   3.577  12.733 -0.2350 -0.7169  0.4175
11771TIP3    H156804   4.666   3.489  12.711 -0.1334 -0.7355  0.3592
11771TIP3    H256805   4.735   3.568  12.820  0.5137 -0.8809  0.0643
11772TIP3   OH256806   6.136   3.396  11.123 -0.2343 -0.0851  0.3045
11772TIP3    H156807   6.180   3.316  11.093 -0.7302  0.2392 -1.3439
11772TIP3    H256808   6.127   3.384  11.218 -0.3279 -1.9973  0.0805
11773TIP3   OH256809   3.023   5.485  15.235 -0.1680  0.2483 -0.2587
11773TIP3    H156810   3.027   5.389  15.231 -0.2162  0.2783 -0.9857
11773TIP3    H256811   2.949   5.502  15.294  1.6801 -0.1621  2.2891
11774TIP3   OH256812   6.091   0.313   2.649 -0.2189 -0.1609 -0.4878
11774TIP3    H156813   6.053   0.374   2.586 -2.0821 -0.9353 -0.1559
11774TIP3    H256814   6.098   0.363   2.730 -0.4282  0.0045 -0.5722
11775TIP3   OH256815   3.317   1.028   0.375  0.0717  0.0249  0.5349
11775TIP3    H156816   3.328   0.942   0.417 -0.9641  0.0414  0.8521
11775TIP3    H256817   3.361   1.018   0.290  0.3880 -0.6596  0.7698
11776TIP3   OH256818   5.223   1.737   3.394 -0.1747 -0.2180 -0.6057
11776TIP3    H156819   5.136   1.699   3.381 -0.2472  0.6036 -2.5396
11776TIP3    H256820   5.206   1.828   3.419  0.1503  0.4453 -2.7362
11777TIP3   OH256821   2.871   1.356  13.233 -0.1829  0.0638  0.7119
11777TIP3    H156822   2.874   1.262  13.218 -2.2970 -0.1775  1.6536
11777TIP3    H256823   2.950   1.375  13.284  0.7345 -1.0248 -0.2790
11778TIP3   OH256824   1.688   4.214  12.163 -0.3831 -0.4416  0.2790
11778TIP3    H156825   1.720   4.147  12.103 -0.1577  0.9974 -1.2809
11778TIP3    H256826   1.748   4.288  12.149 -1.2238  0.4266  1.2116
11779TIP3   OH256827   4.288   5.964   2.840  0.1089 -0.8041  0.3066
11779TIP3    H156828   4.327   5.897   2.784  0.2655 -1.3785  1.1013
11779TIP3    H256829   4.346   5.970   2.915  0.6099  0.9035 -0.1912
11780TIP3   OH256830   1.247   3.631  12.840  0.3251 -0.0844 -0.0176
11780TIP3    H156831   1.195   3.635  12.760  1.0497  1.8570 -0.4186
11780TIP3    H256832   1.327   3.585  12.814  1.5298  2.4557 -1.0224
11781TIP3   OH256833   3.734   1.148  17.279  0.5402 -0.0946  0.3537
11781TIP3    H156834   3.826   1.127  17.292  1.2434  1.5109 -1.8827
11781TIP3    H256835   3.734   1.239  17.249 -1.4677 -1.3403 -3.6716
11782TIP3   OH256836   2.142   1.479  17.123 -0.1668 -0.0163 -0.0673
11782TIP3    H156837   2.159   1.451  17.033  0.5484  0.1208  0.0229
11782TIP3    H256838   2.087   1.557  17.113  0.4848  0.4081 -0.4121
11783TIP3   OH256839   5.043   2.612   4.990 -0.2938 -0.5936 -0.3338
11783TIP3    H156840   4.982   2.649   5.054 -0.1395  0.7374 -0.9373
11783TIP3    H256841   5.113   2.574   5.043 -1.0457 -1.0879  0.3297
11784TIP3   OH256842   4.415   3.565   0.307  0.0531  0.1428  0.0016
11784TIP3    H156843   4.504   3.535   0.289 -0.6440 -0.8214 -1.9461
11784TIP3    H256844   4.423   3.617   0.387  2.7581  1.9135 -1.3254
11785TIP3   OH256845   6.762   2.202  11.230 -0.1422 -0.7128  0.4818
11785TIP3    H156846   6.842   2.157  11.257  0.1796 -0.6334 -0.3063
11785TIP3    H256847   6.793   2.284  11.192 -0.4469 -1.5425 -1.6235
11786TIP3   OH256848   6.253   5.008  16.305  0.5715 -0.2573 -0.2662
11786TIP3    H156849   6.255   4.914  16.325 -0.3560 -0.2069  0.1132
11786TIP3    H256850   6.342   5.029  16.280  1.4640 -0.6310  2.4273
11787TIP3   OH256851   1.397   0.893   0.551 -0.0243  0.0746  0.0715
11787TIP3    H156852   1.317   0.872   0.599  0.9864 -1.3262  1.1911
11787TIP3    H256853   1.415   0.815   0.499  0.5898  0.4042 -0.2190
11788TIP3   OH256854   1.250   5.874  12.082  0.4981 -0.5610 -0.2107
11788TIP3    H156855   1.234   5.828  12.165 -0.5721  1.9432  1.0380
11788TIP3    H256856   1.174   5.852  12.028  0.7677 -1.5058 -0.2144
11789TIP3   OH256857   4.550   4.326  15.093  0.1394  0.4942  0.5090
11789TIP3    H156858   4.634   4.294  15.126  0.5108  0.1462 -0.7306
11789TIP3    H256859   4.560   4.421  15.090  0.9431  0.3948 -0.7456
11790TIP3   OH256860   5.146   3.283   6.086  0.0980 -0.2236 -0.7403
11790TIP3    H156861   5.235   3.315   6.101 -0.2411  0.6152 -0.4782
11790TIP3    H256862   5.091   3.338   6.142 -0.2613 -2.8082  1.5368
11791TIP3   OH256863   3.820   2.776  12.131 -0.1344  0.4992  0.6112
11791TIP3    H156864   3.900   2.802  12.175  0.8784  1.2234 -1.5518
11791TIP3    H256865   3.750   2.810  12.186  1.0269  0.2240  2.3064
11792TIP3   OH256866   3.802   3.002  15.210  0.5277  0.1212  0.2571
11792TIP3    H156867   3.866   2.936  15.185  2.1530  1.4021  1.0167
11792TIP3    H256868   3.822   3.022  15.301 -1.0381  0.4394  0.5428
11793TIP3   OH256869   0.829   4.897  13.540 -0.2674 -0.1739 -0.3919
11793TIP3    H156870   0.904   4.936  13.495  0.8826 -2.6908 -0.7237
11793TIP3    H256871   0.863   4.871  13.625 -1.0163 -0.4976 -0.1878
11794TIP3   OH256872   4.256   3.787   1.070  0.3686 -0.5625 -0.7491
11794TIP3    H156873   4.170   3.768   1.034  0.0041  0.4146 -0.4025
11794TIP3    H256874   4.263   3.730   1.147  0.1601 -0.8663 -0.9547
11795TIP3   OH256875   5.494   4.751   2.637  0.1637  0.1958 -0.0612
11795TIP3    H156876   5.546   4.688   2.687  0.5658 -0.1266 -0.8754
11795TIP3    H256877   5.404   4.721   2.647  0.4107 -0.9348 -1.0176
11796TIP3   OH256878   3.689   4.656  16.865 -0.5643 -0.1886 -0.7450
11796TIP3    H156879   3.768   4.660  16.918 -0.3033  0.6279 -1.1858
11796TIP3    H256880   3.639   4.735  16.889 -0.5998  0.0138 -1.4524
11797TIP3   OH256881   0.287   2.528   5.525  0.1246 -0.0226 -0.3517
11797TIP3    H156882   0.335   2.605   5.495  1.6360 -0.6559  0.4278
11797TIP3    H256883   0.353   2.460   5.532 -1.1777 -1.3611 -0.8552
11798TIP3   OH256884   0.315   2.193  14.946 -0.4122  0.2244  0.0884
11798TIP3    H156885   0.362   2.110  14.952 -1.7237 -0.6472 -1.2470
11798TIP3    H256886   0.331   2.237  15.029 -0.6959 -1.9124  1.2911
11799TIP3   OH256887   3.163   0.363  14.163  0.6839 -0.2213 -0.0324
11799TIP3    H156888   3.185   0.434  14.224 -3.1498  0.3973  0.7984
11799TIP3    H256889   3.243   0.348  14.114  2.2360  3.2650  1.2201
11800TIP3   OH256890   0.569   6.360   3.221 -0.5583  0.4901  1.2519
11800TIP3    H156891   0.551   6.449   3.192  0.1569  0.1955 -0.1046
11800TIP3    H256892   0.664   6.355   3.225 -0.5464 -0.7213 -0.3012
11801TIP3   OH256893   2.357   4.104  10.635 -0.7149  0.4016  0.2116
11801TIP3    H156894   2.445   4.068  10.631 -0.8867 -0.0342  0.3856
11801TIP3    H256895   2.329   4.092  10.725 -0.2161  2.3080  0.6484
11802TIP3   OH256896   5.456   3.075  15.871  0.3989  0.2345  0.0052
11802TIP3    H156897   5.375   3.096  15.916  0.3230  0.5386 -0.2787
11802TIP3    H256898   5.486   3.157  15.834  0.7407  0.0879 -0.0522
11803TIP3   OH256899   1.367   4.305  14.641  0.6649  0.1751 -0.2186
11803TIP3    H156900   1.432   4.325  14.709  1.1054  0.2891 -0.6712
11803TIP3    H256901   1.378   4.375  14.576  0.5157 -0.1559 -0.6000
11804TIP3   OH256902   5.633   6.751   6.502  0.3188  0.0249  0.3592
11804TIP3    H156903   5.678   6.732   6.583 -0.1624 -0.5896  0.4879
11804TIP3    H256904   5.590   6.835   6.517  1.8630  0.8760  0.0398
11805TIP3   OH256905   2.556   5.421  15.127  0.5000 -0.4660 -0.1507
11805TIP3    H156906   2.613   5.497  15.139 -2.0747  1.7938 -1.6561
11805TIP3    H256907   2.518   5.407  15.214  1.0896 -0.1073  0.1752
11806TIP3   OH256908   6.730   4.593   4.269 -0.1311  0.6839  0.5054
11806TIP3    H156909   6.646   4.558   4.239  0.1492 -0.3034  0.8627
11806TIP3    H256910   6.751   4.662   4.206 -0.2219 -0.4421 -0.7663
11807TIP3   OH256911   0.497   4.536  16.162 -0.1372  0.4622 -0.8540
11807TIP3    H156912   0.557   4.607  16.138  0.0505  1.0508  1.2629
11807TIP3    H256913   0.555   4.462  16.181 -0.1084  0.7771  0.3369
11808TIP3   OH256914   2.378   2.738   4.531  0.2064  0.1542  0.2110
11808TIP3    H156915   2.325   2.671   4.573 -0.3920 -0.0377 -0.8362
11808TIP3    H256916   2.443   2.762   4.597  0.1461 -1.1243  0.7487
11809TIP3   OH256917   1.003   2.078  15.254 -0.1555  0.2105  0.2063
11809TIP3    H156918   0.939   2.092  15.323 -0.3138 -1.1185  0.3272
11809TIP3    H256919   1.077   2.035  15.297  1.6022  3.3035  0.4562
11810TIP3   OH256920   0.524   1.205  15.836 -0.2738  0.2653  0.5068
11810TIP3    H156921   0.454   1.142  15.853  0.0266  0.3004  1.8883
11810TIP3    H256922   0.565   1.219  15.921  0.4756  1.3600 -0.0281
11811TIP3   OH256923   0.200   6.285   0.565 -0.0410  0.8145  0.4062
11811TIP3    H156924   0.167   6.253   0.481  0.9803  1.5981 -0.2960
11811TIP3    H256925   0.277   6.336   0.543  0.9610  0.0063  1.9384
11812TIP3   OH256926   3.831   3.356   0.489 -0.0349  0.0476 -0.5066
11812TIP3    H156927   3.858   3.354   0.397 -2.7573  0.1267 -1.3355
11812TIP3    H256928   3.824   3.263   0.514 -1.5510  0.0015 -1.0760
11813TIP3   OH256929   3.322   0.122   4.099 -0.9005 -0.2227  0.0416
11813TIP3    H156930   3.363   0.194   4.146 -0.4638 -0.6353  0.2927
11813TIP3    H256931   3.383   0.049   4.108 -2.1070 -1.1056  1.2049
11814TIP3   OH256932   4.722   1.058  13.544 -0.3959  0.1527  0.0422
11814TIP3    H156933   4.638   1.090  13.512 -0.5951  0.6065  0.9940
11814TIP3    H256934   4.703   0.971  13.580 -0.2302 -0.2282 -0.7772
11815TIP3   OH256935   6.750   4.598   2.276 -0.0760  0.1149  0.2696
11815TIP3    H156936   6.665   4.563   2.248 -0.3588  0.6371  0.4514
11815TIP3    H256937   6.814   4.550   2.225 -0.4795 -0.3799  0.2243
11816TIP3   OH256938   2.134   0.691   3.576 -0.3828  0.3407 -0.0161
11816TIP3    H156939   2.077   0.765   3.599 -0.2375  0.0080  1.4543
11816TIP3    H256940   2.167   0.713   3.489  0.4053  2.4707  0.7777
11817TIP3   OH256941   6.366   6.602  13.419 -0.2992 -0.3224  0.4020
11817TIP3    H156942   6.370   6.687  13.376  0.7450 -1.0373 -0.9981
11817TIP3    H256943   6.281   6.566  13.396  0.0977 -0.5288 -0.7724
11818TIP3   OH256944   3.953   0.747  12.984 -0.2342  0.2745  0.5228
11818TIP3    H156945   4.032   0.801  12.987 -1.2011  1.7053  0.4893
11818TIP3    H256946   3.972   0.681  12.917  1.0306  0.4637  0.6889
11819TIP3   OH256947   3.224   0.349  15.832 -0.0230  0.1169  0.2223
11819TIP3    H156948   3.156   0.325  15.896  0.2432 -2.1562 -0.3387
11819TIP3    H256949   3.278   0.413  15.879 -0.3650 -0.8431  1.9787
11820TIP3   OH256950   0.286   5.095   1.848 -0.3094  0.1347 -0.1177
11820TIP3    H156951   0.207   5.111   1.796  0.3448  1.5919 -0.6757
11820TIP3    H256952   0.358   5.106   1.787  0.3074 -2.2640  0.1344
11821TIP3   OH256953   2.063   4.078   2.676  0.1228  0.3233  0.7469
11821TIP3    H156954   2.097   3.988   2.673 -0.7615 -0.0181  0.9113
11821TIP3    H256955   2.043   4.099   2.585 -1.3493 -0.3008  0.9125
11822TIP3   OH256956   5.385   1.319   0.745 -0.0727  0.1034 -0.6150
11822TIP3    H156957   5.308   1.342   0.797  0.4887 -1.1103  0.8115
11822TIP3    H256958   5.358   1.331   0.655 -1.5218  0.9508 -0.0837
11823TIP3   OH256959   2.144   3.254  12.451  0.3986  0.7102  0.2272
11823TIP3    H156960   2.150   3.189  12.521  0.7803 -2.2800 -2.4473
11823TIP3    H256961   2.063   3.301  12.468 -0.5104 -1.3055  1.5491
11824TIP3   OH256962   3.784   2.353  12.844  0.6861  0.7384 -0.4585
11824TIP3    H156963   3.809   2.360  12.752  0.7983 -0.2923 -0.5132
11824TIP3    H256964   3.689   2.353  12.843  0.6541 -1.6991 -0.7990
11825TIP3   OH256965   1.279   0.599  11.935  0.0774 -0.0209  0.0645
11825TIP3    H156966   1.288   0.508  11.961 -1.9006 -0.1582  0.3532
11825TIP3    H256967   1.342   0.610  11.864  1.9317 -0.9865  1.4890
11826TIP3   OH256968   1.382   5.903  13.691 -0.3891  0.6735 -0.6012
11826TIP3    H156969   1.377   5.809  13.677  2.0691  0.2599  1.0749
11826TIP3    H256970   1.439   5.935  13.622  0.0610  0.6933 -0.2244
11827TIP3   OH256971   5.148   5.924   4.463 -0.3161  0.1671 -0.4974
11827TIP3    H156972   5.166   5.844   4.513 -0.9661  0.0647 -0.4223
11827TIP3    H256973   5.226   5.978   4.475 -0.2347 -0.0902  0.1637
11828TIP3   OH256974   3.684   2.586   2.151 -0.0131 -0.0697  0.4873
11828TIP3    H156975   3.611   2.540   2.193 -1.0319  0.7672 -0.3245
11828TIP3    H256976   3.680   2.558   2.059  1.5540 -1.0924  0.7061
11829TIP3   OH256977   4.766   6.662   0.247  0.4394 -0.5968  0.3087
11829TIP3    H156978   4.714   6.720   0.302 -1.7647 -0.3925 -1.9157
11829TIP3    H256979   4.856   6.694   0.256 -0.0204  0.1102  2.8697
11830TIP3   OH256980   2.572   6.807  11.945 -0.3407  0.3982 -0.4458
11830TIP3    H156981   2.489   6.765  11.969 -1.0765  1.2706 -1.3971
11830TIP3    H256982   2.567   6.817  11.850  1.2459 -0.3352 -0.6209
11831TIP3   OH256983   1.053   4.759  16.781  0.6293  0.3509  0.0614
11831TIP3    H156984   0.977   4.800  16.740 -1.6391 -0.6753  3.0111
11831TIP3    H256985   1.113   4.831  16.800 -1.4988  1.7672  1.5251
11832TIP3   OH256986   6.130   6.378  13.500  0.0021 -0.5446 -0.5157
11832TIP3    H156987   6.069   6.352  13.431 -0.6349 -2.6995  0.8086
11832TIP3    H256988   6.213   6.337  13.475 -0.3775 -1.8316  0.2719
11833TIP3   OH256989   1.530   6.437  14.718 -0.3572 -0.0982  0.0604
11833TIP3    H156990   1.494   6.462  14.804 -0.4894 -0.4697  0.1161
11833TIP3    H256991   1.475   6.482  14.655 -0.4953 -0.1178  0.1650
11834TIP3   OH256992   6.737   6.757  11.186  0.5837 -0.3422  0.0473
11834TIP3    H156993   6.825   6.772  11.220  0.9898 -0.4728 -0.9460
11834TIP3    H256994   6.742   6.673  11.141 -0.3251 -0.8729  0.9014
11835TIP3   OH256995   0.226   2.401   3.115 -0.5827  0.0366 -0.3795
11835TIP3    H156996   0.308   2.396   3.068 -0.9627  0.4207 -1.0875
11835TIP3    H256997   0.160   2.368   3.054 -1.0219  0.1896  0.0022
11836TIP3   OH256998   4.918   5.442  12.348  0.0423  0.6623 -0.6539
11836TIP3    H156999   4.979   5.401  12.287  1.1725  3.7807 -1.6986
11836TIP3    H257000   4.972   5.503  12.398 -1.7435  1.5343  0.2386
11837TIP3   OH257001   2.342   0.326  16.349  0.0432 -0.2502 -0.6412
11837TIP3    H157002   2.334   0.303  16.256 -2.1751 -1.6608 -0.1423
11837TIP3    H257003   2.377   0.415  16.348 -1.1437  0.2488 -2.8629
11838TIP3   OH257004   4.202   5.766   0.900 -0.0323  0.3907 -0.1244
11838TIP3    H157005   4.235   5.795   0.815 -1.5730 -1.8154 -1.4975
11838TIP3    H257006   4.278   5.770   0.957  1.0897  1.6339 -1.6455
11839TIP3   OH257007   0.483   1.714  11.901  0.5493 -0.0985  0.0683
11839TIP3    H157008   0.458   1.806  11.911 -0.1610 -0.4049  1.1225
11839TIP3    H257009   0.438   1.686  11.822 -0.2880  0.0976  0.4728
11840TIP3   OH257010   3.547   1.163   4.590  0.0218 -0.0831 -0.0696
11840TIP3    H157011   3.540   1.257   4.607  0.0646  0.0256 -0.6343
11840TIP3    H257012   3.490   1.122   4.655  1.5985  0.2050  1.5065
11841TIP3   OH257013   4.067   0.445  13.444 -0.4765  0.3064  0.2425
11841TIP3    H157014   4.151   0.402  13.425 -0.0396  0.7964  1.0280
11841TIP3    H257015   4.008   0.414  13.375  0.9960  1.8439 -1.7738
11842TIP3   OH257016   5.202   5.392  12.629  0.2747 -0.0856 -0.2800
11842TIP3    H157017   5.291   5.412  12.658  0.1540  0.1152 -0.0433
11842TIP3    H257018   5.147   5.458  12.672  0.0012 -0.2597 -0.3569
11843TIP3   OH257019   5.033   3.933  12.265  0.6363  0.3691  0.1904
11843TIP3    H157020   4.974   3.864  12.237  1.2649  0.2853 -0.9466
11843TIP3    H257021   5.024   3.935  12.361  0.8727 -1.5014  0.2660
11844TIP3   OH257022   3.294   3.103   2.416  0.4580  0.0333 -0.1425
11844TIP3    H157023   3.382   3.084   2.385  0.5551  1.4800 -0.7977
11844TIP3    H257024   3.246   3.021   2.405  1.4116 -0.4258 -0.9064
11845TIP3   OH257025   1.762   5.764  12.145  0.0582  0.4340 -0.2202
11845TIP3    H157026   1.786   5.675  12.120  0.6461  0.4436  0.3041
11845TIP3    H257027   1.793   5.818  12.073 -2.3171 -0.0108 -1.6146
11846TIP3   OH257028   1.335   5.085  15.861 -0.3938  0.4017 -0.4220
11846TIP3    H157029   1.279   5.029  15.807  0.3703  0.0671 -0.8745
11846TIP3    H257030   1.276   5.118  15.929 -0.7043 -1.6288  0.3595
11847TIP3   OH257031   2.800   5.895  15.679 -0.5073 -0.4959 -0.0414
11847TIP3    H157032   2.754   5.916  15.597  2.2903 -1.2377 -1.8738
11847TIP3    H257033   2.844   5.977  15.702  0.2757 -0.8227 -0.3597
11848TIP3   OH257034   5.106   1.653   6.293 -0.3632 -0.7762 -0.0048
11848TIP3    H157035   5.096   1.613   6.380 -0.6018  0.7106  0.6685
11848TIP3    H257036   5.199   1.646   6.274 -0.0882  0.0681  0.9652
11849TIP3   OH257037   0.788   1.678  16.231  0.3336  0.7001 -0.1017
11849TIP3    H157038   0.738   1.638  16.159  0.0914  2.0215 -0.6813
11849TIP3    H257039   0.781   1.772  16.215  2.4452  0.9323  0.1792
11850TIP3   OH257040   1.962   5.243   0.582  0.4959  0.3842 -0.1209
11850TIP3    H157041   1.984   5.192   0.504 -1.2789 -1.5687  0.6070
11850TIP3    H257042   1.878   5.285   0.560 -0.4580 -0.8806  1.0247
11851TIP3   OH257043   1.527   1.017   5.500  0.0733 -0.5667  0.2370
11851TIP3    H157044   1.595   0.955   5.526 -0.3611 -1.2080 -0.1281
11851TIP3    H257045   1.528   1.084   5.568  2.8551  0.8366 -1.1458
11852TIP3   OH257046   1.685   3.409   1.813  0.2551 -0.4532 -0.1646
11852TIP3    H157047   1.779   3.414   1.828  0.3903  0.3468 -1.2236
11852TIP3    H257048   1.676   3.367   1.728 -0.3904 -1.6445  0.4728
11853TIP3   OH257049   6.032   6.211  16.233  0.1221 -0.1374 -0.0996
11853TIP3    H157050   6.080   6.133  16.206 -0.4726 -0.7602  0.6020
11853TIP3    H257051   5.945   6.199  16.196 -1.0275 -1.5246  2.9377
11854TIP3   OH257052   5.880   4.019   5.788 -0.4090 -0.5267  0.2118
11854TIP3    H157053   5.944   4.014   5.859 -1.1203  0.0641  0.8988
11854TIP3    H257054   5.825   3.942   5.800 -0.7397 -0.2448  0.5054
11855TIP3   OH257055   6.174   5.167   1.822  0.1385 -0.3129 -0.3371
11855TIP3    H157056   6.120   5.127   1.890  1.9639 -2.3275 -0.0209
11855TIP3    H257057   6.138   5.135   1.740 -0.1315 -0.3854 -0.1903
11856TIP3   OH257058   0.911   6.614  13.246 -0.6471 -0.3341  0.7474
11856TIP3    H157059   1.000   6.582  13.233 -0.0983  2.0073 -1.5975
11856TIP3    H257060   0.912   6.655  13.332  0.4816 -0.4430  0.7935
11857TIP3   OH257061   4.603   5.594  14.433  0.1252 -0.2644  0.3891
11857TIP3    H157062   4.514   5.617  14.406  0.1838  0.9844  1.2050
11857TIP3    H257063   4.605   5.498  14.430 -0.3138 -0.2234 -2.5464
11858TIP3   OH257064   1.562   5.411   5.860  0.0044  0.0286  0.0497
11858TIP3    H157065   1.520   5.325   5.862  1.1138 -0.5060  1.3849
11858TIP3    H257066   1.557   5.438   5.768  1.5863 -2.4742 -0.8507
11859TIP3   OH257067   1.008   0.334   3.201  0.2850  0.6371 -0.4480
11859TIP3    H157068   1.085   0.340   3.144 -0.6786  1.3609 -1.6799
11859TIP3    H257069   1.045   0.335   3.290  1.6862  1.2821 -1.0158
11860TIP3   OH257070   5.748   2.230   4.589 -0.0818  0.2461 -0.2268
11860TIP3    H157071   5.771   2.320   4.567  1.2956  0.4535  1.9201
11860TIP3    H257072   5.677   2.239   4.653 -1.4081 -0.2617 -1.5953
11861TIP3   OH257073   3.842   6.746  12.107  0.1653 -0.7568 -0.3264
11861TIP3    H157074   3.755   6.722  12.077  0.5074  0.0600 -2.0138
11861TIP3    H257075   3.886   6.780  12.029  2.2147 -1.7685  0.3456
11862TIP3   OH257076   3.931   5.831   0.857  0.8229  0.0251 -0.4180
11862TIP3    H157077   4.022   5.805   0.872  0.7285 -0.5829 -0.8908
11862TIP3    H257078   3.917   5.903   0.918  1.3733 -0.4143  0.2400
11863TIP3   OH257079   5.083   1.893   2.615  0.5028 -0.4088 -0.3077
11863TIP3    H157080   5.024   1.824   2.584 -1.3914  1.0823 -0.0873
11863TIP3    H257081   5.105   1.943   2.536  1.8963 -1.2641 -0.4720
11864TIP3   OH257082   1.361   5.988  13.946  0.1591 -0.2120 -0.1077
11864TIP3    H157083   1.361   5.900  13.986  2.0188 -0.9994 -1.7798
11864TIP3    H257084   1.349   5.972  13.853 -0.0330  1.3686 -0.3631
11865TIP3   OH257085   3.522   1.693   6.472  0.2626 -0.3879  0.0368
11865TIP3    H157086   3.440   1.712   6.517  1.8824  3.6032  1.5338
11865TIP3    H257087   3.590   1.702   6.539  2.1111 -1.7663 -1.5619
11866TIP3   OH257088   4.294   1.172  17.136  0.1196  0.0660 -0.0954
11866TIP3    H157089   4.335   1.140  17.215 -0.6957  0.2802  0.4185
11866TIP3    H257090   4.353   1.240  17.104  0.2667  0.2295  0.5274
11867TIP3   OH257091   6.590   2.160  10.708 -0.4310 -0.1004 -0.4322
11867TIP3    H157092   6.656   2.215  10.751  0.2111  0.4756 -2.0988
11867TIP3    H257093   6.512   2.169  10.763  0.2720  0.8633  0.4346
11868TIP3   OH257094   1.852   0.520   5.560  0.1331 -0.4855 -0.4370
11868TIP3    H157095   1.854   0.466   5.481  0.1228  0.0116 -0.7806
11868TIP3    H257096   1.764   0.508   5.596  0.0738 -0.5622 -0.6069
11869TIP3   OH257097   1.411   4.454   3.996  0.0002 -0.7950  0.0862
11869TIP3    H157098   1.339   4.390   4.000 -0.6669 -0.1998 -2.1365
11869TIP3    H257099   1.487   4.402   3.971  0.3411 -1.3949  2.2625
11870TIP3   OH257100   6.455   2.244   6.144  0.2416  0.0349  0.2054
11870TIP3    H157101   6.455   2.287   6.059 -0.7515  3.1925  1.7285
11870TIP3    H257102   6.543   2.261   6.179  0.2846 -0.3144  0.2646
11871TIP3   OH257103   0.834   3.765  11.405 -0.2670 -0.5958  0.1696
11871TIP3    H157104   0.885   3.707  11.462 -0.1763  0.0371  0.7351
11871TIP3    H257105   0.887   3.774  11.326 -0.8988 -2.3690 -0.4941
11872TIP3   OH257106   5.393   2.720   2.440  0.6285  0.2537  0.3119
11872TIP3    H157107   5.457   2.729   2.511 -1.3244 -0.5218  2.2072
11872TIP3    H257108   5.348   2.638   2.458 -1.3857  1.1216 -0.6275
11873TIP3   OH257109   5.536   0.723   5.572 -0.0579  0.4311  0.7335
11873TIP3    H157110   5.562   0.708   5.481  0.7382  0.2593  0.9829
11873TIP3    H257111   5.618   0.738   5.619 -0.3912 -0.3326  1.5863
11874TIP3   OH257112   1.619   0.400  13.647  0.1973 -0.4789 -0.1299
11874TIP3    H157113   1.575   0.346  13.712  1.2828 -1.0277  0.1617
11874TIP3    H257114   1.569   0.387  13.567 -0.3391 -0.8588  0.2639
11875TIP3   OH257115   4.878   0.765  14.255  0.0730 -0.0887  0.3705
11875TIP3    H157116   4.972   0.773  14.238 -0.3332  0.7110 -1.5754
11875TIP3    H257117   4.868   0.796  14.345  1.1143  4.0066 -0.8321
11876TIP3   OH257118   6.638   0.960   0.201  0.1453 -0.1275 -0.1794
11876TIP3    H157119   6.666   1.051   0.189 -1.0046  0.1134 -1.1505
11876TIP3    H257120   6.550   0.967   0.238  0.2868 -0.8495  0.2821
11877TIP3   OH257121   2.264   0.617   2.744  0.0657  0.1152  0.2127
11877TIP3    H157122   2.298   0.646   2.829  0.2385  0.0035  0.1827
11877TIP3    H257123   2.200   0.549   2.766 -1.2117  1.3514  0.3402
11878TIP3   OH257124   1.501   6.502   3.425 -0.1899 -0.1583  0.1587
11878TIP3    H157125   1.502   6.419   3.379  1.8679 -0.6454  1.0140
11878TIP3    H257126   1.592   6.531   3.425 -0.7585  1.7267  0.5350
11879TIP3   OH257127   4.780   5.561   5.218 -0.0552  0.3232 -0.0101
11879TIP3    H157128   4.747   5.518   5.297  0.6084 -1.6316 -0.7463
11879TIP3    H257129   4.849   5.619   5.249 -0.5406  0.3811  0.9632
11880TIP3   OH257130   4.812   4.823  10.948  0.0026  0.2746 -0.3015
11880TIP3    H157131   4.736   4.852  10.998  0.8113  1.1636  0.4376
11880TIP3    H257132   4.817   4.885  10.875 -0.8419 -0.6770 -1.1779
11881TIP3   OH257133   4.579   6.503  11.693  0.9961  0.0670  0.1557
11881TIP3    H157134   4.624   6.447  11.630 -0.1580  1.4091 -1.9531
11881TIP3    H257135   4.486   6.486  11.678  0.6216  2.4864 -0.5567
11882TIP3   OH257136   6.321   6.273   2.341  0.1932 -0.1824  0.0159
11882TIP3    H157137   6.309   6.266   2.246  2.4545  1.2179 -0.4018
11882TIP3    H257138   6.316   6.367   2.358 -1.0561 -0.4905  1.4306
11883TIP3   OH257139   4.210   2.051   1.691  0.0730  0.1705 -0.1451
11883TIP3    H157140   4.234   1.962   1.663  0.7753 -0.0595  1.1421
11883TIP3    H257141   4.117   2.059   1.668  0.2645 -0.5212 -1.2055
11884TIP3   OH257142   0.333   6.482  14.379  0.3631 -0.3454  0.0807
11884TIP3    H157143   0.354   6.459  14.289 -0.5682 -0.3185 -0.1492
11884TIP3    H257144   0.255   6.538  14.372 -1.0882 -2.1689  1.0267
11885TIP3   OH257145   1.783   5.229   4.915 -0.6370 -0.1089 -0.0616
11885TIP3    H157146   1.688   5.242   4.912 -0.7837 -0.8067  1.1395
11885TIP3    H257147   1.811   5.272   4.995 -0.5599 -3.4371  1.7787
11886TIP3   OH257148   5.657   5.971   1.737 -0.0425  0.1478 -0.3368
11886TIP3    H157149   5.609   5.975   1.820  1.6147  0.0747  0.6432
11886TIP3    H257150   5.636   5.884   1.702  2.5022 -1.4918  2.0273
11887TIP3   OH257151   0.101   2.002  14.144  0.3099  0.8350 -0.1998
11887TIP3    H157152   0.045   1.938  14.100  0.1870  0.9006 -0.1385
11887TIP3    H257153   0.158   2.036  14.074 -0.1570  1.2306 -0.3868
11888TIP3   OH257154   5.474   6.770  16.079 -0.4572  0.4846  0.3061
11888TIP3    H157155   5.506   6.747  16.167  0.4666  2.1771  0.4334
11888TIP3    H257156   5.425   6.693  16.051  2.0826 -1.4095  0.9117
11889TIP3   OH257157   5.800   2.380   5.385 -0.8201 -0.2792 -0.0256
11889TIP3    H157158   5.762   2.300   5.350 -1.6201 -0.4243  1.1569
11889TIP3    H257159   5.882   2.391   5.336 -1.4431 -0.9931 -1.2400
11890TIP3   OH257160   3.699   0.740   3.754 -0.2597  0.4300 -0.3199
11890TIP3    H157161   3.701   0.831   3.782  0.4973  0.7323 -1.3244
11890TIP3    H257162   3.763   0.735   3.683 -0.3483 -0.8643 -0.3272
11891TIP3   OH257163   5.741   6.043   5.186  0.0549 -0.4380 -0.0464
11891TIP3    H157164   5.748   5.947   5.184 -1.0956 -0.5509  0.7955
11891TIP3    H257165   5.796   6.069   5.259 -1.7208 -0.6793  1.4049
11892TIP3   OH257166   2.373   6.178   6.319 -0.1273  0.1221 -0.1982
11892TIP3    H157167   2.423   6.183   6.401  0.1313  0.1049 -0.3536
11892TIP3    H257168   2.322   6.097   6.327  0.7163 -0.4563 -0.5085
11893TIP3   OH257169   2.928   2.785  13.864  0.1413  0.8542  0.1357
11893TIP3    H157170   2.917   2.875  13.895 -0.1721  0.7030  0.4641
11893TIP3    H257171   2.877   2.732  13.925  1.3844  0.3101  0.7284
11894TIP3   OH257172   6.657   2.511   5.236 -0.6538  0.4317  0.0804
11894TIP3    H157173   6.712   2.550   5.305  0.4663 -2.2366  0.7752
11894TIP3    H257174   6.684   2.555   5.156  1.6296  0.0744  0.6211
11895TIP3   OH257175   2.552   2.671   1.002 -0.3400 -0.1671 -0.0784
11895TIP3    H157176   2.532   2.591   0.955 -0.6101  0.2299 -0.6449
11895TIP3    H257177   2.644   2.689   0.982 -0.3147 -0.2698 -0.0519
11896TIP3   OH257178   0.251   1.131   4.297 -0.2936 -0.0742 -0.1332
11896TIP3    H157179   0.320   1.142   4.363  0.1783  0.1816 -0.6703
11896TIP3    H257180   0.187   1.074   4.340  0.0407  0.0393  0.5283
11897TIP3   OH257181   3.350   5.384  15.038  0.2341 -0.3485  0.2321
11897TIP3    H157182   3.298   5.308  15.010  0.3452 -1.0512  1.9166
11897TIP3    H257183   3.394   5.413  14.958  1.2675 -2.9066 -0.1709
11898TIP3   OH257184   4.125   4.421  13.963  0.4516  0.0160 -0.0489
11898TIP3    H157185   4.124   4.517  13.957  1.6009  0.0962  0.7208
11898TIP3    H257186   4.201   4.395  13.910  0.0609 -0.4731 -0.3627
11899TIP3   OH257187   2.002   2.413   4.957 -0.0519 -0.5730 -0.2498
11899TIP3    H157188   1.944   2.364   5.015 -0.1174  0.2235  0.3665
11899TIP3    H257189   1.965   2.402   4.870 -0.2890 -1.2856 -0.0620
11900TIP3   OH257190   0.527   1.309  11.959  0.2237  0.8696 -0.1528
11900TIP3    H157191   0.593   1.314  11.889 -0.6260  0.0193 -1.0309
11900TIP3    H257192   0.453   1.358  11.924  0.0180  0.9746  0.4289
11901TIP3   OH257193   0.848   0.405   6.484 -0.4062 -0.4098  0.4323
11901TIP3    H157194   0.821   0.494   6.508  0.7586  0.3145 -0.8836
11901TIP3    H257195   0.927   0.390   6.535 -1.1964 -1.1280  1.4775
11902TIP3   OH257196   4.310   4.525   1.550 -0.0651  0.0199 -0.4246
11902TIP3    H157197   4.244   4.536   1.481 -0.9824  0.7733  0.5652
11902TIP3    H257198   4.272   4.462   1.610  0.6540 -0.4772 -0.4745
11903TIP3   OH257199   2.582   5.500  16.829 -0.7293 -0.1780  0.3613
11903TIP3    H157200   2.509   5.456  16.872 -1.4539 -0.2328 -0.9121
11903TIP3    H257201   2.621   5.433  16.773 -2.3286  0.9642 -2.2001
11904TIP3   OH257202   2.997   1.601  15.727 -0.2388 -0.1276  0.3359
11904TIP3    H157203   2.949   1.671  15.682 -1.4838 -1.2254 -0.0754
11904TIP3    H257204   3.081   1.595  15.682  1.6946  3.9958  3.0535
11905TIP3   OH257205   4.648   0.693  15.694  0.5154  0.2653 -0.6661
11905TIP3    H157206   4.641   0.660  15.784 -0.0167  0.9184 -0.4669
11905TIP3    H257207   4.579   0.647  15.646  0.0595  0.7543 -0.4855
11906TIP3   OH257208   1.661   1.711  16.094  0.2525 -0.1604 -1.1689
11906TIP3    H157209   1.617   1.704  16.179  0.7315 -0.5156 -0.9468
11906TIP3    H257210   1.715   1.790  16.101  0.3755 -0.2504 -1.1048
11907TIP3   OH257211   2.649   5.495   2.598 -0.0029  0.3206  0.4517
11907TIP3    H157212   2.655   5.400   2.596 -0.9665  0.2483  0.7233
11907TIP3    H257213   2.671   5.523   2.509  2.9781  0.0281  1.0144
11908TIP3   OH257214   4.410   4.302  14.329 -0.2664  0.2656  0.2453
11908TIP3    H157215   4.339   4.259  14.282  0.5483  0.3496 -1.0640
11908TIP3    H257216   4.437   4.374  14.273  0.7779  0.3153  0.7970
11909TIP3   OH257217   5.469   1.855   5.039 -0.2947  0.3809 -0.0949
11909TIP3    H157218   5.553   1.846   5.084  1.0562  2.1707 -2.1585
11909TIP3    H257219   5.457   1.772   4.994  0.4905  0.1963  0.0280
11910TIP3   OH257220   6.276   6.733   0.773  0.1757 -0.3058  0.0623
11910TIP3    H157221   6.264   6.652   0.724  0.1143 -1.1601  1.4766
11910TIP3    H257222   6.290   6.705   0.863 -0.8066  1.3000  0.7280
11911TIP3   OH257223   2.044   2.182  14.064 -0.2264 -0.5280  0.0437
11911TIP3    H157224   2.099   2.105  14.080 -1.0247 -1.2810 -0.7199
11911TIP3    H257225   1.967   2.169  14.120  0.0213  0.1268  0.5304
11912TIP3   OH257226   1.742   3.053   5.385 -0.6923 -0.3277 -0.1519
11912TIP3    H157227   1.709   3.107   5.313 -0.1266  0.2588  0.0170
11912TIP3    H257228   1.667   3.041   5.443 -1.1276 -0.7315 -0.7976
11913TIP3   OH257229   6.620   0.191   2.519 -0.7124  0.0062  0.0554
11913TIP3    H157230   6.648   0.123   2.458  0.2883  0.0144  0.4962
11913TIP3    H257231   6.530   0.166   2.542 -0.4692 -0.9934 -0.0263
11914TIP3   OH257232   3.571   5.763   5.289 -0.6423 -0.1892 -0.0973
11914TIP3    H157233   3.605   5.675   5.304 -1.5726 -0.0831  2.8874
11914TIP3    H257234   3.481   5.760   5.319 -0.6881  1.7638  0.0271
11915TIP3   OH257235   2.361   0.151  17.199  0.2528  0.1057 -0.0773
11915TIP3    H157236   2.450   0.154  17.233  0.6045  2.2943 -1.1001
11915TIP3    H257237   2.324   0.070  17.234  2.1325 -0.0457  1.6041
11916TIP3   OH257238   2.344   1.140  12.540 -0.2677  0.2767  0.3015
11916TIP3    H157239   2.268   1.111  12.490 -1.0265 -0.3778  1.7973
11916TIP3    H257240   2.393   1.059  12.556 -0.1442  0.4501  0.7982
11917TIP3   OH257241   4.093   3.967  11.065 -0.0825  0.2405 -0.0367
11917TIP3    H157242   4.018   4.010  11.025 -0.1914 -0.5108 -0.6538
11917TIP3    H257243   4.094   3.999  11.155  0.3354  2.1615 -0.7090
11918TIP3   OH257244   4.644   6.416  15.760 -0.5899 -0.0832 -0.2958
11918TIP3    H157245   4.674   6.506  15.750 -1.4053  0.3508  0.9637
11918TIP3    H257246   4.607   6.394  15.675  0.3991  0.4602 -0.8827
11919TIP3   OH257247   2.408   3.695   4.116  0.7237  0.2431  0.0466
11919TIP3    H157248   2.350   3.756   4.071  2.6240  2.6057  0.6708
11919TIP3    H257249   2.407   3.616   4.062 -2.0833  0.6450 -0.5798
11920TIP3   OH257250   4.321   3.979   4.645  0.5339 -0.0100  0.5209
11920TIP3    H157251   4.388   4.036   4.608  1.2135 -0.4322  1.0905
11920TIP3    H257252   4.293   3.924   4.571 -0.1590  1.0715 -0.0389
11921TIP3   OH257253   1.308   3.746   4.743 -0.0546  0.2288 -0.4519
11921TIP3    H157254   1.297   3.654   4.717 -0.7086  0.4513 -0.9636
11921TIP3    H257255   1.362   3.785   4.674  1.4870 -0.1213  0.5216
11922TIP3   OH257256   5.310   3.528   1.370  0.5724 -0.1149 -0.1668
11922TIP3    H157257   5.220   3.494   1.376  0.2721  0.6898 -0.1346
11922TIP3    H257258   5.310   3.606   1.425  1.2670 -0.0538 -0.2511
11923TIP3   OH257259   0.931   4.082  16.342  0.3206 -0.2770 -0.2696
11923TIP3    H157260   0.999   4.145  16.364 -0.5839  0.9770 -0.9472
11923TIP3    H257261   0.854   4.113  16.390  0.3186 -1.8948  0.7835
11924TIP3   OH257262   0.567   0.523  10.806 -0.4918 -0.4076 -0.0830
11924TIP3    H157263   0.499   0.494  10.867  1.1930 -2.9422  0.7003
11924TIP3    H257264   0.634   0.562  10.861  0.3803 -1.3846 -0.4293
11925TIP3   OH257265   5.572   2.559  11.857 -0.1632 -0.1993 -0.3043
11925TIP3    H157266   5.590   2.465  11.845  1.3503  0.0015  0.2828
11925TIP3    H257267   5.584   2.597  11.770  1.5415 -0.1938 -0.0734
11926TIP3   OH257268   4.365   5.313  15.118  1.1622  0.1265 -0.0703
11926TIP3    H157269   4.392   5.390  15.168  0.6966  0.9114 -0.9934
11926TIP3    H257270   4.272   5.328  15.098  0.5864 -1.5152  1.2332
11927TIP3   OH257271   5.439   4.600  11.964  0.5205  0.5548 -0.4920
11927TIP3    H157272   5.513   4.636  11.914  1.1327 -2.0417 -1.5676
11927TIP3    H257273   5.372   4.583  11.898  0.1362  0.0680  0.0207
11928TIP3   OH257274   3.104   4.845  15.152  0.1900 -0.5004  0.1463
11928TIP3    H157275   3.016   4.807  15.152 -0.2547  0.2776  4.0671
11928TIP3    H257276   3.097   4.925  15.100 -0.9380 -1.3903 -1.0930
11929TIP3   OH257277   0.575   3.036   6.238 -0.1536 -0.4404  0.1140
11929TIP3    H157278   0.587   3.095   6.312  1.1902  0.9833 -1.1749
11929TIP3    H257279   0.497   3.070   6.193  1.3691  1.2645 -1.3700
11930TIP3   OH257280   2.690   0.951  16.927 -0.1808  0.0635 -0.4555
11930TIP3    H157281   2.611   0.900  16.942 -1.2314  1.3353 -1.5170
11930TIP3    H257282   2.733   0.955  17.013 -1.0547 -0.9697  0.0376
11931TIP3   OH257283   3.658   0.731   0.390 -0.3780  0.2475  0.3986
11931TIP3    H157284   3.578   0.691   0.355 -0.1449  0.3123 -0.2050
11931TIP3    H257285   3.693   0.782   0.318  0.4882 -0.1954  0.5055
11932TIP3   OH257286   4.658   3.438   4.379  0.3995 -0.2653 -0.4622
11932TIP3    H157287   4.604   3.359   4.382 -0.6708  0.4946  1.7396
11932TIP3    H257288   4.627   3.486   4.302 -0.9418 -0.6177 -0.1517
11933TIP3   OH257289   6.355   1.432   3.195  0.2740 -0.3749 -0.5565
11933TIP3    H157290   6.266   1.406   3.171 -0.3555  0.5717  0.7057
11933TIP3    H257291   6.389   1.475   3.117  0.1151 -1.9133 -1.5066
11934TIP3   OH257292   4.945   1.655   1.711  0.0331  0.5295  0.0814
11934TIP3    H157293   5.011   1.711   1.670  1.2701 -1.0495 -0.1097
11934TIP3    H257294   4.918   1.595   1.641  0.1493 -0.3984  0.8330
11935TIP3   OH257295   3.041   0.527   2.201  0.3686  0.2555 -0.2952
11935TIP3    H157296   3.021   0.558   2.113  2.8876  0.1069 -0.9659
11935TIP3    H257297   2.968   0.558   2.255 -0.6534  1.2909 -2.2256
11936TIP3   OH257298   2.239   1.237  13.890 -0.2268  0.2039  0.0658
11936TIP3    H157299   2.231   1.162  13.949 -2.3157  0.6705  0.4512
11936TIP3    H257300   2.321   1.223  13.843  0.8046 -0.8725  2.1248
11937TIP3   OH257301   5.776   0.415  11.929  0.1462 -0.3030  0.3663
11937TIP3    H157302   5.687   0.380  11.941 -0.2095  0.5715  0.3165
11937TIP3    H257303   5.833   0.339  11.942 -0.6398 -1.0097 -0.2301
11938TIP3   OH257304   4.010   0.357  12.203 -0.0307 -0.6509  0.7498
11938TIP3    H157305   4.028   0.445  12.236 -1.8435 -0.7200  1.9927
11938TIP3    H257306   4.073   0.345  12.132  1.1501  1.1127  1.4640
11939TIP3   OH257307   4.649   5.049  16.068 -0.1530 -0.2766 -0.0252
11939TIP3    H157308   4.631   5.142  16.082  0.9390 -0.1151  0.3217
11939TIP3    H257309   4.699   5.046  15.986  1.4153 -0.3807  0.9200
11940TIP3   OH257310   0.832   6.515  14.225 -0.0411 -0.5711 -0.2142
11940TIP3    H157311   0.789   6.584  14.176 -1.1111 -0.9037  0.2263
11940TIP3    H257312   0.914   6.498  14.178 -0.8816 -0.6567 -1.6732
11941TIP3   OH257313   5.749   1.289  13.886  0.4589 -0.1317 -0.6999
11941TIP3    H157314   5.805   1.301  13.809 -2.0114  0.8558 -2.4265
11941TIP3    H257315   5.778   1.355  13.948  1.3112  0.2680 -1.5112
11942TIP3   OH257316   4.614   6.262  15.217  0.2770  0.7619 -1.0996
11942TIP3    H157317   4.682   6.257  15.150 -0.1115  3.0781 -1.7290
11942TIP3    H257318   4.657   6.303  15.292  0.6513 -1.6235  0.0165
11943TIP3   OH257319   1.527   0.084  15.449  0.4716  0.0407  0.3301
11943TIP3    H157320   1.580   0.007  15.468 -0.6284 -1.2728 -1.7318
11943TIP3    H257321   1.440   0.063  15.481 -0.2246 -0.2722 -1.6524
11944TIP3   OH257322   6.661   5.294   0.995 -0.1840 -0.5777 -0.3980
11944TIP3    H157323   6.602   5.365   0.969  0.7098  0.2469 -0.2317
11944TIP3    H257324   6.681   5.249   0.913  0.6139  0.4548 -0.7940
11945TIP3   OH257325   2.825   4.478  15.433  0.3082 -0.1932  0.3795
11945TIP3    H157326   2.754   4.472  15.368 -1.0698 -0.8068  1.8953
11945TIP3    H257327   2.840   4.572  15.444  1.4430 -0.0982 -1.7504
11946TIP3   OH257328   4.859   5.820   5.969  0.0289 -0.0147  0.4336
11946TIP3    H157329   4.814   5.741   6.000 -1.3500  0.6870  0.2647
11946TIP3    H257330   4.848   5.883   6.039 -0.4719  0.6046 -0.1941
11947TIP3   OH257331   5.650   3.096   4.036 -1.1630  0.1038  0.0338
11947TIP3    H157332   5.591   3.021   4.029 -2.2581  0.8072  1.4713
11947TIP3    H257333   5.615   3.160   3.975 -0.8684 -0.1405 -0.3923
11948TIP3   OH257334   4.141   2.978  11.344 -0.4647 -0.1312  0.2427
11948TIP3    H157335   4.068   2.964  11.283  0.5852  2.5029 -1.7111
11948TIP3    H257336   4.213   2.927  11.308 -0.5784 -0.6501  0.7393
11949TIP3   OH257337   2.767   6.047   4.629  0.3096  0.4684  0.3122
11949TIP3    H157338   2.789   6.045   4.536 -3.1291  0.3470 -0.5525
11949TIP3    H257339   2.771   6.140   4.653 -0.6944  0.7164 -0.4566
11950TIP3   OH257340   3.350   2.614   5.115 -0.7155 -0.4824 -0.0601
11950TIP3    H157341   3.314   2.702   5.106  0.5002  0.3537  2.7832
11950TIP3    H257342   3.433   2.617   5.067 -1.0667 -0.3208 -0.6555
11951TIP3   OH257343   5.840   2.713  13.211 -0.1371 -0.5855  0.1067
11951TIP3    H157344   5.855   2.725  13.305 -1.3868  1.0973  0.1074
11951TIP3    H257345   5.925   2.687  13.177  0.2798 -1.4659  1.7387
11952TIP3   OH257346   4.854   4.310  12.098  0.3446 -0.2376 -0.2210
11952TIP3    H157347   4.772   4.346  12.065  0.5485 -0.8963 -1.4638
11952TIP3    H257348   4.832   4.279  12.187 -0.5749  0.1969 -0.2851
11953TIP3   OH257349   3.474   3.265   1.242 -0.6339 -0.7162  0.3752
11953TIP3    H157350   3.456   3.213   1.163 -1.8271 -0.0239  0.1790
11953TIP3    H257351   3.405   3.330   1.244  2.4831  2.8471 -1.0434
11954TIP3   OH257352   0.192   3.499  12.662  0.0429 -0.2336  0.0375
11954TIP3    H157353   0.131   3.565  12.693  0.4782  0.5142 -0.6957
11954TIP3    H257354   0.174   3.490  12.569  1.0859  0.0240 -0.1910
11955TIP3   OH257355   0.451   6.337   6.450  0.6118  0.3472  0.7986
11955TIP3    H157356   0.387   6.389   6.498  0.3254 -0.7110  1.5876
11955TIP3    H257357   0.402   6.260   6.420  1.2312  0.1092  0.3772
11956TIP3   OH257358   1.022   2.732   4.736 -0.1924 -0.1519 -0.4132
11956TIP3    H157359   1.005   2.783   4.815 -1.2614  0.4622 -1.0314
11956TIP3    H257360   1.088   2.668   4.763  0.2915  0.7884  0.6718
11957TIP3   OH257361   6.771   2.663  15.056  0.0673 -0.1364  0.3367
11957TIP3    H157362   6.784   2.671  14.962  2.3507  1.0245  0.7027
11957TIP3    H257363   6.694   2.717  15.075 -0.1005  0.0238 -0.7904
11958TIP3   OH257364   3.900   5.746   2.074  0.1027  0.1255  0.0632
11958TIP3    H157365   3.828   5.757   2.137  0.6793  2.2877  0.3954
11958TIP3    H257366   3.973   5.796   2.112  0.8703  0.3757 -1.6877
11959TIP3   OH257367   1.519   1.012  11.477 -0.1793 -0.7175  0.1288
11959TIP3    H157368   1.575   1.030  11.401 -2.7419  1.5156 -1.3133
11959TIP3    H257369   1.570   1.041  11.552  0.9423  0.4606 -1.0722
11960TIP3   OH257370   2.699   3.111   2.934  0.0577 -0.1638  0.0790
11960TIP3    H157371   2.629   3.072   2.987  0.6491  0.5447  1.4201
11960TIP3    H257372   2.766   3.135   2.998  2.1282 -2.0682 -1.3227
11961TIP3   OH257373   3.406   4.132   1.007  0.3155 -0.0473  0.0838
11961TIP3    H157374   3.439   4.067   0.945  1.7145  0.9737 -0.2609
11961TIP3    H257375   3.413   4.216   0.961 -2.9510  0.2041 -0.0527
11962TIP3   OH257376   1.803   5.884   0.120  0.4972  0.1258 -0.1967
11962TIP3    H157377   1.763   5.837   0.047 -1.7912  1.4832  0.1367
11962TIP3    H257378   1.738   5.876   0.191  1.1149  1.8067  0.5675
11963TIP3   OH257379   6.380   4.292  11.480  0.1760  0.1028  0.0158
11963TIP3    H157380   6.457   4.317  11.428  0.0799  0.4622  0.0444
11963TIP3    H257381   6.410   4.219  11.534  0.3697 -0.0586 -0.3097
11964TIP3   OH257382   0.190   1.023   2.581 -0.2695 -0.1409  0.2238
11964TIP3    H157383   0.240   1.013   2.662  0.1788  0.0411 -0.0265
11964TIP3    H257384   0.166   1.115   2.579 -2.1447 -0.5917  1.2234
11965TIP3   OH257385   3.299   6.793  14.148  0.0790 -0.2682  0.2662
11965TIP3    H157386   3.370   6.801  14.084 -0.3427  0.5662 -0.1093
11965TIP3    H257387   3.236   6.735  14.107  1.4546 -2.6842  1.4470
11966TIP3   OH257388   5.748   4.639  12.036  0.1593 -0.0608  0.5751
11966TIP3    H157389   5.829   4.603  12.073 -0.1195  0.0937  1.3434
11966TIP3    H257390   5.750   4.612  11.945  0.9097 -0.3610  0.6725
11967TIP3   OH257391   1.146   6.538  16.269 -0.0561 -0.3868 -0.1700
11967TIP3    H157392   1.065   6.541  16.318 -0.1953 -1.0734 -0.3403
11967TIP3    H257393   1.160   6.445  16.251  0.2499 -0.1964 -0.9884
11968TIP3   OH257394   4.446   1.647  11.444  0.2900 -0.6922  0.4752
11968TIP3    H157395   4.416   1.738  11.441 -0.9890 -0.9694  3.1489
11968TIP3    H257396   4.541   1.652  11.437  0.2209  0.8495  0.6137
11969TIP3   OH257397   6.731   4.911   1.345  0.0236 -0.1862  0.1370
11969TIP3    H157398   6.771   4.992   1.314 -0.1240 -1.1639 -2.7037
11969TIP3    H257399   6.694   4.870   1.267 -1.4541 -2.1456  1.8038
11970TIP3   OH257400   6.018   4.877  15.507 -0.5841 -0.0491  0.9221
11970TIP3    H157401   5.937   4.885  15.457  0.0287 -0.1342 -0.1005
11970TIP3    H257402   6.059   4.797  15.474  0.6654  0.8271  0.3043
11971TIP3   OH257403   4.392   0.577  16.340 -0.3562 -0.1022 -0.0527
11971TIP3    H157404   4.385   0.482  16.339 -0.6464 -0.0769 -0.6534
11971TIP3    H257405   4.440   0.597  16.420  1.8053 -0.8797 -1.1269
11972TIP3   OH257406   2.305   1.478   4.224 -0.1736  0.2495  0.3051
11972TIP3    H157407   2.333   1.440   4.140  0.4864 -1.3183  1.1974
11972TIP3    H257408   2.233   1.421   4.252 -0.0053  0.4120  1.0676
11973TIP3   OH257409   0.907   3.001  14.205 -0.0923 -0.5067 -0.2960
11973TIP3    H157410   0.887   3.081  14.254 -2.3881 -1.3517  0.2483
11973TIP3    H257411   0.892   3.023  14.114  1.7948  0.3871 -0.4060
11974TIP3   OH257412   3.074   3.598  10.909  0.3501 -0.1019  0.3856
11974TIP3    H157413   3.078   3.610  11.004  2.4445 -1.4141  0.5050
11974TIP3    H257414   3.133   3.665  10.874  0.7122 -0.5590  0.1124
11975TIP3   OH257415   0.482   0.084   3.953  0.3720 -0.2636 -0.6010
11975TIP3    H157416   0.513   0.124   4.034 -0.0550 -0.0684 -0.5352
11975TIP3    H257417   0.461  -0.007   3.978  0.9835 -0.4245 -0.6685
11976TIP3   OH257418   6.005   1.868   5.276  1.1182  0.0395  0.3912
11976TIP3    H157419   6.019   1.815   5.198  1.6069  0.5722  0.1128
11976TIP3    H257420   6.038   1.955   5.253  1.2566  0.2040  1.1858
11977TIP3   OH257421   1.425   4.284   1.708 -0.2489  0.3828  0.0290
11977TIP3    H157422   1.463   4.209   1.755 -1.5592 -1.5708 -1.9150
11977TIP3    H257423   1.483   4.296   1.632 -1.3267 -0.1455 -0.8881
11978TIP3   OH257424   3.744   5.364   3.239  0.1011 -0.1169 -0.4369
11978TIP3    H157425   3.793   5.435   3.196  0.3286  0.3050  0.5094
11978TIP3    H257426   3.755   5.381   3.332 -1.6899 -0.1271 -0.2076
11979TIP3   OH257427   4.513   0.027  13.631 -0.2193  0.3691  0.4462
11979TIP3    H157428   4.608   0.018  13.618 -0.5516  0.1251 -2.1653
11979TIP3    H257429   4.478  -0.059  13.610 -0.9947  0.4015  1.6243
11980TIP3   OH257430   2.918   6.395  16.488 -0.6756 -0.1451  0.3537
11980TIP3    H157431   3.011   6.414  16.478 -0.9828  0.1140 -2.5713
11980TIP3    H257432   2.913   6.299  16.487 -0.4824 -0.1534 -0.2282
11981TIP3   OH257433   4.074   4.533   2.880 -0.4766  0.3771 -0.0273
11981TIP3    H157434   4.120   4.533   2.965  0.2141 -2.1325 -0.3664
11981TIP3    H257435   4.115   4.605   2.831  0.3973  0.6630  1.0852
11982TIP3   OH257436   3.896   6.575  12.318  0.2986 -0.6273  0.5758
11982TIP3    H157437   3.964   6.594  12.382 -0.2203  1.5775  0.4922
11982TIP3    H257438   3.919   6.629  12.242 -0.8226 -0.8375  0.0773
11983TIP3   OH257439   1.886   2.313  14.559 -0.4731  0.0145  0.1939
11983TIP3    H157440   1.887   2.408  14.553  1.9249 -0.0129 -0.3358
11983TIP3    H257441   1.882   2.295  14.653  2.1565  0.6988  0.4864
11984TIP3   OH257442   6.103   3.382   3.425  0.2814  0.3568  0.1916
11984TIP3    H157443   6.054   3.336   3.357 -0.1079 -0.4569  1.0225
11984TIP3    H257444   6.165   3.437   3.376  0.3342 -0.5778 -0.8122
11985TIP3   OH257445   6.666   1.391   0.338  0.3716  0.3225 -0.3543
11985TIP3    H157446   6.685   1.338   0.416 -0.6991  2.4313  1.4036
11985TIP3    H257447   6.659   1.327   0.267  0.3943 -1.7681  1.4474
11986TIP3   OH257448   4.263   3.904  15.438  0.1034  0.0340  0.5496
11986TIP3    H157449   4.168   3.900  15.428 -0.1698  2.5459  1.6955
11986TIP3    H257450   4.277   3.945  15.523  2.1780  1.1095 -0.2528
11987TIP3   OH257451   0.279   1.923  12.997 -0.0994  0.0634 -0.0723
11987TIP3    H157452   0.295   1.830  13.015  0.2279  0.0171 -0.6130
11987TIP3    H257453   0.190   1.926  12.961 -0.2602  0.0080  0.3143
11988TIP3   OH257454   2.877   6.427  11.459 -0.4235 -0.1724 -0.1799
11988TIP3    H157455   2.785   6.417  11.483  0.1468 -1.7244  1.5193
11988TIP3    H257456   2.882   6.397  11.368 -1.1902 -2.4430  0.4960
11989TIP3   OH257457   3.377   6.203   6.255 -0.6202 -0.0599 -0.0936
11989TIP3    H157458   3.349   6.290   6.281 -1.1612  0.1153 -1.2355
11989TIP3    H257459   3.301   6.147   6.274 -0.9094  0.0198 -1.0011
11990TIP3   OH257460   5.313   5.522   2.079 -0.3117 -0.4912  0.1247
11990TIP3    H157461   5.279   5.588   2.018 -3.6131 -2.4992 -0.2730
11990TIP3    H257462   5.378   5.473   2.027  0.4633  0.9146 -0.2635
11991TIP3   OH257463   3.229   0.160  15.033  0.1823  0.4534 -0.5826
11991TIP3    H157464   3.324   0.148  15.027  0.0988 -1.1637  0.8197
11991TIP3    H257465   3.198   0.081  15.077 -1.8474  0.8683 -1.2252
11992TIP3   OH257466   0.716   0.038   5.022  0.4217 -0.1085 -0.5558
11992TIP3    H157467   0.737  -0.027   4.954  0.3412 -0.8066  0.0747
11992TIP3    H257468   0.699  -0.015   5.100  1.7830  0.7491  0.3381
11993TIP3   OH257469   3.275   4.832  14.306  0.4000 -0.1370  0.9700
11993TIP3    H157470   3.288   4.914  14.260 -0.1032 -0.5010  0.1646
11993TIP3    H257471   3.181   4.827  14.321  0.4102 -0.6265  0.8929
11994TIP3   OH257472   3.695   2.032   3.762  0.0716  0.1493  0.3406
11994TIP3    H157473   3.737   2.054   3.845  1.3309  0.8903 -0.4790
11994TIP3    H257474   3.728   2.097   3.701 -0.6511 -0.5560 -0.8078
11995TIP3   OH257475   5.328   0.958   0.569 -0.1554  0.0231 -0.3087
11995TIP3    H157476   5.266   0.957   0.642 -0.4240  1.1182 -0.5157
11995TIP3    H257477   5.274   0.980   0.492  0.5231  1.2361 -0.4490
11996TIP3   OH257478   3.826   3.626   4.977 -0.0725 -0.1511  0.0127
11996TIP3    H157479   3.901   3.651   5.031  1.0278  1.4138 -2.1868
11996TIP3    H257480   3.843   3.535   4.954 -0.1648 -0.5945  1.6484
11997TIP3   OH257481   1.151   5.464   3.570  0.0770  0.7023  0.1028
11997TIP3    H157482   1.080   5.457   3.634 -1.2786  0.0870 -1.4359
11997TIP3    H257483   1.147   5.382   3.521 -0.1106  1.9444 -2.0034
11998TIP3   OH257484   2.523   6.408  16.626  0.4498  0.7427  0.3497
11998TIP3    H157485   2.612   6.443  16.635  1.0041 -0.1694 -1.3472
11998TIP3    H257486   2.494   6.438  16.540 -0.1048 -0.6878  0.0237
11999TIP3   OH257487   1.445   5.095   0.713 -0.9856 -0.6791 -0.7813
11999TIP3    H157488   1.406   5.071   0.629 -1.7571 -0.0987 -0.5929
11999TIP3    H257489   1.537   5.072   0.703 -0.8327  0.4731 -2.2107
12000TIP3   OH257490   4.210   1.713   3.832 -0.4475  0.1068 -0.1024
12000TIP3    H157491   4.277   1.699   3.899  0.2929 -0.7021 -0.9936
12000TIP3    H257492   4.133   1.665   3.864  0.1553 -0.9380 -0.2060
12001TIP3   OH257493   1.121   0.259   5.648  0.3148 -0.5999 -0.1696
12001TIP3    H157494   1.112   0.209   5.568  0.1646 -0.8995  0.0354
12001TIP3    H257495   1.047   0.321   5.647  0.7899 -0.0335 -0.6715
12002TIP3   OH257496   4.909   3.976   2.969  0.4563  0.1780 -0.3685
12002TIP3    H157497   4.928   4.067   2.951  0.7393 -0.3675 -2.9181
12002TIP3    H257498   4.824   3.978   3.014  1.3124  1.7910  1.2385
12003TIP3   OH257499   4.940   5.593  13.410  0.0236 -0.2009 -0.8744
12003TIP3    H157500   4.857   5.636  13.429 -0.7448 -2.2772  0.5552
12003TIP3    H257501   4.999   5.623  13.479 -0.3123 -0.8806 -0.2900
12004TIP3   OH257502   1.268   1.129   2.306 -0.2760 -0.0429 -0.5006
12004TIP3    H157503   1.240   1.048   2.349  0.2769 -0.1362 -0.3136
12004TIP3    H257504   1.363   1.131   2.317 -0.3436  0.9105 -0.0062
12005TIP3   OH257505   4.665   1.522  13.923 -0.4727 -0.3003 -0.3359
12005TIP3    H157506   4.574   1.543  13.903 -0.3242  1.2600  0.5942
12005TIP3    H257507   4.699   1.485  13.841 -1.9365 -0.9128 -0.6755
12006TIP3   OH257508   1.841   3.189  11.961  0.1458  0.7606 -0.0885
12006TIP3    H157509   1.804   3.270  11.997 -2.3571 -1.1717  1.8044
12006TIP3    H257510   1.922   3.176  12.010  0.9646  2.4883 -0.9322
12007TIP3   OH257511   4.068   3.272  12.967  0.0479  0.1396 -0.7033
12007TIP3    H157512   4.080   3.331  12.893  0.6455  0.9535  0.0295
12007TIP3    H257513   4.134   3.300  13.031 -0.1979 -0.8009 -0.0279
12008TIP3   OH257514   3.456   4.872   0.389 -0.2181  0.4439 -0.1604
12008TIP3    H157515   3.368   4.842   0.370 -0.5812  0.8265  0.8752
12008TIP3    H257516   3.498   4.798   0.433  0.5051 -0.3133 -2.0799
12009TIP3   OH257517   4.356   1.069   0.100  0.1213 -0.3961 -0.2708
12009TIP3    H157518   4.322   0.981   0.081 -2.0350 -0.2026  2.3286
12009TIP3    H257519   4.398   1.060   0.186  0.8079  0.8928 -0.4719
12010TIP3   OH257520   6.606   4.885   3.705 -0.1069 -0.4450 -0.1207
12010TIP3    H157521   6.645   4.805   3.740 -0.9511 -1.8997 -2.3758
12010TIP3    H257522   6.547   4.854   3.636 -3.1207  1.8931  1.2830
12011TIP3   OH257523   5.827   3.517   4.746  0.5329  0.5790 -0.5682
12011TIP3    H157524   5.793   3.430   4.727  1.3033  0.2452 -0.4403
12011TIP3    H257525   5.922   3.506   4.749  0.5809  1.1950  0.5806
12012TIP3   OH257526   3.089   1.789  16.720 -0.6100 -0.1634  0.2485
12012TIP3    H157527   3.088   1.876  16.679  0.6460 -0.1691  0.1859
12012TIP3    H257528   2.997   1.772  16.742 -0.8922  1.1134  0.1200
12013TIP3   OH257529   6.493   1.455  14.422  0.0353  0.1053 -0.2054
12013TIP3    H157530   6.572   1.424  14.466  0.4603 -0.2281 -1.1766
12013TIP3    H257531   6.522   1.474  14.333 -0.3760  2.5945  0.1531
12014TIP3   OH257532   5.146   1.585  14.205 -0.1500 -0.5860  0.5455
12014TIP3    H157533   5.213   1.570  14.272  0.4698 -0.6067 -0.0643
12014TIP3    H257534   5.078   1.635  14.249  1.2347  1.2551  0.6538
12015TIP3   OH257535   6.538   3.506  12.364 -0.5865 -0.0944  0.2151
12015TIP3    H157536   6.564   3.489  12.455 -0.5058  0.4303  0.2912
12015TIP3    H257537   6.478   3.435  12.343  0.2809 -0.8618  0.3074
12016TIP3   OH257538   0.024   6.051  13.428 -0.4051  0.0131 -0.4010
12016TIP3    H157539   0.100   6.019  13.479 -1.5322  0.2806  1.4890
12016TIP3    H257540  -0.052   6.021  13.478 -1.5318  1.6502 -1.1075
12017TIP3   OH257541   0.551   0.998  15.174 -0.4954  0.3407 -0.0059
12017TIP3    H157542   0.521   0.947  15.249 -0.3070  1.2482  0.6828
12017TIP3    H257543   0.512   1.084  15.186 -0.6809  0.4247 -1.0883
12018TIP3   OH257544   5.198   1.794  11.822 -0.0423  0.2859 -0.1381
12018TIP3    H157545   5.187   1.745  11.740 -0.1178 -0.7404  0.4841
12018TIP3    H257546   5.208   1.885  11.794  1.0056 -0.1892 -1.3661
12019TIP3   OH257547   1.307   2.927  11.604  0.1231 -0.5637 -0.0965
12019TIP3    H157548   1.400   2.945  11.593 -0.2501  2.1543  0.8901
12019TIP3    H257549   1.274   2.911  11.515  1.7384 -2.8755 -0.3195
12020TIP3   OH257550   3.335   6.408  12.881  0.1275  0.4807  0.2960
12020TIP3    H157551   3.353   6.439  12.970 -0.5295  1.1659  0.1853
12020TIP3    H257552   3.396   6.334  12.870 -0.0594  0.1371  1.4537
12021TIP3   OH257553   4.944   0.772   1.035 -0.1822 -0.4264  0.3378
12021TIP3    H157554   5.012   0.705   1.025  0.1250  0.0794 -1.0325
12021TIP3    H257555   4.948   0.796   1.128  0.8746 -1.0775  0.4721
12022TIP3   OH257556   0.469   5.145   0.608  0.2850 -0.0070 -0.1461
12022TIP3    H157557   0.480   5.217   0.546 -2.1617  0.0294 -0.5850
12022TIP3    H257558   0.448   5.187   0.691 -0.9326 -0.1966 -0.3538
12023TIP3   OH257559   2.413   3.662  14.062 -0.1450 -0.2794  0.0390
12023TIP3    H157560   2.418   3.633  14.153  1.1471  0.3431  0.1783
12023TIP3    H257561   2.500   3.642  14.026 -1.0988 -1.8312 -1.4562
12024TIP3   OH257562   2.674   4.552   1.516  0.2294 -0.5249  0.3064
12024TIP3    H157563   2.733   4.560   1.591  1.8549  1.0259 -1.0736
12024TIP3    H257564   2.720   4.492   1.457 -0.2430 -0.4194 -0.1673
12025TIP3   OH257565   1.565   5.120   4.675  0.4149  0.0864  0.2029
12025TIP3    H157566   1.470   5.129   4.680  0.3766  0.1916 -0.6359
12025TIP3    H257567   1.597   5.153   4.759 -0.2786  0.2356  0.4068
12026TIP3   OH257568   4.967   3.883   3.652  0.0524 -0.1354 -0.3943
12026TIP3    H157569   5.012   3.928   3.581 -1.4761 -0.2140 -1.4366
12026TIP3    H257570   4.966   3.946   3.724  0.5354  0.3888 -0.8502
12027TIP3   OH257571   2.836   1.580  16.385 -0.4624  0.5095  0.3825
12027TIP3    H157572   2.854   1.670  16.357  0.3857 -0.1130 -1.2108
12027TIP3    H257573   2.741   1.571  16.379 -0.6266  1.5107  1.2771
12028TIP3   OH257574   0.994   4.130  10.750  0.3007 -0.1451 -0.3630
12028TIP3    H157575   1.013   4.083  10.669 -0.2673  0.3681 -0.8026
12028TIP3    H257576   1.011   4.222  10.729 -2.8263  0.3802 -0.8779
12029TIP3   OH257577   6.469   5.688   0.624 -0.6748 -0.0132 -0.1115
12029TIP3    H157578   6.562   5.700   0.640 -0.8806  3.0592 -0.9319
12029TIP3    H257579   6.459   5.595   0.606  2.1979 -0.3958  0.1176
12030TIP3   OH257580   4.304   4.282  13.785  0.1431 -0.3193 -0.2579
12030TIP3    H157581   4.254   4.213  13.742 -1.4440  1.0072 -0.5753
12030TIP3    H257582   4.362   4.316  13.717 -0.1481 -0.3232 -0.5081
12031TIP3   OH257583   0.621   5.924  15.524  0.2643  0.2326  0.5667
12031TIP3    H157584   0.688   5.868  15.487 -1.9198 -0.7986 -1.9957
12031TIP3    H257585   0.609   5.994  15.459 -1.4227  0.1523  0.7505
12032TIP3   OH257586   1.955   0.928  14.252  0.3010 -0.4247  0.2197
12032TIP3    H157587   1.957   0.948  14.345  0.7625 -0.5560  0.2394
12032TIP3    H257588   1.926   0.837  14.247 -1.6622  0.1866  0.1354
12033TIP3   OH257589   6.185   3.209  11.949  0.1103 -0.5486 -0.4399
12033TIP3    H157590   6.200   3.153  12.024  0.3216  0.7487  0.5087
12033TIP3    H257591   6.132   3.281  11.983 -0.5079 -0.3779 -1.7188
12034TIP3   OH257592   1.841   0.795   5.832  0.4269  0.1703  0.1987
12034TIP3    H157593   1.845   0.807   5.927  1.5991  2.0778 -0.0797
12034TIP3    H257594   1.836   0.883   5.796  1.8968 -0.4404 -1.5983
12035TIP3   OH257595   1.604   3.221   0.691  0.2543 -0.5706 -0.0124
12035TIP3    H157596   1.595   3.252   0.781  0.9115 -0.2748 -0.0424
12035TIP3    H257597   1.515   3.219   0.656  0.1794  1.0986  0.0557
12036TIP3   OH257598   1.239   4.208  12.129  0.3079  0.3333  0.5232
12036TIP3    H157599   1.160   4.225  12.181 -1.0440  0.6414 -1.5956
12036TIP3    H257600   1.243   4.112  12.122  1.0038  0.2376  1.9039
12037TIP3   OH257601   2.228   1.817   0.376  0.0828 -0.3062  0.1888
12037TIP3    H157602   2.288   1.749   0.407  1.5190  0.7789 -0.1862
12037TIP3    H257603   2.283   1.893   0.360 -1.1562  0.2063 -1.7874
12038TIP3   OH257604   6.648   4.474  15.550  0.1070  0.6077 -0.4105
12038TIP3    H157605   6.658   4.516  15.636  3.0635 -0.3168 -0.2373
12038TIP3    H257606   6.593   4.398  15.566  0.4884  0.5514  0.6426
12039TIP3   OH257607   6.538   6.550   2.282  0.0143  0.3748  0.7077
12039TIP3    H157608   6.582   6.473   2.318  0.3407  0.1127 -0.2286
12039TIP3    H257609   6.520   6.606   2.358 -0.8995 -0.9603  1.4945
12040TIP3   OH257610   0.241   1.093   0.120 -0.2496  0.5569 -0.9595
12040TIP3    H157611   0.300   1.021   0.101 -0.1642  0.8192 -1.7149
12040TIP3    H257612   0.211   1.077   0.210  1.0610  0.4933 -0.5290
12041TIP3   OH257613   2.627   4.494  17.275 -0.1060 -0.1772  0.2214
12041TIP3    H157614   2.660   4.552  17.344  0.4458  0.0296 -0.2085
12041TIP3    H257615   2.565   4.548  17.226 -0.6763 -0.3969  0.6925
12042TIP3   OH257616   0.904   4.147   3.171  0.5032 -0.7840 -0.3758
12042TIP3    H157617   0.996   4.133   3.149  1.0380  0.9371  0.7058
12042TIP3    H257618   0.895   4.242   3.178 -1.4033 -0.9220 -0.6579
12043TIP3   OH257619   6.693   0.487  10.358  0.5378 -0.2643  0.2600
12043TIP3    H157620   6.741   0.567  10.336  1.1417 -0.3402  1.2699
12043TIP3    H257621   6.760   0.419  10.361 -0.2022 -1.1303 -2.1878
12044TIP3   OH257622   0.933   2.947   1.845  0.2599 -0.6451  0.2826
12044TIP3    H157623   0.999   2.993   1.898 -0.3156  0.7691 -0.1914
12044TIP3    H257624   0.968   2.859   1.835  2.0142  0.0316  0.1723
12045TIP3   OH257625   0.620   4.885   5.889  0.2260  0.6169 -0.1837
12045TIP3    H157626   0.687   4.951   5.871 -0.8926  2.1938  1.2937
12045TIP3    H257627   0.623   4.873   5.984 -1.1133  0.1824 -0.1899
12046TIP3   OH257628   4.748   4.175   2.172 -0.1677  0.1037 -0.1595
12046TIP3    H157629   4.735   4.100   2.113  0.2923  1.3008 -1.8252
12046TIP3    H257630   4.667   4.224   2.167 -0.1428  0.1878  0.2491
12047TIP3   OH257631   1.961   5.034  13.791 -0.1028 -0.3682  0.1431
12047TIP3    H157632   1.874   5.040  13.830 -0.4176  0.6489 -0.6890
12047TIP3    H257633   1.945   5.018  13.698  0.5936 -0.3992  0.0234
12048TIP3   OH257634   0.866   5.025   1.052 -0.1659  0.1536  0.6501
12048TIP3    H157635   0.830   5.082   0.984 -0.7867 -0.3639  0.5390
12048TIP3    H257636   0.795   4.964   1.072  0.4217 -0.4454  0.9151
12049TIP3   OH257637   0.911   5.721   4.187  0.2998 -0.2345  0.2883
12049TIP3    H157638   1.001   5.733   4.217  0.7734  0.4509 -1.3814
12049TIP3    H257639   0.912   5.636   4.142  0.2548  0.0719 -0.2858
12050TIP3   OH257640   3.043   1.683  12.981  0.2622 -0.2852  0.2489
12050TIP3    H157641   3.022   1.594  12.952  0.1689 -0.4480  0.8181
12050TIP3    H257642   3.138   1.689  12.974  0.3753 -0.8271  1.3593
12051TIP3   OH257643   6.555   6.030   0.723  0.4641  0.5833 -0.3540
12051TIP3    H157644   6.483   6.005   0.665  1.6131 -1.6559 -0.8834
12051TIP3    H257645   6.529   5.997   0.809  0.2825  0.8810 -0.2969
12052TIP3   OH257646   5.007   4.419  11.510  0.0817 -0.1405 -0.4563
12052TIP3    H157647   5.063   4.344  11.533  0.2571 -0.0440 -0.5684
12052TIP3    H257648   5.021   4.431  11.416 -0.7177 -0.5985 -0.6421
12053TIP3   OH257649   3.720   6.703   3.012  0.1077 -0.1461 -0.0998
12053TIP3    H157650   3.629   6.719   3.039  0.1254  0.9433 -0.6487
12053TIP3    H257651   3.761   6.662   3.088 -0.6289  0.1377  0.4575
12054TIP3   OH257652   5.409   5.886   4.078  0.6114 -0.3558  0.8077
12054TIP3    H157653   5.458   5.837   4.012 -1.5173  2.1843 -2.8717
12054TIP3    H257654   5.326   5.840   4.086 -0.4964  1.2696 -0.9584
12055TIP3   OH257655   1.972   5.385  13.254 -0.0642  0.2184 -0.1890
12055TIP3    H157656   1.973   5.442  13.177 -1.3323  0.0972 -0.3071
12055TIP3    H257657   2.004   5.440  13.325  3.5163 -0.3672 -1.2380
12056TIP3   OH257658   5.453   3.913   0.777 -0.2938  0.3080  0.0108
12056TIP3    H157659   5.474   3.828   0.740  1.1351  1.1029 -1.0683
12056TIP3    H257660   5.416   3.963   0.704 -0.4556  0.8493  0.4605
12057TIP3   OH257661   5.822   3.648   4.308  0.3815 -0.1774  0.2762
12057TIP3    H157662   5.765   3.705   4.360 -0.8793 -0.9947 -0.1903
12057TIP3    H257663   5.831   3.694   4.225 -0.6126 -0.6318 -0.0904
12058TIP3   OH257664   3.985   5.026   5.229 -0.3081 -0.2176 -0.5534
12058TIP3    H157665   4.026   5.104   5.266  0.0637 -1.7028  2.2246
12058TIP3    H257666   4.034   5.010   5.148  0.9628  1.2036 -0.0954
12059TIP3   OH257667   5.899   5.050   1.644 -0.1625  0.1129 -0.7037
12059TIP3    H157668   5.866   5.140   1.639 -1.7623 -0.4289 -0.0803
12059TIP3    H257669   5.906   5.033   1.738 -3.5800 -1.7323 -0.7216
12060TIP3   OH257670   1.628   5.823   1.556 -0.0537  0.5192  0.8770
12060TIP3    H157671   1.578   5.807   1.636 -0.4124 -2.7449  0.0784
12060TIP3    H257672   1.716   5.792   1.577 -0.5640 -1.9672 -0.4760
12061TIP3   OH257673   4.157   4.597  13.746  0.0890  0.0821  0.1198
12061TIP3    H157674   4.101   4.638  13.680 -1.3105 -2.0692 -0.0672
12061TIP3    H257675   4.152   4.656  13.821 -1.7464  0.3715 -0.2064
12062TIP3   OH257676   4.647   0.400   1.962 -0.6453  0.5604 -0.1862
12062TIP3    H157677   4.713   0.384   1.895 -0.2356  1.2889  0.0249
12062TIP3    H257678   4.673   0.484   2.001 -1.5781  0.7529  0.0424
12063TIP3   OH257679   2.326   6.699  17.272 -0.0237  0.1074 -0.0282
12063TIP3    H157680   2.286   6.630  17.325  0.6915 -0.4654 -0.2231
12063TIP3    H257681   2.404   6.725  17.321 -1.1786  1.9582  0.8766
12064TIP3   OH257682   0.301   1.601  14.980  0.1318  0.3406  1.0405
12064TIP3    H157683   0.332   1.560  14.899 -0.9976  0.9233  0.3008
12064TIP3    H257684   0.370   1.583  15.044  1.5985  0.9009 -0.3499
12065TIP3   OH257685   3.620   2.251  14.597  0.0768 -0.4190 -0.8058
12065TIP3    H157686   3.661   2.177  14.644  1.0515  0.8925  0.4715
12065TIP3    H257687   3.694   2.302  14.565 -0.5707  1.0617  0.0318
12066TIP3   OH257688   2.028   2.273   5.361 -0.5083 -0.0767  0.2418
12066TIP3    H157689   1.990   2.189   5.333 -0.9169  0.3215 -0.4129
12066TIP3    H257690   2.118   2.251   5.385 -0.7152 -0.7673  0.4106
12067TIP3   OH257691   0.335   0.334   4.089  0.0509  0.1887  0.0370
12067TIP3    H157692   0.289   0.262   4.132  0.7459 -0.5063 -0.3719
12067TIP3    H257693   0.294   0.413   4.124 -0.1564 -0.3887  1.1123
12068TIP3   OH257694   5.804   2.292  16.398 -0.3642 -0.0104 -0.5178
12068TIP3    H157695   5.709   2.285  16.410 -0.2203  2.6329  2.6182
12068TIP3    H257696   5.840   2.227  16.459 -0.1141 -0.7558 -1.4446
12069TIP3   OH257697   0.061   3.577  13.633  0.1192 -0.4461  0.5275
12069TIP3    H157698   0.143   3.531  13.654  0.8474  0.8767  0.6751
12069TIP3    H257699   0.074   3.665  13.668 -0.6330  0.3287 -1.0829
12070TIP3   OH257700   4.871   1.690   4.989 -0.4045  0.3064  0.2243
12070TIP3    H157701   4.929   1.725   5.056  0.2875 -0.0926 -0.1662
12070TIP3    H257702   4.877   1.752   4.917 -1.4448  0.9447  0.6558
12071TIP3   OH257703   5.889   0.995  13.017  0.1598 -0.0143 -0.3795
12071TIP3    H157704   5.921   0.919  12.968 -2.0961 -1.2433 -0.0097
12071TIP3    H257705   5.855   1.055  12.951 -0.3088 -0.4245 -0.5123
12072TIP3   OH257706   3.424   2.140  12.951 -0.0794  0.1530  0.1608
12072TIP3    H157707   3.434   2.090  12.870 -0.1713  1.0380 -0.4093
12072TIP3    H257708   3.459   2.227  12.930  1.2493 -0.0436  1.5254
12073TIP3   OH257709   2.428   2.670   3.875  0.5836 -0.3716 -0.5978
12073TIP3    H157710   2.487   2.739   3.847  0.7776 -0.1223  0.4016
12073TIP3    H257711   2.486   2.597   3.898  0.3146 -1.3614 -2.9486
12074TIP3   OH257712   3.758   2.431  15.062  0.1031  0.4923 -0.7319
12074TIP3    H157713   3.811   2.400  15.135 -1.2112 -0.9026 -0.3412
12074TIP3    H257714   3.733   2.520  15.088  0.0796  0.1981  0.2856
12075TIP3   OH257715   5.702   5.404  12.836  0.9227 -0.1982 -0.2708
12075TIP3    H157716   5.664   5.321  12.864  0.7260 -0.7213 -2.0037
12075TIP3    H257717   5.674   5.468  12.903 -0.1487 -1.2321  0.2862
12076TIP3   OH257718   5.930   1.500  15.927 -0.2756 -0.3840  0.5392
12076TIP3    H157719   5.866   1.556  15.882 -0.6175 -0.9939  0.2642
12076TIP3    H257720   5.988   1.562  15.971  0.0426  0.2359 -0.7074
12077TIP3   OH257721   2.236   1.437  13.388 -0.1026 -0.0425 -0.3833
12077TIP3    H157722   2.226   1.532  13.394 -2.3776 -0.2629 -0.0729
12077TIP3    H257723   2.244   1.420  13.294 -1.2249  0.3455 -0.5605
12078TIP3   OH257724   1.202   4.262  12.631  0.4187 -0.2455 -0.5054
12078TIP3    H157725   1.149   4.199  12.582 -0.0223 -0.2331 -0.0512
12078TIP3    H257726   1.144   4.293  12.700  1.4892 -1.3956  0.9656
12079TIP3   OH257727   4.663   2.185  15.081  0.3777  0.3899 -0.2162
12079TIP3    H157728   4.598   2.207  15.014  1.8524  0.7930 -1.5411
12079TIP3    H257729   4.722   2.260  15.083  2.1559 -0.9824 -0.7034
12080TIP3   OH257730   3.011   5.697  13.684  0.5130 -0.7064  0.2493
12080TIP3    H157731   3.043   5.770  13.738 -0.9236  0.5224 -0.5198
12080TIP3    H257732   3.053   5.619  13.722 -0.1853  0.1644  2.9472
12081TIP3   OH257733   2.510   4.901  15.886 -0.0345  0.4564 -0.1246
12081TIP3    H157734   2.565   4.830  15.918 -0.9107  0.3206  1.1391
12081TIP3    H257735   2.571   4.969  15.860  0.8219 -0.7857 -1.4248
12082TIP3   OH257736   5.374   6.009  11.845  0.0862  0.2346  0.3225
12082TIP3    H157737   5.366   5.971  11.933 -0.4076 -2.9004 -0.9817
12082TIP3    H257738   5.465   6.039  11.840  0.5686 -0.9803  1.3919
12083TIP3   OH257739   1.075   1.418   4.112  0.0534 -0.4913 -0.4311
12083TIP3    H157740   1.125   1.418   4.194 -0.5075  0.6155 -0.0734
12083TIP3    H257741   1.113   1.491   4.062  0.9758 -1.7137 -1.5281
12084TIP3   OH257742   0.474   3.732  11.750  0.6942  0.6958  0.0717
12084TIP3    H157743   0.555   3.729  11.700  1.3528  1.4872  1.0784
12084TIP3    H257744   0.498   3.772  11.833 -0.9315  1.9231 -0.0194
12085TIP3   OH257745   3.604   4.338   1.382 -0.2228 -0.9013 -0.3135
12085TIP3    H157746   3.637   4.336   1.292  1.5303 -1.1038  0.3167
12085TIP3    H257747   3.573   4.249   1.397 -0.3406 -0.9206 -0.6631
12086TIP3   OH257748   5.454   1.671   6.680  0.7812  0.1073  0.4400
12086TIP3    H157749   5.523   1.711   6.626 -0.4463  1.4775 -0.1667
12086TIP3    H257750   5.433   1.739   6.745 -1.1514  0.3662 -0.4313
12087TIP3   OH257751   6.618   4.653  16.787  0.8252 -0.3072  0.4543
12087TIP3    H157752   6.542   4.689  16.832  0.1726  0.2496 -1.0485
12087TIP3    H257753   6.636   4.715  16.716 -0.1270 -2.7038 -1.9851
12088TIP3   OH257754   2.420   4.270   5.910  0.4112 -0.3680 -0.0581
12088TIP3    H157755   2.356   4.217   5.958  1.3078 -1.4239 -0.0166
12088TIP3    H257756   2.459   4.327   5.976  1.1729 -1.3606  0.3647
12089TIP3   OH257757   5.017   3.286   1.130  0.5447 -0.3349 -0.4743
12089TIP3    H157758   5.065   3.330   1.060  0.9104  0.9237  0.5441
12089TIP3    H257759   4.925   3.300   1.108  0.6600  0.1529 -0.6485
12090TIP3   OH257760   5.935   5.834   2.757  0.0741  0.5512 -0.4033
12090TIP3    H157761   5.874   5.825   2.830  2.0954 -1.1693  1.1781
12090TIP3    H257762   5.944   5.745   2.723 -0.5459  1.2769 -2.5156
12091TIP3   OH257763   0.639   1.473  16.884 -0.1767 -0.1025  0.1218
12091TIP3    H157764   0.561   1.500  16.933  0.8953  1.9674  0.7317
12091TIP3    H257765   0.670   1.552  16.841  0.7061 -1.2408 -1.4077
12092TIP3   OH257766   3.733   5.207  14.420  0.1245 -0.5740  0.6027
12092TIP3    H157767   3.768   5.288  14.457 -4.1014  2.5734 -1.8548
12092TIP3    H257768   3.783   5.194  14.339  0.8138 -0.4721  1.0054
12093TIP3   OH257769   5.078   3.377  16.344  0.3341  0.5085 -0.7001
12093TIP3    H157770   4.992   3.354  16.309 -0.6255  0.9811  1.2925
12093TIP3    H257771   5.085   3.472  16.331  0.0936  0.6406  0.1275
12094TIP3   OH257772   6.654   4.122  15.270  0.0217  0.1613  0.0153
12094TIP3    H157773   6.682   4.080  15.352 -0.9807  0.0343  0.2976
12094TIP3    H257774   6.679   4.214  15.280 -2.1656  0.6330  1.4399
12095TIP3   OH257775   2.235   0.156  13.772 -0.2315 -0.9531 -0.7423
12095TIP3    H157776   2.202   0.105  13.846 -2.2333  0.6550 -0.4506
12095TIP3    H257777   2.164   0.153  13.708  0.8477 -1.0132 -1.9426
12096TIP3   OH257778   4.974   2.690   1.284  0.6956  0.2742  0.3210
12096TIP3    H157779   5.031   2.623   1.320  1.8287 -0.0350 -1.9014
12096TIP3    H257780   4.889   2.647   1.271  0.2794  0.4012  2.5400
12097TIP3   OH257781   5.048   5.714  12.491  0.0196  0.1718 -0.4367
12097TIP3    H157782   5.104   5.695  12.567  0.2154  0.0366 -0.6146
12097TIP3    H257783   5.107   5.709  12.416 -0.5070 -1.3708 -0.7748
12098TIP3   OH257784   0.098   5.465  13.216  0.0604 -0.2291  0.5014
12098TIP3    H157785   0.191   5.478  13.195  0.1185 -1.2878  0.0583
12098TIP3    H257786   0.079   5.531  13.282  0.8043  0.8373 -0.3390
12099TIP3   OH257787   2.898   5.385   3.599 -0.2109 -0.6184 -0.0583
12099TIP3    H157788   2.924   5.459   3.544  0.0460 -0.2922  0.4913
12099TIP3    H257789   2.931   5.308   3.554 -0.1833 -0.3692 -0.4634
12100TIP3   OH257790   1.698   0.168  15.880 -0.0924  0.2874  0.2967
12100TIP3    H157791   1.625   0.212  15.838  1.2870  1.2097 -1.1509
12100TIP3    H257792   1.694   0.198  15.971 -0.3380  1.8513 -0.2194
12101TIP3   OH257793   5.337   0.290  15.834  0.5592  0.0305  0.0999
12101TIP3    H157794   5.430   0.312  15.848  0.5752  1.2001 -1.7628
12101TIP3    H257795   5.293   0.374  15.828 -0.6212 -0.5292  0.8129
12102TIP3   OH257796   1.266   1.862   3.349  0.3804  0.2330 -0.6495
12102TIP3    H157797   1.287   1.864   3.443  2.9113  2.4665 -1.2056
12102TIP3    H257798   1.299   1.777   3.319 -0.0306 -0.3013  0.3908
12103TIP3   OH257799   1.508   5.506  14.792  0.1223  0.4447  0.0745
12103TIP3    H157800   1.522   5.563  14.717 -0.6674  0.2872 -0.1907
12103TIP3    H257801   1.417   5.520  14.817 -0.2230 -1.0744 -0.3095
12104TIP3   OH257802   4.971   4.805   1.290 -0.0971 -0.0363 -0.0448
12104TIP3    H157803   5.032   4.805   1.216 -1.3356  1.3591 -1.0763
12104TIP3    H257804   4.969   4.714   1.319  1.2051 -0.4033 -1.0580
12105TIP3   OH257805   0.938   0.366   0.130 -0.4619  0.4074  0.3682
12105TIP3    H157806   0.949   0.459   0.149  2.3526  0.3124 -0.6112
12105TIP3    H257807   0.983   0.353   0.046 -1.7022 -1.6378 -0.0148
12106TIP3   OH257808   2.859   3.050  14.010 -0.2208  0.4973  0.1687
12106TIP3    H157809   2.932   3.111  14.007 -1.3593  1.9609  1.3386
12106TIP3    H257810   2.781   3.106  14.017 -1.7196 -0.8990 -4.0255
12107TIP3   OH257811   0.988   1.708  14.681 -0.5314  0.0597 -0.0471
12107TIP3    H157812   0.981   1.733  14.589  0.3648  0.3742 -0.0408
12107TIP3    H257813   0.938   1.627  14.688 -1.4640  0.5860 -0.5894
12108TIP3   OH257814   4.294   0.145  14.568  0.4846  0.1313 -0.1312
12108TIP3    H157815   4.319   0.167  14.658  1.3761 -0.1522 -0.3086
12108TIP3    H257816   4.314   0.051  14.560 -0.3113 -0.0260 -0.3874
12109TIP3   OH257817   1.607   3.672  15.775  0.3606 -0.0099 -0.3434
12109TIP3    H157818   1.538   3.612  15.748  0.5754 -0.9722  1.2294
12109TIP3    H257819   1.688   3.622  15.766  0.8418  1.0057 -1.8533
12110TIP3   OH257820   0.402   4.595   4.933 -0.3387 -0.3075  0.1683
12110TIP3    H157821   0.360   4.665   4.983 -0.9748 -0.4434 -0.1711
12110TIP3    H257822   0.427   4.636   4.850 -2.9429 -1.0648 -1.0486
12111TIP3   OH257823   5.831   5.348   1.740 -0.4110  0.1189 -0.1306
12111TIP3    H157824   5.790   5.303   1.814 -3.2052 -1.0372 -2.3468
12111TIP3    H257825   5.759   5.374   1.684  1.6059  1.9429 -1.9655
12112TIP3   OH257826   5.074   0.891  16.914  0.5832 -0.2216 -0.2831
12112TIP3    H157827   5.001   0.933  16.959  1.5784 -0.6990  1.8316
12112TIP3    H257828   5.121   0.963  16.871 -0.1574  0.2827 -0.2592
12113TIP3   OH257829   5.219   4.132  11.859 -0.8471  0.0254 -0.1399
12113TIP3    H157830   5.239   4.191  11.787  0.5095  1.2491  1.2040
12113TIP3    H257831   5.123   4.131  11.864 -0.8852  2.5249  0.1167
12114TIP3   OH257832   6.309   4.237  16.725  0.0483 -0.1467  0.0254
12114TIP3    H157833   6.305   4.290  16.805 -1.3855 -0.1362 -0.0442
12114TIP3    H257834   6.309   4.302  16.654 -1.7079 -0.2184 -0.0618
12115TIP3   OH257835   3.167   4.194   5.214 -0.8199  0.2180 -0.5049
12115TIP3    H157836   3.112   4.148   5.151  0.1795 -0.6708 -0.7412
12115TIP3    H257837   3.257   4.177   5.184 -0.3677  0.3554  0.7600
12116TIP3   OH257838   1.147   5.071  15.281  0.3946 -0.0007 -0.2919
12116TIP3    H157839   1.190   5.000  15.233  0.6104 -1.2867  1.7634
12116TIP3    H257840   1.175   5.150  15.235  0.5467 -1.1905 -2.3267
12117TIP3   OH257841   6.577   2.989  11.091  0.0438 -0.1529  0.4695
12117TIP3    H157842   6.609   2.906  11.125  0.3874 -0.5102 -0.6856
12117TIP3    H257843   6.498   2.966  11.042 -0.0114  0.2336  0.3781
12118TIP3   OH257844   1.335   4.527  12.641  0.0174 -0.0449 -0.2022
12118TIP3    H157845   1.330   4.431  12.639 -0.3694 -0.0244 -0.2935
12118TIP3    H257846   1.400   4.549  12.575 -0.5460 -0.2000 -0.8098
12119TIP3   OH257847   5.027   4.032  13.104 -0.0766  0.9257 -0.2220
12119TIP3    H157848   5.045   3.954  13.052 -1.2544  0.3057  0.2763
12119TIP3    H257849   5.041   4.106  13.044 -2.1134  0.2004 -1.6158
12120TIP3   OH257850   0.062   2.701   0.377 -0.1602 -0.0547 -0.2001
12120TIP3    H157851   0.033   2.638   0.311 -1.5650 -0.8078  1.1049
12120TIP3    H257852   0.003   2.687   0.451  0.2053  2.0446  0.5315
12121TIP3   OH257853   3.261   2.247   1.585 -0.8335  0.0011  0.2818
12121TIP3    H157854   3.299   2.213   1.504 -0.4889  0.7731  0.1139
12121TIP3    H257855   3.226   2.333   1.560 -1.0821  0.0659  0.8615
12122TIP3   OH257856   3.898   5.256  16.020  0.3312  0.4263 -0.4824
12122TIP3    H157857   3.915   5.205  16.099  1.3380 -3.4391 -3.0228
12122TIP3    H257858   3.984   5.268  15.980 -0.3217  0.9352 -1.7832
12123TIP3   OH257859   2.873   3.966  13.100  0.4106 -0.0888 -0.0858
12123TIP3    H157860   2.818   4.044  13.087  0.6108 -0.2175 -1.9166
12123TIP3    H257861   2.876   3.954  13.195 -0.3855  1.5914  0.1759
12124TIP3   OH257862   3.105   2.189   1.301 -0.2622 -0.3451 -0.0333
12124TIP3    H157863   3.050   2.183   1.222 -0.8268 -1.2900  0.4173
12124TIP3    H257864   3.131   2.099   1.319 -1.0185 -0.2880  1.4654
12125TIP3   OH257865   4.278   5.677   2.473 -0.4659 -0.6599 -0.1107
12125TIP3    H157866   4.246   5.612   2.535 -0.2065  0.2337  0.9877
12125TIP3    H257867   4.321   5.626   2.405  3.2187 -1.5674  2.7105
12126TIP3   OH257868   4.864   2.213   2.390 -0.1105 -0.2909  0.3526
12126TIP3    H157869   4.879   2.243   2.300 -3.4262 -0.0215 -0.1904
12126TIP3    H257870   4.831   2.291   2.435 -1.8001 -1.2783  0.8569
12127TIP3   OH257871   6.361   5.261  17.181  0.1386  0.1699  0.0432
12127TIP3    H157872   6.326   5.173  17.199  1.4621 -0.3263  0.2003
12127TIP3    H257873   6.333   5.313  17.256 -1.1646  0.0414 -0.3328
12128TIP3   OH257874   6.646   1.822   3.157  0.6963  0.1103 -0.1796
12128TIP3    H157875   6.606   1.855   3.076 -1.0835  0.6207  0.8916
12128TIP3    H257876   6.604   1.872   3.227  2.4858 -0.0740  1.0492
12129TIP3   OH257877   5.664   6.359  13.304  0.1482  0.1739 -0.3973
12129TIP3    H157878   5.675   6.449  13.334  0.1199 -0.2103  0.7930
12129TIP3    H257879   5.578   6.358  13.262 -0.1563  0.5400  0.2096
12130TIP3   OH257880   0.564   0.050  13.186 -0.0499 -0.5477 -0.4664
12130TIP3    H157881   0.479   0.024  13.223 -0.2901  2.1225  1.0331
12130TIP3    H257882   0.542   0.089  13.101 -0.2612 -0.5108 -0.3961
12131TIP3   OH257883   2.810   3.209   2.521 -0.2220  0.3533  0.0434
12131TIP3    H157884   2.757   3.259   2.458  0.2600  0.4955 -0.2562
12131TIP3    H257885   2.751   3.142   2.555 -0.2648 -0.2202 -1.1477
12132TIP3   OH257886   3.145   5.967   6.019 -0.4010  0.0847  0.0719
12132TIP3    H157887   3.174   5.877   6.005 -0.7146  0.0674 -0.4702
12132TIP3    H257888   3.189   5.994   6.099  2.2624  0.5249 -1.4640
12133TIP3   OH257889   5.784   4.970   3.840  0.3720 -0.0108  0.2116
12133TIP3    H157890   5.776   4.955   3.746  0.5606  0.6718  0.0834
12133TIP3    H257891   5.816   4.887   3.875  0.4974 -0.2040 -0.3554
12134TIP3   OH257892   4.616   1.279  16.654  0.1533  0.3859  0.5200
12134TIP3    H157893   4.689   1.235  16.610 -0.6233 -1.1069  0.7093
12134TIP3    H257894   4.646   1.290  16.744  0.0949 -0.3641  0.6347
12135TIP3   OH257895   3.415   1.838  16.354 -0.4220 -0.0687 -0.3667
12135TIP3    H157896   3.410   1.765  16.415  0.4824 -0.9556 -1.3253
12135TIP3    H257897   3.508   1.843  16.330 -0.5794  0.9899 -0.7866
12136TIP3   OH257898   5.601   0.603  11.423 -0.2777 -0.2001 -0.1619
12136TIP3    H157899   5.508   0.607  11.446 -0.4448 -0.9940 -0.7102
12136TIP3    H257900   5.646   0.599  11.508 -0.7294  0.4701  0.1087
12137TIP3   OH257901   0.356   1.692   5.534  0.1133  0.1995  0.3476
12137TIP3    H157902   0.439   1.664   5.572  0.9182 -0.9497 -2.1080
12137TIP3    H257903   0.318   1.752   5.598  1.6460 -1.2278  2.6325
12138TIP3   OH257904   4.564   0.548   2.538  0.1961  0.4291 -0.0266
12138TIP3    H157905   4.573   0.464   2.492  0.0464 -0.0066  0.7229
12138TIP3    H257906   4.502   0.598   2.485  0.0527 -0.0503 -0.3219
12139TIP3   OH257907   3.390   2.186   1.341 -0.2520  0.3506  0.3432
12139TIP3    H157908   3.361   2.095   1.332  0.2940  0.2365 -0.3362
12139TIP3    H257909   3.325   2.237   1.292  1.4522 -0.0471 -2.4374
12140TIP3   OH257910   0.322   2.755   4.131  0.0943  0.9683  0.7959
12140TIP3    H157911   0.406   2.709   4.123  0.0173  1.1044 -1.0922
12140TIP3    H257912   0.346   2.847   4.144  0.2418  0.5454  3.7054
12141TIP3   OH257913   5.884   5.131  12.635  0.0523  0.3254  0.1355
12141TIP3    H157914   5.829   5.100  12.707 -1.0867  0.5480 -0.6391
12141TIP3    H257915   5.937   5.054  12.612  1.5140  0.6648  2.1934
12142TIP3   OH257916   2.342   6.074   2.584  0.5449  0.3921  0.2444
12142TIP3    H157917   2.307   6.133   2.650  1.0808  0.0882  0.7964
12142TIP3    H257918   2.306   6.107   2.501 -1.1217  0.0343  0.8039
12143TIP3   OH257919   2.083   0.571  14.247  0.3594 -0.2067  0.0885
12143TIP3    H157920   2.160   0.534  14.205  2.4374  1.2342  2.5242
12143TIP3    H257921   2.030   0.494  14.271 -0.1608 -1.1142 -3.5878
12144TIP3   OH257922   4.728   4.099   2.735  0.0855 -0.1649 -0.0565
12144TIP3    H157923   4.714   4.182   2.780  0.8576  0.0466 -0.1902
12144TIP3    H257924   4.698   4.116   2.645  0.5255  0.0604 -0.1603
12145TIP3   OH257925   5.030   2.534   4.459  0.2354  0.1537  0.0203
12145TIP3    H157926   5.078   2.611   4.429 -0.3633  0.6368  0.2845
12145TIP3    H257927   5.014   2.483   4.379 -0.7670  1.1044 -0.3972
12146TIP3   OH257928   2.472   5.070   3.414 -0.2037  0.6103  0.1167
12146TIP3    H157929   2.502   5.146   3.465 -2.7835  0.9366  1.1941
12146TIP3    H257930   2.379   5.063   3.433 -0.5009 -1.3999 -1.8693
12147TIP3   OH257931   1.087   4.330  16.314  0.2222  0.5054  0.5078
12147TIP3    H157932   1.178   4.357  16.313 -0.2705  2.2379 -0.9497
12147TIP3    H257933   1.079   4.269  16.240 -0.3269  2.2786 -0.9216
12148TIP3   OH257934   1.339   5.408  11.214 -0.2033 -0.7609 -0.1780
12148TIP3    H157935   1.284   5.467  11.266  1.4822  2.0864 -1.4648
12148TIP3    H257936   1.328   5.440  11.124  1.5808 -1.7462 -0.7498
12149TIP3   OH257937   6.674   3.819  12.623 -0.1970 -0.5621 -0.0592
12149TIP3    H157938   6.679   3.883  12.694  0.2841  0.7684 -1.2751
12149TIP3    H257939   6.592   3.773  12.639  0.3236 -0.8885  1.8560
12150TIP3   OH257940   6.224   0.909   6.180  0.1232  0.8280  0.7781
12150TIP3    H157941   6.272   0.965   6.241  0.0117  0.8684  0.8293
12150TIP3    H257942   6.150   0.875   6.231  0.5855  0.0647  0.9606
12151TIP3   OH257943   5.707   4.815  16.554  0.3932  0.3435 -0.2416
12151TIP3    H157944   5.747   4.882  16.609 -0.8606  1.0470 -0.1613
12151TIP3    H257945   5.681   4.862  16.474  0.5239 -0.2766 -0.6459
12152TIP3   OH257946   0.957   2.110  12.212 -0.1186 -0.0936  0.0879
12152TIP3    H157947   1.002   2.153  12.139 -0.1010 -0.5477 -0.1775
12152TIP3    H257948   0.955   2.175  12.282  1.2612 -0.1683  0.2220
12153TIP3   OH257949   5.616   3.445  14.754  0.4282  0.0922  0.3565
12153TIP3    H157950   5.711   3.437  14.762  0.4154 -2.0634 -1.1718
12153TIP3    H257951   5.582   3.359  14.777 -0.9630  0.0775 -1.5819
12154TIP3   OH257952   0.823   2.093   2.512 -0.5116 -0.5943  0.1052
12154TIP3    H157953   0.819   2.006   2.553 -1.8697 -1.0201 -0.8888
12154TIP3    H257954   0.770   2.084   2.433 -1.7785  1.4973  0.6861
12155TIP3   OH257955   0.733   6.429   5.786 -0.6442 -0.4784 -0.1143
12155TIP3    H157956   0.675   6.463   5.719  0.5232 -0.8206 -1.3242
12155TIP3    H257957   0.798   6.377   5.738  1.8153  1.4735  0.9439
12156TIP3   OH257958   2.251   0.445  13.766 -0.4124 -0.3042  0.0682
12156TIP3    H157959   2.277   0.493  13.845  1.3842  0.9092 -1.2426
12156TIP3    H257960   2.213   0.364  13.800  2.2507 -0.7507  2.1539
12157TIP3   OH257961   3.696   4.065   2.244 -0.1441  0.9504  0.3403
12157TIP3    H157962   3.680   4.098   2.333 -2.0590  0.2133  0.3028
12157TIP3    H257963   3.747   4.134   2.201 -0.0901  1.7694  1.6828
12158TIP3   OH257964   4.022   3.335   4.296  0.3015 -0.2240 -0.0165
12158TIP3    H157965   3.952   3.386   4.337  0.2619  1.2078 -1.8239
12158TIP3    H257966   3.978   3.275   4.237  0.5386 -0.1547 -0.2664
12159TIP3   OH257967   1.154   4.792   5.076  0.1629  0.7729 -0.7302
12159TIP3    H157968   1.173   4.720   5.137 -0.1734  1.0363 -0.3033
12159TIP3    H257969   1.239   4.825   5.050  0.3058  0.9298 -0.0675
12160TIP3   OH257970   5.417   2.970  16.237 -0.4899 -0.8169 -0.0216
12160TIP3    H157971   5.424   3.050  16.185 -0.6649 -1.4223 -0.9963
12160TIP3    H257972   5.504   2.959  16.275 -1.1372  1.1524  2.1303
12161TIP3   OH257973   1.518   4.661  12.453  0.7707  0.0096  0.4587
12161TIP3    H157974   1.571   4.711  12.515  0.3568  1.0909 -0.0498
12161TIP3    H257975   1.574   4.587  12.428  0.9399 -0.4382  2.1013
12162TIP3   OH257976   2.117   5.778  10.498 -0.1309  0.1646  0.1189
12162TIP3    H157977   2.056   5.802  10.428  1.5592  0.1152 -1.3905
12162TIP3    H257978   2.115   5.854  10.558 -0.7140  0.6965 -0.5652
12163TIP3   OH257979   0.557   3.909   2.130  0.0119  0.3714 -0.1280
12163TIP3    H157980   0.587   3.992   2.167  1.2403 -0.3474  0.5067
12163TIP3    H257981   0.525   3.859   2.206 -1.5727  0.5974 -0.6156
12164TIP3   OH257982   5.523   3.463  14.498  0.0524 -0.4700 -0.3650
12164TIP3    H157983   5.533   3.453  14.593  1.7095  0.8072 -0.3771
12164TIP3    H257984   5.592   3.408  14.461 -0.2173 -0.5047 -0.8157
12165TIP3   OH257985   1.025   0.046  13.465  0.1414 -0.1493 -0.3661
12165TIP3    H157986   1.112   0.047  13.505 -0.1422  0.3973  0.2369
12165TIP3    H257987   1.043   0.046  13.371  0.7940  0.4282 -0.2459
12166TIP3   OH257988   0.850   4.719  15.465 -0.3747  0.1915 -0.3020
12166TIP3    H157989   0.915   4.754  15.405  0.3055  1.5450  1.1952
12166TIP3    H257990   0.831   4.631  15.432  1.4719  0.1659 -1.3108
12167TIP3   OH257991   1.916   4.126  16.277 -0.1316 -0.1882  0.1039
12167TIP3    H157992   1.877   4.141  16.363  2.2401  1.1877  1.0090
12167TIP3    H257993   1.885   4.199  16.224  0.9343  0.7431  0.7341
12168TIP3   OH257994   6.346   4.660   2.199 -0.1829  0.4835 -0.4933
12168TIP3    H157995   6.313   4.579   2.238 -1.9090  1.0729 -0.6802
12168TIP3    H257996   6.410   4.632   2.134  0.6364 -0.6355  0.7788
12169TIP3   OH257997   3.191   5.268  16.860  0.1580  0.3041 -0.1789
12169TIP3    H157998   3.105   5.246  16.896  0.3269 -0.6042 -0.3265
12169TIP3    H257999   3.211   5.354  16.897  0.0145 -0.2898  1.3252
12170TIP3   OH258000   4.073   3.134  13.302 -0.2209 -0.3191 -0.0732
12170TIP3    H158001   4.076   3.229  13.315  1.8910 -0.1540 -1.5957
12170TIP3    H258002   4.045   3.123  13.212  0.3929 -1.1202 -0.1736
12171TIP3   OH258003   0.857   3.017  17.190 -0.3947  0.0371 -0.3009
12171TIP3    H158004   0.847   3.106  17.225 -0.4248  0.2456 -0.8396
12171TIP3    H258005   0.931   3.024  17.130 -1.3591  0.0525 -1.5069
12172TIP3   OH258006   4.132   5.334  11.832  0.2130  0.1008 -0.0506
12172TIP3    H158007   4.062   5.397  11.818 -0.5100 -0.3194  1.5491
12172TIP3    H258008   4.156   5.304  11.744 -0.4299  1.5077 -0.7122
12173TIP3   OH258009   1.816   2.792  15.952  0.5574  0.2114  0.7013
12173TIP3    H158010   1.723   2.797  15.929  0.5032 -0.8794  0.6388
12173TIP3    H258011   1.858   2.859  15.898 -0.1400  0.4485  0.4477
12174TIP3   OH258012   3.246   0.081  12.334  0.2780 -0.2450 -0.3032
12174TIP3    H158013   3.267  -0.004  12.297 -2.7935 -1.8588  1.4827
12174TIP3    H258014   3.189   0.122  12.269  2.3860  0.8442 -1.5248
12175TIP3   OH258015   5.610   6.016  15.769  0.2515  0.0275  0.0218
12175TIP3    H158016   5.703   6.038  15.770  0.3575 -0.3309 -1.0313
12175TIP3    H258017   5.574   6.067  15.697 -0.1228 -0.7622 -0.3609
12176TIP3   OH258018   5.855   1.990   4.278 -0.4662 -0.3188 -0.1768
12176TIP3    H158019   5.945   1.959   4.273 -0.3994  0.0252 -1.0755
12176TIP3    H258020   5.841   2.005   4.372  0.3478 -0.5460 -0.0122
12177TIP3   OH258021   3.645   6.475  11.692  0.2450 -0.4008 -0.4422
12177TIP3    H158022   3.557   6.507  11.674 -0.4104 -0.3096  2.5671
12177TIP3    H258023   3.632   6.387  11.726  0.9123  0.9621  3.6434
12178TIP3   OH258024   1.146   3.977   6.265  0.1260  0.5513  0.1442
12178TIP3    H158025   1.055   3.980   6.236 -1.0176 -1.5442  3.1464
12178TIP3    H258026   1.184   4.059   6.236 -2.2824  0.7704 -2.5644
12179TIP3   OH258027   6.052   3.069  13.545 -0.1892 -0.0273 -0.4872
12179TIP3    H158028   6.142   3.098  13.528 -0.4741  1.0665 -0.1883
12179TIP3    H258029   6.061   3.006  13.616 -0.0510  3.3297  2.6330
12180TIP3   OH258030   0.139   6.547   6.278  0.1382  0.1299  0.0076
12180TIP3    H158031   0.232   6.564   6.292  0.5356 -1.6261 -0.3633
12180TIP3    H258032   0.109   6.507   6.360  0.2026 -1.1945 -0.6016
12181TIP3   OH258033   5.910   3.869   2.367  0.0830 -0.1578  0.8177
12181TIP3    H158034   5.889   3.866   2.274  0.7475  0.1208  0.6553
12181TIP3    H258035   5.932   3.778   2.389  2.6436  0.2277  0.0462
12182TIP3   OH258036   5.275   3.450  14.351 -0.4437  0.1575  0.6035
12182TIP3    H158037   5.290   3.393  14.426  1.3040  0.0891  0.2141
12182TIP3    H258038   5.332   3.526  14.366 -1.4991  1.0294  0.2816
12183TIP3   OH258039   0.292   3.798  15.263 -0.2401  0.4235 -0.2681
12183TIP3    H158040   0.197   3.806  15.258 -0.3108 -0.2233 -0.0267
12183TIP3    H258041   0.323   3.887  15.279 -0.7639  0.7367 -0.9336
12184TIP3   OH258042   5.464   2.869  16.807  0.1993 -0.5112 -0.3017
12184TIP3    H158043   5.559   2.860  16.814  0.1964 -0.0987  0.2629
12184TIP3    H258044   5.451   2.958  16.772  0.0139 -0.5034 -0.2151
12185TIP3   OH258045   4.075   2.773  13.101  0.1760  0.2430 -0.4286
12185TIP3    H158046   4.090   2.859  13.140 -0.0551  0.1940 -0.2309
12185TIP3    H258047   4.028   2.791  13.019  1.5552  0.4193 -1.1970
12186TIP3   OH258048   5.366   3.563  10.619  0.6402 -0.2232  0.1201
12186TIP3    H158049   5.303   3.599  10.681 -0.5700 -0.9337 -0.6570
12186TIP3    H258050   5.427   3.513  10.672  1.4611  1.7180  1.0507
12187TIP3   OH258051   0.444   0.365  17.003 -0.6010  0.1673  0.6115
12187TIP3    H158052   0.537   0.343  17.005 -0.2113  1.5980 -0.7090
12187TIP3    H258053   0.406   0.302  16.941 -0.2523  0.5303  0.0297
12188TIP3   OH258054   5.883   5.293   1.308  0.1375  0.1788 -0.2045
12188TIP3    H158055   5.926   5.378   1.308  1.5691 -0.4488 -3.8355
12188TIP3    H258056   5.949   5.233   1.342 -0.7808  0.4220  2.0991
12189TIP3   OH258057   0.131   4.805   4.832  0.1701  0.7409 -0.5176
12189TIP3    H158058   0.092   4.730   4.877  0.8936  0.0524 -1.0174
12189TIP3    H258059   0.208   4.827   4.885  0.6031  0.3972 -0.9898
12190TIP3   OH258060   1.205   4.010  14.995  0.1469  0.1322  0.2746
12190TIP3    H158061   1.189   4.060  14.915  2.7480 -0.6456 -0.7601
12190TIP3    H258062   1.186   4.071  15.066 -1.8394  0.9332 -0.9132
12191TIP3   OH258063   3.054   3.277   2.970  0.1821 -0.7924 -0.3397
12191TIP3    H158064   2.984   3.254   2.909  0.4587 -0.2404 -0.8686
12191TIP3    H258065   3.025   3.242   3.054  0.2018 -2.3004 -0.9559
12192TIP3   OH258066   1.250   0.435  15.536  0.2779  0.5983 -0.7064
12192TIP3    H158067   1.172   0.462  15.586  0.0477 -1.5293  0.1191
12192TIP3    H258068   1.261   0.342  15.557  2.9341  0.8200 -0.9699
12193TIP3   OH258069   2.865   1.507   0.416  0.5238  0.4760 -0.0462
12193TIP3    H158070   2.889   1.415   0.428 -2.4525 -0.2075  0.9914
12193TIP3    H258071   2.941   1.556   0.448  1.8222 -1.6028  0.1363
12194TIP3   OH258072   0.170   3.394  10.878 -0.3383 -0.0691 -0.5048
12194TIP3    H158073   0.207   3.449  10.947 -0.7683 -0.0442 -0.2983
12194TIP3    H258074   0.145   3.312  10.922 -3.4737  1.0844 -0.0131
12195TIP3   OH258075   3.406   5.020  16.239 -0.4854  0.2462 -0.4410
12195TIP3    H158076   3.335   5.084  16.245 -1.0977 -0.3794 -0.9318
12195TIP3    H258077   3.367   4.937  16.267  0.3926  0.1407  0.5054
12196TIP3   OH258078   4.910   1.098   4.249  0.1164 -0.4045  0.3234
12196TIP3    H158079   4.943   1.059   4.330  2.3198 -0.3280 -0.4900
12196TIP3    H258080   4.989   1.125   4.202 -1.1521  0.0676 -1.5927
12197TIP3   OH258081   2.802   2.675   0.682 -0.3424 -0.0356  0.2313
12197TIP3    H158082   2.771   2.756   0.642  2.2430  1.0543  0.3017
12197TIP3    H258083   2.794   2.690   0.776  0.4453  0.3033  0.2534
12198TIP3   OH258084   0.247   3.502  15.630  0.4507  0.3269  0.3288
12198TIP3    H158085   0.283   3.421  15.666 -2.2554 -2.0406 -2.0392
12198TIP3    H258086   0.315   3.535  15.572  0.6848 -1.5998 -0.5344
12199TIP3   OH258087   0.382   2.123   0.500 -0.3760  0.1601 -0.1559
12199TIP3    H158088   0.442   2.066   0.451 -0.9206  1.2662 -2.1522
12199TIP3    H258089   0.437   2.195   0.531  0.0926 -0.8555  1.4232
12200TIP3   OH258090   2.113   1.678  15.281 -0.1844  0.2848  0.1568
12200TIP3    H158091   2.129   1.736  15.206  0.8690 -0.9532 -0.5878
12200TIP3    H258092   2.025   1.700  15.310 -0.0624  1.7733 -0.5584
12201TIP3   OH258093   1.317   2.589   0.283 -0.2398 -0.3050 -0.2830
12201TIP3    H158094   1.352   2.669   0.323  1.0680 -0.5559 -0.8906
12201TIP3    H258095   1.257   2.553   0.348  1.6515 -0.5707  1.3582
12202TIP3   OH258096   5.338   0.669  16.722 -0.0677 -0.0008 -0.4732
12202TIP3    H158097   5.347   0.674  16.817  2.0028  0.7561 -0.6846
12202TIP3    H258098   5.349   0.760  16.692 -0.5992 -0.2502 -1.4498
12203TIP3   OH258099   4.274   4.219   0.752  0.1572 -0.3108 -0.3525
12203TIP3    H158100   4.332   4.273   0.806 -0.7959  0.3790 -0.0058
12203TIP3    H258101   4.242   4.151   0.811  1.2231 -1.1806 -0.7465
12204TIP3   OH258102   6.369   6.374  15.988  0.4612  0.3777  0.8182
12204TIP3    H158103   6.312   6.302  15.960  1.4033 -0.1245  0.1498
12204TIP3    H258104   6.418   6.398  15.910  0.8321  1.1159  1.2703
12205TIP3   OH258105   6.114   1.626   1.535 -0.2288 -0.5791 -0.3450
12205TIP3    H158106   6.179   1.556   1.525 -0.8747 -1.1776 -0.3670
12205TIP3    H258107   6.074   1.609   1.620  0.4085  0.4392  0.1656
12206TIP3   OH258108   0.024   5.223  11.357 -0.1602  0.0225  0.5819
12206TIP3    H158109   0.002   5.246  11.447  0.8990  1.1572  0.5804
12206TIP3    H258110   0.053   5.306  11.318  0.4353 -0.6656 -0.4726
12207TIP3   OH258111   0.403   3.956   0.288  0.2494  0.1612 -0.6707
12207TIP3    H158112   0.335   3.982   0.349  0.7574  1.3660 -0.6071
12207TIP3    H258113   0.464   3.904   0.341 -1.3416 -2.1299 -1.0489
12208TIP3   OH258114   2.781   2.464   1.692 -0.3884  0.2542  0.6551
12208TIP3    H158115   2.761   2.438   1.782 -1.0768 -0.2168  0.3706
12208TIP3    H258116   2.840   2.395   1.659  1.3327  1.3646  1.3195
12209TIP3   OH258117   0.580   1.804   4.475  0.3721  0.0573 -0.4573
12209TIP3    H158118   0.525   1.881   4.486  2.5982  1.3553  2.5349
12209TIP3    H258119   0.613   1.809   4.385 -0.5090  1.9124 -0.6852
12210TIP3   OH258120   0.679   0.322   6.271 -0.2140 -0.7859 -0.9902
12210TIP3    H158121   0.700   0.230   6.254 -0.3966 -1.1046  0.3977
12210TIP3    H258122   0.731   0.344   6.348 -0.1481  0.2935 -1.3393
12211TIP3   OH258123   2.566   0.220   4.348 -0.2286  0.2443 -0.2318
12211TIP3    H158124   2.563   0.287   4.280  0.0577 -0.3571 -0.8382
12211TIP3    H258125   2.543   0.267   4.428 -0.0670  1.0611 -0.6553
12212TIP3   OH258126   3.181   5.627   1.325 -0.0409  0.2151  0.1042
12212TIP3    H158127   3.203   5.540   1.290 -1.6589 -0.8014  1.4969
12212TIP3    H258128   3.212   5.688   1.259 -0.1760 -1.4957 -1.5839
12213TIP3   OH258129   4.338   0.909   3.767  0.3417  0.2523 -0.3533
12213TIP3    H158130   4.354   0.834   3.824 -1.2933  0.6774  0.6906
12213TIP3    H258131   4.272   0.879   3.705 -1.1584  1.1672  0.7820
12214TIP3   OH258132   1.559   1.716  11.217 -0.1887 -0.1756 -0.0049
12214TIP3    H158133   1.521   1.637  11.253 -1.9548  0.5395 -0.2802
12214TIP3    H258134   1.547   1.708  11.122  0.6983 -0.1078 -0.1359
12215TIP3   OH258135   5.279   0.538   6.528  0.0255 -0.3837 -0.2621
12215TIP3    H158136   5.232   0.559   6.448  2.7402 -1.1033 -2.1116
12215TIP3    H258137   5.233   0.462   6.564  0.3932 -1.7954 -2.6448
12216TIP3   OH258138   1.243   1.942  14.238  0.5421 -0.3947 -0.3153
12216TIP3    H158139   1.178   1.999  14.279 -1.0646 -2.5269  0.1483
12216TIP3    H258140   1.313   1.936  14.303  1.4475  2.2213 -0.9696
12217TIP3   OH258141   4.248   0.105   4.218 -0.4898  0.2388 -0.0844
12217TIP3    H158142   4.263   0.012   4.204 -0.0065  0.6295 -2.2698
12217TIP3    H258143   4.158   0.111   4.251  0.1679 -1.1474  2.0491
12218TIP3   OH258144   6.194   4.221   5.169  0.2519  0.1269  0.0199
12218TIP3    H158145   6.226   4.230   5.079 -2.0361 -2.8400 -1.1661
12218TIP3    H258146   6.229   4.137   5.199  1.1632  1.1841  2.0155
12219TIP3   OH258147   1.613   3.464  16.719 -0.2995 -0.0632 -0.3965
12219TIP3    H158148   1.624   3.414  16.799  5.0576 -0.3953 -1.1472
12219TIP3    H258149   1.560   3.408  16.662 -1.2691 -1.2682  1.6490
12220TIP3   OH258150   3.979   4.342   6.041  0.1292  0.0595 -0.2519
12220TIP3    H158151   4.014   4.283   5.974  0.0776  0.4898 -0.6662
12220TIP3    H258152   3.958   4.285   6.115 -0.2888 -0.4983 -0.7932
12221TIP3   OH258153   6.045   6.185   4.041 -0.0401 -0.3433  0.4220
12221TIP3    H158154   6.010   6.122   4.104 -0.2606 -0.4753  0.1687
12221TIP3    H258155   6.064   6.132   3.963 -0.0028 -0.1353  0.2909
12222TIP3   OH258156   2.485   5.177  11.000 -0.0256 -0.1181  0.3453
12222TIP3    H158157   2.397   5.215  10.993  0.3558  0.2060 -3.4243
12222TIP3    H258158   2.471   5.082  10.995 -0.0642 -0.0106 -2.1070
12223TIP3   OH258159   2.195   0.970   2.782  0.6275  0.2704 -0.0760
12223TIP3    H158160   2.227   0.921   2.707  4.0734  0.1993  1.3253
12223TIP3    H258161   2.194   1.061   2.753  1.4046  0.1831 -0.3918
12224TIP3   OH258162   4.467   5.770   0.270  0.4186 -0.2680  0.1041
12224TIP3    H158163   4.432   5.732   0.350  0.7025 -1.9497 -0.5518
12224TIP3    H258164   4.538   5.826   0.299 -0.7111  0.6400  1.1834
12225TIP3   OH258165   0.773   0.222  17.256 -0.6638 -0.0082 -0.0653
12225TIP3    H158166   0.757   0.136  17.296  3.0839 -1.2979 -1.1518
12225TIP3    H258167   0.837   0.264  17.314  1.0168  0.1308 -1.9724
12226TIP3   OH258168   6.166   5.475  11.919 -0.2606 -0.1589  0.4702
12226TIP3    H158169   6.209   5.451  11.837  0.8826 -1.1659  1.3440
12226TIP3    H258170   6.159   5.392  11.967 -3.2363 -0.0506  0.3464
12227TIP3   OH258171   1.095   2.619   0.121  0.3715 -0.3234 -0.2957
12227TIP3    H158172   1.181   2.599   0.157  0.0810  0.5420  0.8850
12227TIP3    H258173   1.096   2.714   0.107 -1.3119  0.0920  2.1836
12228TIP3   OH258174   4.379   5.658  14.237 -0.7960  0.2265  0.5881
12228TIP3    H158175   4.330   5.739  14.244 -0.0589  0.6986  0.3113
12228TIP3    H258176   4.442   5.674  14.167 -0.4345 -0.4724  0.7465
12229TIP3   OH258177   0.006   0.997  13.852 -0.1404 -0.4510 -0.2683
12229TIP3    H158178   0.044   0.911  13.832  2.0699 -0.1714  2.4404
12229TIP3    H258179  -0.079   0.977  13.893  1.1783 -1.4763  2.0694
12230TIP3   OH258180   6.474   0.031  11.972 -0.2382 -0.1496  0.1335
12230TIP3    H158181   6.441  -0.054  11.944 -0.2246 -0.6665  1.6391
12230TIP3    H258182   6.453   0.035  12.065  2.6349  0.1337  0.8065
12231TIP3   OH258183   3.862   4.565  13.603 -0.6774 -0.3146  0.0660
12231TIP3    H158184   3.873   4.485  13.654 -1.3556 -0.3463  0.1612
12231TIP3    H258185   3.882   4.539  13.513 -0.7618 -0.5571  0.1163
12232TIP3   OH258186   4.754   0.303  15.072 -0.3110  0.2112 -0.4031
12232TIP3    H158187   4.812   0.277  15.001 -1.6579  0.1729 -1.5258
12232TIP3    H258188   4.739   0.397  15.057  1.5004  0.8191  1.3986
12233TIP3   OH258189   1.912   4.264   4.914  0.0620 -0.4951  0.1723
12233TIP3    H158190   1.933   4.353   4.941 -1.1749  0.1146 -0.8315
12233TIP3    H258191   1.985   4.239   4.857  0.2611 -0.0117  0.2160
12234TIP3   OH258192   0.521   5.270   2.750 -0.2258  0.2120  0.1941
12234TIP3    H158193   0.461   5.195   2.747  0.4024 -0.3057  0.6617
12234TIP3    H258194   0.465   5.345   2.729 -1.0811 -0.2516  0.7536
12235TIP3   OH258195   3.790   4.124  12.102 -0.4147  0.0434  0.1910
12235TIP3    H158196   3.845   4.182  12.049  0.2966  0.4413  1.3311
12235TIP3    H258197   3.808   4.036  12.070 -0.3493  0.3197 -0.5330
12236TIP3   OH258198   2.150   6.288   3.946  0.1465 -0.2548 -0.3764
12236TIP3    H158199   2.132   6.326   4.032  0.9525 -0.2562 -0.2099
12236TIP3    H258200   2.237   6.250   3.953 -0.0085 -0.7496 -1.0281
12237TIP3   OH258201   0.025   6.007  14.764  0.2830  0.0251  0.6247
12237TIP3    H158202   0.090   6.027  14.832 -0.9388  0.9923  1.5383
12237TIP3    H258203  -0.040   6.077  14.772 -1.4419 -1.5118  0.4516
12238TIP3   OH258204   3.785   0.810   2.588 -0.3861  0.5340  0.6432
12238TIP3    H158205   3.869   0.764   2.585 -0.3002  0.6643  1.0286
12238TIP3    H258206   3.728   0.752   2.638 -1.5562 -1.2099 -2.5539
12239TIP3   OH258207   3.809   6.702   4.654 -0.9351 -0.0046  0.3359
12239TIP3    H158208   3.748   6.775   4.649 -0.4806  0.4852  1.6471
12239TIP3    H258209   3.771   6.644   4.720 -0.0542  0.2468  1.0706
12240TIP3   OH258210   1.194   0.981  13.456 -0.1562 -0.7385  0.3230
12240TIP3    H158211   1.261   0.914  13.470 -0.3838 -0.7479  1.3940
12240TIP3    H258212   1.223   1.056  13.508 -0.8939 -0.6934  0.6820
12241TIP3   OH258213   1.465   6.470  12.458 -0.1645  0.4007 -0.7145
12241TIP3    H158214   1.404   6.410  12.414  0.2570 -0.4463 -0.1560
12241TIP3    H258215   1.549   6.454  12.416  0.1114  0.0392 -0.0305
12242TIP3   OH258216   4.241   2.724   5.375 -0.3065 -0.6342  0.0076
12242TIP3    H158217   4.230   2.802   5.431 -1.9169 -0.5960 -0.3585
12242TIP3    H258218   4.238   2.758   5.286 -2.7521 -1.3000 -0.1996
12243TIP3   OH258219   0.810   1.498  11.286 -0.1906  0.5455 -0.4352
12243TIP3    H158220   0.819   1.500  11.191 -0.8348 -0.9873 -0.5431
12243TIP3    H258221   0.795   1.406  11.307 -1.2860  1.0317  1.0397
12244TIP3   OH258222   3.563   3.565  13.755 -0.5891 -0.2337 -0.3948
12244TIP3    H158223   3.525   3.650  13.774  0.3106 -0.0689  0.7254
12244TIP3    H258224   3.541   3.548  13.663 -0.2972  1.4515 -0.7798
12245TIP3   OH258225   4.047   1.377   6.066 -0.1457  0.1102 -0.5339
12245TIP3    H158226   4.066   1.298   6.118 -1.6487  1.5872  2.3912
12245TIP3    H258227   4.133   1.405   6.034  1.2848  0.6493  3.4673
12246TIP3   OH258228   5.888   5.148  11.421 -0.6608 -0.1422  0.3412
12246TIP3    H158229   5.829   5.099  11.364  1.0841 -0.2661 -1.4366
12246TIP3    H258230   5.956   5.084  11.445  0.1841  0.6795  0.1749
12247TIP3   OH258231   5.751   3.230  15.715 -0.2035 -0.3224  0.2687
12247TIP3    H158232   5.761   3.322  15.688 -1.0551 -0.0167  0.9890
12247TIP3    H258233   5.743   3.182  15.632 -0.3017  0.3187 -0.0961
12248TIP3   OH258234   4.982   0.968  13.896  0.4450  0.3750 -0.1085
12248TIP3    H158235   4.960   0.989  13.987 -2.6495  0.6878 -0.8801
12248TIP3    H258236   4.968   0.873  13.890 -0.4571  0.5324 -0.5357
12249TIP3   OH258237   4.968   4.407   0.131 -0.1042  0.2286  0.0814
12249TIP3    H158238   4.917   4.468   0.077 -0.7263  0.5581  1.0346
12249TIP3    H258239   4.911   4.331   0.142 -0.2895  0.4867  0.9289
12250TIP3   OH258240   1.303   0.573   1.309 -0.3801  0.1267  0.3786
12250TIP3    H158241   1.324   0.496   1.257 -1.1937  0.0715  0.1263
12250TIP3    H258242   1.266   0.537   1.390 -1.1605  0.2609  0.0829
12251TIP3   OH258243   5.211   2.185   5.801  0.2991  0.7800  0.0590
12251TIP3    H158244   5.301   2.152   5.808  0.1261  0.3629  0.3469
12251TIP3    H258245   5.181   2.155   5.716 -0.6571 -1.8380  1.2491
12252TIP3   OH258246   5.450   0.927  15.800 -0.1752 -0.1450  0.0858
12252TIP3    H158247   5.407   0.899  15.719 -2.3008  1.6798  0.5314
12252TIP3    H258248   5.497   1.007  15.776  1.1148 -0.8794  0.1334
12253TIP3   OH258249   4.009   1.199   0.787 -0.4305  0.2859  0.3921
12253TIP3    H158250   4.032   1.292   0.778 -0.4556  0.1386 -1.4478
12253TIP3    H258251   3.943   1.184   0.718 -1.7137 -0.6815  1.8058
12254TIP3   OH258252   0.983   5.499  11.255 -0.3754 -0.5996 -0.3582
12254TIP3    H158253   0.960   5.561  11.186 -0.7034 -1.5166 -1.0787
12254TIP3    H258254   1.001   5.554  11.331 -1.4356  0.3382 -0.7680
12255TIP3   OH258255   1.416   2.298   0.202 -0.6969  0.1056 -0.4915
12255TIP3    H158256   1.418   2.370   0.265  0.4972 -0.7989  0.5222
12255TIP3    H258257   1.326   2.264   0.207 -0.3158 -0.6733  1.5763
12256TIP3   OH258258   2.283   4.166  12.806  0.2389 -0.6076  0.2610
12256TIP3    H158259   2.221   4.200  12.870  0.4715 -0.0441  0.1900
12256TIP3    H258260   2.231   4.108  12.750  0.0775 -1.2538  1.0797
12257TIP3   OH258261   3.542   0.210  13.138 -0.3699  0.1913 -0.2268
12257TIP3    H158262   3.489   0.131  13.146 -1.8589  1.0408 -1.5866
12257TIP3    H258263   3.487   0.280  13.171  0.6362  0.8181  0.1622
12258TIP3   OH258264   5.972   4.611   1.386 -0.6605 -0.2706 -0.0305
12258TIP3    H158265   5.933   4.547   1.326  1.0269  1.2069 -2.7881
12258TIP3    H258266   5.923   4.692   1.370  0.5769  0.4408 -0.2603
12259TIP3   OH258267   5.466   3.693   0.968  0.1810 -0.1332  0.4497
12259TIP3    H158268   5.399   3.727   0.909 -1.5325 -0.9060  1.9288
12259TIP3    H258269   5.485   3.766   1.027  0.9237  0.1972 -0.1793
12260TIP3   OH258270   6.472   5.740  13.170  0.4307  0.3369 -0.2997
12260TIP3    H158271   6.550   5.793  13.183 -1.6516  3.2840  0.8085
12260TIP3    H258272   6.444   5.716  13.258 -0.0805 -0.3797 -0.6533
12261TIP3   OH258273   6.347   6.500   3.868  0.6118  0.1875 -0.4809
12261TIP3    H158274   6.316   6.570   3.811 -2.5652 -0.4905  0.3083
12261TIP3    H258275   6.307   6.421   3.832  1.9082 -0.8364  0.2808
12262TIP3   OH258276   5.513   6.691   4.260 -0.6343 -0.2156 -0.4094
12262TIP3    H158277   5.430   6.725   4.227 -1.4511 -0.9057  0.8540
12262TIP3    H258278   5.487   6.620   4.319  0.8606 -0.4209  0.0134
12263TIP3   OH258279   4.319   2.292  11.276  0.3243 -0.2600 -0.0688
12263TIP3    H158280   4.307   2.351  11.202 -0.5777 -0.7342 -0.3149
12263TIP3    H258281   4.242   2.308  11.332 -0.1752 -1.5267 -0.3722
12264TIP3   OH258282   6.728   0.271   6.602 -0.0746 -0.3924  0.0331
12264TIP3    H158283   6.641   0.237   6.584  0.1406 -0.9871  0.0987
12264TIP3    H258284   6.715   0.364   6.621 -0.5606 -0.2167 -1.1028
12265TIP3   OH258285   1.689   0.232   4.255  0.1770 -1.0697 -1.0205
12265TIP3    H158286   1.703   0.237   4.160  0.1251 -0.4837 -1.0041
12265TIP3    H258287   1.741   0.157   4.284  0.9590 -0.6700 -1.3741
12266TIP3   OH258288   5.085   4.256   1.242  0.3136 -0.2655  0.2416
12266TIP3    H158289   5.023   4.191   1.274 -0.0316 -2.2613 -4.1509
12266TIP3    H258290   5.171   4.225   1.273  0.0853 -2.5814 -1.3060
12267TIP3   OH258291   5.910   4.757   0.626 -0.3672 -0.4395  0.3283
12267TIP3    H158292   5.916   4.678   0.574 -1.8365  1.2569 -2.5277
12267TIP3    H258293   5.818   4.764   0.650 -0.5358  1.1503 -0.7119
12268TIP3   OH258294   2.671   1.821  16.117 -0.2204 -0.0166  0.6415
12268TIP3    H158295   2.600   1.773  16.160 -1.6936  0.4152 -1.2448
12268TIP3    H258296   2.628   1.895  16.075  1.1269 -0.4778 -1.6409
12269TIP3   OH258297   0.262   2.306  14.582  0.0619  0.0325  0.1201
12269TIP3    H158298   0.349   2.336  14.609  0.8538 -1.1482 -1.0091
12269TIP3    H258299   0.247   2.227  14.634  0.4518 -0.7677 -0.9663
12270TIP3   OH258300   1.249   4.946  13.580  0.3476  0.5443  0.4889
12270TIP3    H158301   1.158   4.963  13.555  0.3437 -1.3583 -0.8912
12270TIP3    H258302   1.301   4.985  13.509  0.3746 -3.7857 -2.0059
12271TIP3   OH258303   6.050   5.080   1.355  0.2212  0.2862 -0.1124
12271TIP3    H158304   6.066   4.994   1.316  0.4269 -1.2260  3.1133
12271TIP3    H258305   6.021   5.060   1.444  0.9101  3.5947  0.8986
12272TIP3   OH258306   1.093   1.152  17.155 -0.6735 -0.1819  0.2686
12272TIP3    H158307   1.148   1.182  17.227 -0.9706 -1.6384  1.1187
12272TIP3    H258308   1.021   1.215  17.151 -0.9952 -0.4498  1.6637
12273TIP3   OH258309   4.469   0.382   0.505 -0.6005 -0.2486 -0.2975
12273TIP3    H158310   4.524   0.369   0.428 -2.7964  0.4583 -2.0256
12273TIP3    H258311   4.465   0.296   0.547  2.1661 -0.2144  0.1333
12274TIP3   OH258312   5.487   0.246   1.988  0.0957  0.2765 -0.2967
12274TIP3    H158313   5.494   0.157   2.023 -3.2068 -1.1420 -2.9030
12274TIP3    H258314   5.472   0.301   2.065 -1.5264 -1.9811  1.0712
12275TIP3   OH258315   5.201   6.073  16.096  0.3801  0.3951  0.3794
12275TIP3    H158316   5.141   5.999  16.087 -1.4213  1.8896 -0.3315
12275TIP3    H258317   5.278   6.048  16.045  0.1870 -1.3871  0.9463
12276TIP3   OH258318   5.881   0.869   2.612  0.7581  0.5027  0.5186
12276TIP3    H158319   5.805   0.812   2.627  0.4634  0.9476  0.7024
12276TIP3    H258320   5.855   0.954   2.646  1.5090  0.5493  0.9897
12277TIP3   OH258321   5.599   4.617  13.930 -0.0454  0.2681 -0.3742
12277TIP3    H158322   5.640   4.703  13.935 -0.1079  0.2104  1.2394
12277TIP3    H258323   5.508   4.633  13.955  0.2642 -0.4804  1.2887
12278TIP3   OH258324   4.139   0.311   5.832  0.5081  0.1935  0.1515
12278TIP3    H158325   4.070   0.245   5.834 -1.2038  1.8935 -0.3293
12278TIP3    H258326   4.102   0.385   5.881  3.1237  0.1351  2.3645
12279TIP3   OH258327   4.371   6.139  16.072 -0.3689 -0.3214  0.1958
12279TIP3    H158328   4.402   6.211  16.128 -0.6813  0.1691 -0.2582
12279TIP3    H258329   4.379   6.173  15.983 -2.0205 -0.2566  0.0526
12280TIP3   OH258330   5.868   2.146  14.789 -0.3367 -0.1239  0.5028
12280TIP3    H158331   5.926   2.092  14.736  2.4232  1.2756  2.0159
12280TIP3    H258332   5.782   2.103  14.781  0.9703 -2.5286 -1.3574
12281TIP3   OH258333   3.734   1.622   3.411 -0.3383 -0.1995  0.2224
12281TIP3    H158334   3.639   1.607   3.417 -0.6052  1.0378 -0.7511
12281TIP3    H258335   3.750   1.699   3.466  0.0787 -0.2961  0.2384
12282TIP3   OH258336   2.299   0.163   3.536 -0.4937 -0.3380 -0.0230
12282TIP3    H158337   2.300   0.256   3.558  0.7057 -0.6954  1.5781
12282TIP3    H258338   2.246   0.157   3.457 -0.6186  1.6989 -0.1177
12283TIP3   OH258339   4.863   5.135  13.589 -0.1548  0.3256 -0.2088
12283TIP3    H158340   4.930   5.183  13.637  0.6309 -0.1007 -0.8591
12283TIP3    H258341   4.813   5.089  13.657 -0.3163  1.3010  0.3384
12284TIP3   OH258342   6.259   5.148  16.627 -0.2972  0.0940  0.6896
12284TIP3    H158343   6.213   5.231  16.640  0.2105  0.5882 -0.5456
12284TIP3    H258344   6.339   5.157  16.678  0.3059  0.8541 -0.3475
12285TIP3   OH258345   3.811   5.418   5.458 -0.0702 -0.1648 -0.6176
12285TIP3    H158346   3.885   5.391   5.513 -0.2528 -0.4483 -0.5115
12285TIP3    H258347   3.745   5.448   5.520  0.5125  1.4959 -0.7749
12286TIP3   OH258348   0.572   5.216  15.882 -0.4333  0.2260  0.8218
12286TIP3    H158349   0.572   5.311  15.869  0.0089  0.0595 -0.4863
12286TIP3    H258350   0.617   5.204  15.966 -2.1822  1.2685  1.9341
12287TIP3   OH258351   5.395   2.302  16.984 -0.0214 -0.2504 -0.0907
12287TIP3    H158352   5.455   2.248  17.036  2.0284  1.5412 -0.5432
12287TIP3    H258353   5.432   2.302  16.896 -1.5829 -0.4108 -0.7776
12288TIP3   OH258354   1.524   4.014  11.916  0.0560  0.1033  0.1298
12288TIP3    H158355   1.551   4.105  11.903  0.3188 -0.2950 -2.5450
12288TIP3    H258356   1.606   3.965  11.914 -0.1249 -0.2455  1.1445
12289TIP3   OH258357   6.379   3.432   4.148 -0.2470  0.4323 -0.2930
12289TIP3    H158358   6.292   3.469   4.161  0.2464  2.1468 -1.6794
12289TIP3    H258359   6.364   3.356   4.091 -0.9699  0.0000  0.4709
12290TIP3   OH258360   3.429   1.862  12.114 -0.0381  0.6619 -0.1045
12290TIP3    H158361   3.489   1.861  12.188 -0.7795  4.6485  0.6677
12290TIP3    H258362   3.476   1.908  12.045 -0.5069 -0.2857 -1.0680
12291TIP3   OH258363   3.731   1.231  14.911 -0.5273 -0.9563 -0.2313
12291TIP3    H158364   3.686   1.149  14.889  0.8519 -2.1524  1.3303
12291TIP3    H258365   3.743   1.275  14.827 -0.4600 -2.7790 -1.1998
12292TIP3   OH258366   1.079   5.260   5.380  0.2441 -0.5691  0.5240
12292TIP3    H158367   1.156   5.286   5.330  1.4985 -0.6620  2.3557
12292TIP3    H258368   1.012   5.323   5.355  1.2452  0.2238 -0.2167
12293TIP3   OH258369   5.432   1.996   1.385 -0.1052  0.3258 -0.3376
12293TIP3    H158370   5.491   2.032   1.319  0.1854  0.2248 -0.1338
12293TIP3    H258371   5.411   2.070   1.441 -1.6221  0.7849 -1.4626
12294TIP3   OH258372   1.776   2.399   2.973  0.2804  0.0474  0.2546
12294TIP3    H158373   1.729   2.392   3.057  0.1459 -1.4027  0.0666
12294TIP3    H258374   1.765   2.313   2.932  2.3827 -0.0272 -0.1879
12295TIP3   OH258375   4.107   2.495   0.321 -0.2365  0.1377 -0.0984
12295TIP3    H158376   4.171   2.435   0.283  0.5266  0.2365  0.9998
12295TIP3    H258377   4.026   2.445   0.325  0.0859 -0.4055 -0.3429
12296TIP3   OH258378   0.803   6.073   0.033 -0.5081  0.3927  0.6814
12296TIP3    H158379   0.868   6.090  -0.036  1.1928  0.0040  2.1638
12296TIP3    H258380   0.732   6.028  -0.013 -0.0841  1.4868 -1.1095
12297TIP3   OH258381   3.112   6.681   5.515  0.7193 -0.0091 -0.4417
12297TIP3    H158382   3.113   6.776   5.508 -0.9412 -0.1169 -2.7159
12297TIP3    H258383   3.200   6.654   5.491  1.5219  0.9695  1.2689
12298TIP3   OH258384   4.067   6.277   1.467  0.2636 -0.8053 -0.1537
12298TIP3    H158385   4.107   6.250   1.549 -1.3950 -1.8803  0.2981
12298TIP3    H258386   4.070   6.199   1.411  1.6989  0.0063 -1.2714
12299TIP3   OH258387   5.290   4.029   3.790  0.1193  0.0198  0.5118
12299TIP3    H158388   5.313   3.953   3.736  1.2566  0.0630  0.9208
12299TIP3    H258389   5.295   4.104   3.731 -0.5784 -0.1810  0.2076
12300TIP3   OH258390   6.509   0.897   2.911 -0.4673 -0.0829  0.4588
12300TIP3    H158391   6.576   0.876   2.846  1.4501  0.3578  2.2861
12300TIP3    H258392   6.478   0.812   2.942 -0.7239 -0.2809 -0.3163
12301TIP3   OH258393   2.152   4.382  14.991  0.0630 -0.4949 -0.2182
12301TIP3    H158394   2.156   4.290  14.964 -0.8611 -0.5165 -0.3111
12301TIP3    H258395   2.169   4.381  15.085 -0.1431 -0.7824 -0.1835
12302TIP3   OH258396   5.473   5.958   5.229  0.4359 -0.7141  0.1637
12302TIP3    H158397   5.534   6.018   5.273 -0.3723  0.7040 -0.5873
12302TIP3    H258398   5.392   5.965   5.279  0.0884 -0.5311 -0.4163
12303TIP3   OH258399   0.493   2.025  12.625  0.3395 -0.0345  0.2150
12303TIP3    H158400   0.561   2.053  12.564  0.5898  0.8724  0.8906
12303TIP3    H258401   0.453   1.948  12.584  2.4099 -1.1557  0.2751
12304TIP3   OH258402   0.518   3.465  16.795  0.2879 -0.4630 -0.0170
12304TIP3    H158403   0.589   3.521  16.828  1.6574 -0.6326 -2.5840
12304TIP3    H258404   0.457   3.526  16.754  0.0261 -0.5195  0.2933
12305TIP3   OH258405   1.794   3.641  11.078 -0.2811 -0.0044  0.0987
12305TIP3    H158406   1.798   3.720  11.023  0.0816  0.4552  0.7729
12305TIP3    H258407   1.700   3.627  11.092 -0.3022  1.2943  1.3585
12306TIP3   OH258408   6.111   4.655  11.365  0.0787 -0.2103  0.2522
12306TIP3    H158409   6.026   4.677  11.402  1.2721  0.7561  2.5066
12306TIP3    H258410   6.091   4.613  11.281 -2.4959  2.2783 -0.4262
12307TIP3   OH258411   3.334   1.646  15.298 -0.0389  0.7542 -0.3217
12307TIP3    H158412   3.394   1.624  15.369  2.3412  1.2050 -2.1092
12307TIP3    H258413   3.289   1.725  15.328  1.5255  1.4016  0.3730
12308TIP3   OH258414   5.752   0.664   4.180 -0.3253  0.0731  0.2682
12308TIP3    H158415   5.802   0.605   4.123 -0.6765  0.1217 -0.0953
12308TIP3    H258416   5.677   0.690   4.127 -0.1153  0.9360  0.3936
12309TIP3   OH258417   3.083   2.391   2.373 -0.1977 -0.4282 -0.5842
12309TIP3    H158418   3.122   2.356   2.292 -0.3859 -1.0058 -0.4218
12309TIP3    H258419   3.080   2.317   2.433  0.6343  0.1690  0.2173
12310TIP3   OH258420   5.575   3.041  10.414 -0.2011  0.0242  0.4529
12310TIP3    H158421   5.611   3.096  10.484 -1.1015 -1.9068  2.4637
12310TIP3    H258422   5.509   3.096  10.373 -1.7100  0.1882  3.0100
12311TIP3   OH258423   4.591   2.248  13.176  0.5108 -0.2566  0.3813
12311TIP3    H158424   4.591   2.338  13.143  2.0500 -0.9486 -1.5937
12311TIP3    H258425   4.668   2.208  13.136 -0.5671 -2.6741  0.6676
12312TIP3   OH258426   3.673   4.132  13.244 -0.0480 -0.2318 -0.0280
12312TIP3    H158427   3.623   4.113  13.323 -0.4469 -1.3909 -0.5519
12312TIP3    H258428   3.696   4.046  13.208  2.0885  0.2793  0.0429
12313TIP3   OH258429   1.859   6.792   4.533 -0.7587 -0.2242 -0.7963
12313TIP3    H158430   1.852   6.768   4.440 -1.6544 -1.1304 -0.5046
12313TIP3    H258431   1.926   6.733   4.568 -1.4649 -0.8736 -0.5420
12314TIP3   OH258432   4.372   2.686  16.046 -0.1163  0.1883 -0.4845
12314TIP3    H158433   4.432   2.614  16.065 -0.3564  0.7185  2.5021
12314TIP3    H258434   4.289   2.643  16.022  0.5444 -0.5032 -1.5996
12315TIP3   OH258435   3.188   0.376   4.616 -0.1550  0.9302  0.5845
12315TIP3    H158436   3.145   0.331   4.544 -1.0998  0.9213  1.1538
12315TIP3    H258437   3.246   0.311   4.655 -0.7099  0.5284  0.7298
12316TIP3   OH258438   1.645   6.749  12.191 -0.4752 -0.3185  0.6987
12316TIP3    H158439   1.564   6.702  12.170  0.5176 -1.1271 -1.4229
12316TIP3    H258440   1.684   6.699  12.263 -1.0513 -0.8749  0.6296
12317TIP3   OH258441   2.317   2.266  11.267  0.1554 -0.2621 -0.3294
12317TIP3    H158442   2.222   2.269  11.280 -0.0178 -2.1596 -1.0291
12317TIP3    H258443   2.352   2.327  11.333 -1.3863 -1.3911  1.5936
12318TIP3   OH258444   4.555   3.656  14.817  0.2053 -0.2779 -0.8004
12318TIP3    H158445   4.570   3.715  14.891 -0.0115 -0.0996 -0.8972
12318TIP3    H258446   4.476   3.607  14.841  1.0170 -1.3187 -0.2250
12319TIP3   OH258447   1.495   5.611   0.865  0.2989  0.1448 -0.0343
12319TIP3    H158448   1.555   5.542   0.894  0.8860  0.0987 -1.3397
12319TIP3    H258449   1.549   5.689   0.861 -0.2245  0.5564  0.8319
12320TIP3   OH258450   1.655   1.314   2.788 -0.8301  0.6840 -0.6646
12320TIP3    H158451   1.615   1.352   2.866 -1.6430 -0.8372 -0.3117
12320TIP3    H258452   1.584   1.264   2.747  0.0525  0.0258 -1.4220
12321TIP3   OH258453   5.582   3.225   4.962 -0.3444  0.1560 -0.5013
12321TIP3    H158454   5.607   3.236   4.870 -1.1699  0.2791 -0.7124
12321TIP3    H258455   5.492   3.194   4.959 -0.8897  1.5999  0.2937
12322TIP3   OH258456   0.457   3.955  13.825 -0.4352 -0.3441  0.4010
12322TIP3    H158457   0.551   3.941  13.813 -0.6059 -0.8265 -0.3992
12322TIP3    H258458   0.450   4.001  13.909  0.4518 -0.9886  0.8314
12323TIP3   OH258459   5.012   2.939  10.626 -0.3083 -0.6293 -0.3464
12323TIP3    H158460   5.074   2.977  10.564  0.0167 -0.7301 -0.0824
12323TIP3    H258461   5.062   2.874  10.674  0.1929  1.3599  1.9294
12324TIP3   OH258462   0.007   0.598  13.428  0.2912 -0.1197  0.3663
12324TIP3    H158463   0.036   0.630  13.513  1.2726  1.2199 -0.4465
12324TIP3    H258464   0.081   0.614  13.370 -0.7639 -0.0197 -0.9801
12325TIP3   OH258465   1.150   5.906  16.898  0.4895 -0.0826 -0.0913
12325TIP3    H158466   1.069   5.886  16.946 -0.3431  1.4523 -0.8258
12325TIP3    H258467   1.141   5.858  16.816  1.8392 -2.5757  1.1592
12326TIP3   OH258468   0.627   3.260   2.880 -0.2488 -0.0664  0.2283
12326TIP3    H158469   0.579   3.181   2.905  0.9964 -1.5476 -1.9245
12326TIP3    H258470   0.615   3.319   2.954 -2.3034 -1.7671  1.3183
12327TIP3   OH258471   1.415   3.279   2.396 -0.1477 -0.4570 -0.2977
12327TIP3    H158472   1.376   3.340   2.459 -1.4152 -2.0660  0.5096
12327TIP3    H258473   1.506   3.269   2.425 -0.6558 -0.9908  1.1266
12328TIP3   OH258474   6.627   6.453   1.516 -0.0646  0.2636  0.1548
12328TIP3    H158475   6.551   6.483   1.566  0.6290  2.2056  0.0854
12328TIP3    H258476   6.682   6.408   1.581  0.2188  1.6462  0.8848
12329TIP3   OH258477   3.811   3.667   2.942  0.2895 -0.5591 -0.4420
12329TIP3    H158478   3.886   3.653   2.884  1.0420 -1.2358  0.6624
12329TIP3    H258479   3.767   3.583   2.945 -0.0988 -0.3575 -0.5208
12330TIP3   OH258480   0.805   0.097  15.031 -0.2590  0.4002  0.1325
12330TIP3    H158481   0.718   0.097  15.072 -0.1129 -0.4621  0.4718
12330TIP3    H258482   0.859   0.148  15.090 -0.1102 -0.6253  0.8955
12331TIP3   OH258483   5.933   1.104  14.562  0.2940  0.2773 -0.3858
12331TIP3    H158484   5.961   1.195  14.572  0.5828  0.2569 -0.9937
12331TIP3    H258485   5.859   1.095  14.622  0.3872  0.8560 -0.1817
12332TIP3   OH258486   1.431   0.236  12.925 -0.1641 -0.0985 -0.3940
12332TIP3    H158487   1.340   0.250  12.899 -0.5602 -0.7364  0.5815
12332TIP3    H258488   1.427   0.160  12.984  1.1402 -0.7928 -1.1828
12333TIP3   OH258489   1.483   6.568   5.277 -0.1031  1.2671  0.5013
12333TIP3    H158490   1.564   6.520   5.291 -0.7421 -0.0053 -0.1068
12333TIP3    H258491   1.510   6.649   5.234  0.7487  0.4450 -0.5204
12334TIP3   OH258492   0.120   5.095  14.740 -0.1202  0.2246  0.2658
12334TIP3    H158493   0.035   5.109  14.782  0.3943  0.7762  1.1421
12334TIP3    H258494   0.183   5.107  14.811  0.7695  1.1738 -0.6772
12335TIP3   OH258495   1.526   1.865   1.981 -0.3664  0.1139 -0.5529
12335TIP3    H158496   1.606   1.906   1.946 -0.9590  0.7995 -1.1261
12335TIP3    H258497   1.464   1.868   1.908 -1.9809  2.5766  0.8292
12336TIP3   OH258498   4.791   2.132  12.272  0.1910  0.6867  0.0393
12336TIP3    H158499   4.819   2.060  12.216 -1.0667 -1.3474  1.9685
12336TIP3    H258500   4.806   2.101  12.362  1.2866  3.5063  0.8887
12337TIP3   OH258501   0.697   3.926   1.432 -0.4590 -0.5366  0.4008
12337TIP3    H158502   0.777   3.903   1.384  0.5436 -1.3892  2.4059
12337TIP3    H258503   0.642   3.848   1.426  0.5570 -1.4461  2.3749
12338TIP3   OH258504   3.428   1.980   2.227  0.9423  0.7032 -0.4442
12338TIP3    H158505   3.385   1.949   2.148  0.8234  0.3635 -0.2444
12338TIP3    H258506   3.514   1.938   2.226  0.7868  0.3782 -0.1816
12339TIP3   OH258507   2.939   1.502   0.864  0.2813  0.3970  0.0419
12339TIP3    H158508   2.964   1.430   0.922  0.4997  1.0031  0.6970
12339TIP3    H258509   2.946   1.465   0.776 -1.9487 -1.1187  0.4625
12340TIP3   OH258510   2.902   4.818   5.273 -0.2847  0.0579 -0.2343
12340TIP3    H158511   2.978   4.875   5.290 -1.3962  1.6526 -0.4882
12340TIP3    H258512   2.894   4.765   5.352  1.4424 -0.5411 -0.4309
12341TIP3   OH258513   6.295   1.108   3.961  0.3208 -0.3741  0.2222
12341TIP3    H158514   6.321   1.165   4.033  1.5754  1.2826 -1.5023
12341TIP3    H258515   6.236   1.161   3.908  2.7471 -0.0853 -2.2624
12342TIP3   OH258516   5.493   4.247   1.081 -0.0125  0.0876  0.4185
12342TIP3    H158517   5.563   4.256   1.016 -0.3677  0.8045  0.1151
12342TIP3    H258518   5.523   4.299   1.156  0.2516 -0.4685  0.6963
12343TIP3   OH258519   2.229   3.809   1.569 -0.0511 -0.2127 -0.3407
12343TIP3    H158520   2.231   3.721   1.530 -1.1031 -1.0782  1.4900
12343TIP3    H258521   2.317   3.821   1.605  0.3061 -0.2201 -1.1890
12344TIP3   OH258522   0.864   0.426  15.346 -0.2240 -0.1713  0.1466
12344TIP3    H158523   0.836   0.339  15.375 -2.5882 -0.5712 -3.0494
12344TIP3    H258524   0.955   0.414  15.319 -0.0279 -1.2423  1.1935
12345TIP3   OH258525   1.078   5.296  15.810 -0.1117  0.1489  0.0613
12345TIP3    H158526   1.143   5.355  15.773 -0.6966 -0.4370 -2.0188
12345TIP3    H258527   1.019   5.352  15.860 -0.9287  1.4497 -2.2593
12346TIP3   OH258528   2.975   1.131  14.097  0.3570  0.5216 -0.1273
12346TIP3    H158529   2.980   1.107  14.189  1.2652 -0.1979 -0.3601
12346TIP3    H258530   3.031   1.209  14.089 -2.7239  2.9385  0.6619
12347TIP3   OH258531   5.686   6.224   1.599 -0.1063 -0.0164 -0.4781
12347TIP3    H158532   5.657   6.162   1.533 -0.8126  0.7722 -0.9207
12347TIP3    H258533   5.722   6.170   1.670 -2.5255 -1.0215  0.0400
12348TIP3   OH258534   2.646   2.701  12.586 -0.5313 -0.0389 -0.2156
12348TIP3    H158535   2.685   2.743  12.509 -1.9381  0.6435 -0.5763
12348TIP3    H258536   2.689   2.616  12.591  0.6448  0.4975 -0.8783
12349TIP3   OH258537   0.217   6.085  15.734 -0.2135 -0.7101  0.6627
12349TIP3    H158538   0.251   6.079  15.824 -2.0724 -2.9601  1.2472
12349TIP3    H258539   0.242   6.002  15.694  0.2896  0.1429 -0.8296
12350TIP3   OH258540   6.581   5.001   1.584 -0.4811 -0.5067 -0.6663
12350TIP3    H158541   6.603   4.931   1.645  0.7920  0.4437 -0.0108
12350TIP3    H258542   6.632   4.981   1.505  0.5316  0.1253 -0.1796
12351TIP3   OH258543   2.213   2.587  16.991 -1.0556 -0.1123  0.0979
12351TIP3    H158544   2.248   2.676  17.004 -0.5461 -0.4773  1.3574
12351TIP3    H258545   2.280   2.530  17.029 -1.1521 -1.0734 -1.1537
12352TIP3   OH258546   6.018   1.716   1.289 -0.4562  0.1867  0.1047
12352TIP3    H158547   6.082   1.712   1.360 -0.8956  1.1382  0.5596
12352TIP3    H258548   5.971   1.633   1.295 -0.3880  0.1995  0.8376
12353TIP3   OH258549   2.420   4.503   5.726 -0.3150 -0.2527  0.3893
12353TIP3    H158550   2.433   4.485   5.633 -1.1875  0.2377  0.1569
12353TIP3    H258551   2.443   4.422   5.770  0.0359 -0.5136 -0.2626
12354TIP3   OH258552   3.906   4.565   3.335  0.2283 -0.4130  0.4276
12354TIP3    H158553   3.993   4.571   3.375  0.9506  0.5052 -1.1986
12354TIP3    H258554   3.910   4.487   3.281  0.2187 -0.0918 -0.0412
12355TIP3   OH258555   5.137   2.813  11.716 -0.2020 -0.3006  0.2743
12355TIP3    H158556   5.221   2.860  11.715 -0.8451  0.8563 -0.5430
12355TIP3    H258557   5.074   2.876  11.680 -1.1222 -1.6985 -0.5995
12356TIP3   OH258558   2.260   2.437  15.781  0.0519 -0.1700 -0.1377
12356TIP3    H158559   2.174   2.477  15.791 -0.3527 -0.8411 -0.8877
12356TIP3    H258560   2.296   2.435  15.870  0.1174  1.9007 -0.0963
12357TIP3   OH258561   0.666   2.165  12.066 -0.0726 -0.2300 -1.0468
12357TIP3    H158562   0.677   2.102  12.138 -4.5387  2.6515  2.4320
12357TIP3    H258563   0.590   2.133  12.018 -1.9980  2.0224  0.3853
12358TIP3   OH258564   4.169   1.972   4.919  0.3576  0.0146  0.4379
12358TIP3    H158565   4.140   1.909   4.853  1.4518 -0.7503  0.6755
12358TIP3    H258566   4.127   1.942   5.000 -0.8272  0.8388  0.1381
12359TIP3   OH258567   6.235   5.647   0.941 -0.2094  0.6986 -0.0997
12359TIP3    H158568   6.210   5.734   0.912 -0.7976  1.1024  1.5933
12359TIP3    H258569   6.190   5.635   1.024 -0.3110 -1.3047 -0.4144
12360TIP3   OH258570   3.234   0.340   5.708  0.3050 -0.0494  0.0502
12360TIP3    H158571   3.208   0.347   5.616 -1.7235 -0.1411  0.5896
12360TIP3    H258572   3.169   0.391   5.755 -0.2975 -2.2573  1.7070
12361TIP3   OH258573   2.906   1.303   1.542  0.3874  0.1700  0.9238
12361TIP3    H158574   2.962   1.239   1.585  0.5349  0.0843  0.6088
12361TIP3    H258575   2.958   1.333   1.467  0.0653  0.1905  0.7090
12362TIP3   OH258576   1.663   5.786  14.426  0.1722 -0.0057 -0.6764
12362TIP3    H158577   1.602   5.859  14.416  1.4358  1.5704  2.2659
12362TIP3    H258578   1.735   5.807  14.366 -0.3076  0.2487 -1.1656
12363TIP3   OH258579   4.951   5.939  14.986  0.2665  0.2542 -0.0013
12363TIP3    H158580   4.998   5.868  15.030 -0.6392  1.4282  2.9460
12363TIP3    H258581   4.858   5.921  15.004  0.0237  2.1228  0.6578
12364TIP3   OH258582   6.074   0.305   3.807 -0.5660 -0.1572 -0.4142
12364TIP3    H158583   6.118   0.355   3.875 -0.7077 -2.0323  1.1167
12364TIP3    H258584   6.053   0.369   3.739 -2.0036  2.1125  2.0688
12365TIP3   OH258585   6.239   1.002   1.706 -0.2077 -0.2026 -0.0114
12365TIP3    H158586   6.267   1.052   1.782 -0.9840  2.3456 -1.3283
12365TIP3    H258587   6.241   0.910   1.734  1.0970  0.5803  2.5239
12366TIP3   OH258588   5.705   5.042  12.255  0.1933 -0.3967 -0.0723
12366TIP3    H158589   5.752   5.108  12.204  0.9403 -2.2633 -1.8799
12366TIP3    H258590   5.638   5.009  12.195 -1.5021  0.1434  1.4885
12367TIP3   OH258591   1.002   3.640  14.083  0.7020 -0.6251  0.0658
12367TIP3    H158592   0.911   3.637  14.056  0.6701  0.9489 -0.0410
12367TIP3    H258593   1.051   3.616  14.005  0.3806 -1.8607  0.2270
12368TIP3   OH258594   2.141   1.256  15.492 -0.3964 -0.0971  0.2964
12368TIP3    H158595   2.178   1.171  15.471  0.6769  0.5360 -0.4283
12368TIP3    H258596   2.116   1.294  15.407  0.7356  1.0196  0.4474
12369TIP3   OH258597   5.108   6.603   2.681  0.1078 -0.5166  0.2222
12369TIP3    H158598   5.077   6.543   2.749 -0.1254  0.1806  0.7390
12369TIP3    H258599   5.101   6.552   2.600 -1.0311 -0.8602  0.5191
12370TIP3   OH258600   1.114   3.888   4.857  0.6292  0.0456  0.4409
12370TIP3    H158601   1.174   3.843   4.797  0.4965  1.3524 -0.6900
12370TIP3    H258602   1.051   3.930   4.800 -1.0166 -0.7957  1.6066
12371TIP3   OH258603   1.978   4.763   3.332  0.0283 -0.4453  0.2921
12371TIP3    H158604   1.921   4.831   3.298 -0.4658 -1.0494 -0.1102
12371TIP3    H258605   1.998   4.790   3.422  0.2640  0.4844 -0.0420
12372TIP3   OH258606   3.134   0.989   0.932  0.5856  0.1590  0.0219
12372TIP3    H158607   3.134   0.902   0.893  1.4868 -0.3320  1.0632
12372TIP3    H258608   3.085   0.979   1.014 -0.0641  0.8333 -0.2803
12373TIP3   OH258609   2.114   0.920  13.389 -0.4691  0.1165  0.9400
12373TIP3    H158610   2.145   0.986  13.328  1.0281  0.1272  1.6908
12373TIP3    H258611   2.019   0.920  13.379 -0.3675  1.3917 -0.0638
12374TIP3   OH258612   1.424   1.205  14.802  0.5107  0.1986 -0.0524
12374TIP3    H158613   1.467   1.222  14.718 -0.0963  0.7072 -0.2610
12374TIP3    H258614   1.427   1.289  14.848  2.9128 -0.6206  1.4059
12375TIP3   OH258615   6.601   4.652  11.359 -0.1744 -0.2118 -0.0886
12375TIP3    H158616   6.686   4.652  11.315 -0.7463 -0.2737 -1.2151
12375TIP3    H258617   6.558   4.572  11.326 -1.1505  0.4681 -0.4951
12376TIP3   OH258618   1.436   2.569  13.318 -0.3321  0.3437 -0.4937
12376TIP3    H158619   1.433   2.615  13.402  0.8342 -2.2380  1.0372
12376TIP3    H258620   1.520   2.593  13.279  0.3724 -0.6133  0.4047
12377TIP3   OH258621   4.389   5.233   5.145 -0.1228 -0.1291  0.1623
12377TIP3    H158622   4.297   5.257   5.150  0.1932  1.0107  0.8429
12377TIP3    H258623   4.429   5.278   5.220  1.1229  0.0538 -0.6004
12378TIP3   OH258624   3.678   0.372   0.704 -0.0256  0.0149  0.4644
12378TIP3    H158625   3.662   0.282   0.733  0.2382 -0.0490  0.4084
12378TIP3    H258626   3.748   0.365   0.639 -0.9866  0.0826 -0.6176
12379TIP3   OH258627   2.480   2.318   4.328 -0.0012 -0.2998 -1.1820
12379TIP3    H158628   2.538   2.315   4.403 -0.5516 -1.3993 -0.7926
12379TIP3    H258629   2.524   2.377   4.266  0.3648  0.7462  0.0509
12380TIP3   OH258630   2.891   6.672  12.058 -0.0490  0.8806  0.3364
12380TIP3    H158631   2.801   6.648  12.038 -0.1611  0.7278  0.9951
12380TIP3    H258632   2.924   6.712  11.978  0.6907 -2.9353 -1.3558
12381TIP3   OH258633   4.863   2.152  17.055  0.3855  0.1139 -0.7188
12381TIP3    H158634   4.784   2.145  17.001  0.5117 -0.1968 -0.8624
12381TIP3    H258635   4.931   2.109  17.004  0.3687 -0.7303 -0.0542
12382TIP3   OH258636   4.503   5.645  12.744 -0.7183  0.7921  0.1573
12382TIP3    H158637   4.567   5.698  12.696 -1.2833 -0.1892 -1.7429
12382TIP3    H258638   4.553   5.605  12.815  0.0118  2.7374  0.7523
12383TIP3   OH258639   1.785   3.917  12.518  0.1921 -0.5498 -0.0015
12383TIP3    H158640   1.716   3.974  12.485  1.6556  0.7079 -0.9480
12383TIP3    H258641   1.758   3.897  12.608  0.2650  2.6299  0.7701
12384TIP3   OH258642   1.069   2.678  12.242  0.1142  0.2603  0.1090
12384TIP3    H158643   1.136   2.746  12.241 -0.1530  0.5116 -0.7090
12384TIP3    H258644   1.063   2.649  12.151  0.1500 -0.7823  0.4265
12385TIP3   OH258645   0.699   5.166  11.127  0.1593  0.5833 -0.5711
12385TIP3    H158646   0.780   5.213  11.107  1.5647 -0.8485  1.5921
12385TIP3    H258647   0.709   5.082  11.082  0.5949 -0.2153  0.9901
12386TIP3   OH258648   1.235   6.433   0.480 -0.4352  0.2242  0.4082
12386TIP3    H158649   1.231   6.343   0.513 -2.2470  0.6709  1.5343
12386TIP3    H258650   1.143   6.456   0.465  0.1757  0.9757 -2.4684
12387TIP3   OH258651   2.038   5.708   4.288 -0.0567 -0.2011 -0.5880
12387TIP3    H158652   2.071   5.686   4.201 -0.1946 -1.5465 -0.3022
12387TIP3    H258653   1.943   5.708   4.278 -0.0546  2.0419 -1.0057
12388TIP3   OH258654   2.371   3.011   4.282 -0.5026 -0.2318 -0.3840
12388TIP3    H158655   2.451   2.959   4.292 -1.5474 -1.8059  0.0703
12388TIP3    H258656   2.325   2.969   4.209 -0.9767  0.5852 -0.5571
12389TIP3   OH258657   3.485   2.693   3.725  0.2207  0.1657 -0.0463
12389TIP3    H158658   3.442   2.680   3.640  1.8170  0.4167 -0.9143
12389TIP3    H258659   3.578   2.690   3.705  0.6142  0.9957  1.5967
12390TIP3   OH258660   5.234   4.383   4.004  0.2475 -0.4176  0.0813
12390TIP3    H158661   5.205   4.425   4.085 -0.3601 -0.4109 -0.1421
12390TIP3    H258662   5.226   4.289   4.022  0.3314 -0.4209  0.1059
12391TIP3   OH258663   0.886   0.691   6.110 -0.5352 -0.2046  0.0935
12391TIP3    H158664   0.947   0.758   6.140  0.5271 -0.9326 -0.4164
12391TIP3    H258665   0.827   0.737   6.050 -0.3561  0.4588  0.4242
12392TIP3   OH258666   3.536   1.482   1.032 -0.1722  0.3427  0.3034
12392TIP3    H158667   3.566   1.478   0.942 -0.8203 -2.2888  0.1680
12392TIP3    H258668   3.616   1.488   1.085  0.2800 -0.2075 -0.3291
12393TIP3   OH258669   4.829   2.549   4.623  0.3337  0.3831 -0.0236
12393TIP3    H158670   4.864   2.633   4.655  2.0610 -0.2725 -0.0996
12393TIP3    H258671   4.892   2.522   4.555 -1.1112 -0.1748 -1.1535
12394TIP3   OH258672   4.132   1.385   3.952  0.4000  0.2029 -0.4474
12394TIP3    H158673   4.117   1.357   3.861  2.8003 -1.9117 -0.2353
12394TIP3    H258674   4.212   1.341   3.978  0.2486  1.5185  2.4362
12395TIP3   OH258675   2.971   3.176  16.269 -0.2830  1.0374  0.3477
12395TIP3    H158676   3.027   3.098  16.276  0.0729  1.4117  1.6564
12395TIP3    H258677   2.885   3.146  16.299 -0.3488  0.9466  0.0769
12396TIP3   OH258678   4.440   0.922  16.942  0.2305 -0.1354 -0.4642
12396TIP3    H158679   4.507   0.939  16.876  1.7328 -1.6501  0.6214
12396TIP3    H258680   4.409   0.833  16.923 -0.2616 -0.0806  0.0519
12397TIP3   OH258681   0.757   2.016   4.368  0.1882 -0.1205  0.4348
12397TIP3    H158682   0.778   2.010   4.461  0.5235  2.2203  0.5362
12397TIP3    H258683   0.750   1.925   4.339  1.3425 -0.8757  2.4503
12398TIP3   OH258684   2.611   3.656   5.317  0.4761  0.3593 -0.3287
12398TIP3    H158685   2.580   3.606   5.241 -0.4249 -1.5856  1.2571
12398TIP3    H258686   2.693   3.614   5.341 -1.2717 -1.7578  2.2353
12399TIP3   OH258687   0.656   1.957   4.030 -0.4322  0.5396 -0.3003
12399TIP3    H158688   0.684   1.867   4.020 -0.7645  0.3998  0.0247
12399TIP3    H258689   0.578   1.952   4.085  0.3330  1.1417  0.8595
12400TIP3   OH258690   4.560   3.175   1.834 -0.2259 -0.3878  0.4035
12400TIP3    H158691   4.525   3.262   1.818  0.2044 -0.5296 -1.3875
12400TIP3    H258692   4.539   3.157   1.926 -2.4146  0.6409  0.1374
12401TIP3   OH258693   5.236   6.056  14.170 -0.0751 -0.2405  0.1691
12401TIP3    H158694   5.328   6.055  14.146  0.0096  0.4637  0.4642
12401TIP3    H258695   5.234   6.021  14.259 -0.1526 -0.7639 -0.0373
12402TIP3   OH258696   3.524   4.758  11.455  0.5409 -0.0133  0.1470
12402TIP3    H158697   3.554   4.670  11.476  1.6020  0.4136  0.4991
12402TIP3    H258698   3.553   4.773  11.364 -1.9705 -0.9873 -0.8599
12403TIP3   OH258699   0.828   6.757   3.574  0.8453  0.1949 -0.2934
12403TIP3    H158700   0.777   6.740   3.494  0.3763 -0.4179  0.1355
12403TIP3    H258701   0.762   6.762   3.643  1.2046  1.2650 -0.0194
12404TIP3   OH258702   6.721   6.568   3.428 -0.1076 -0.1544 -0.6812
12404TIP3    H158703   6.705   6.656   3.463  0.6482  0.3019 -1.4409
12404TIP3    H258704   6.810   6.573   3.393  0.0080 -1.2870 -0.5484
12405TIP3   OH258705   3.685   1.577   2.370  0.5091  0.2715 -0.2483
12405TIP3    H158706   3.635   1.496   2.362  0.7180  0.2045 -0.9484
12405TIP3    H258707   3.702   1.587   2.463  1.6349 -1.1944 -0.2802
12406TIP3   OH258708   4.601   0.570   2.823  0.5505  0.2630 -0.5822
12406TIP3    H158709   4.530   0.508   2.834  0.6373  0.2027 -0.3708
12406TIP3    H258710   4.608   0.581   2.728 -0.1374  0.7371 -0.5778
12407TIP3   OH258711   2.918   2.195   0.504  0.6098 -0.3763  0.5742
12407TIP3    H158712   2.986   2.252   0.540  0.1689  0.5307 -0.0213
12407TIP3    H258713   2.957   2.108   0.505  2.1166  0.2750 -0.6117
12408TIP3   OH258714   5.625   5.581   1.167 -0.1381 -0.3469 -0.0530
12408TIP3    H158715   5.618   5.486   1.157 -0.1542 -0.2910 -0.6147
12408TIP3    H258716   5.718   5.597   1.184 -0.2062 -0.5016  0.4413
12409TIP3   OH258717   5.037   3.100  16.263 -0.0143  0.5852 -0.3652
12409TIP3    H158718   5.117   3.055  16.291  0.1876  1.0736 -0.1626
12409TIP3    H258719   5.061   3.146  16.183  0.2031  1.6654  0.3270
12410TIP3   OH258720   3.547   1.582  15.474  0.2640 -0.3733 -0.1774
12410TIP3    H158721   3.522   1.592  15.565  0.4746  1.5980 -0.3154
12410TIP3    H258722   3.635   1.545  15.477 -0.5669 -2.3553  0.3723
12411TIP3   OH258723   0.241   5.212   4.989  0.6094  0.5203 -0.3340
12411TIP3    H158724   0.331   5.179   4.994  0.1230 -0.7535  0.1706
12411TIP3    H258725   0.186   5.135   5.002 -0.5645  1.4542  0.3434
12412TIP3   OH258726   6.052   1.979   3.898 -0.2758 -0.3217 -0.3834
12412TIP3    H158727   6.016   2.067   3.906 -2.9861 -1.2072 -2.2523
12412TIP3    H258728   6.105   1.982   3.818  0.2658 -0.1878 -0.0210
12413TIP3   OH258729   5.101   5.903  11.500  0.2673  0.3690 -0.4969
12413TIP3    H158730   5.119   5.907  11.594  0.6940  0.8167 -0.5972
12413TIP3    H258731   5.163   5.837  11.467  0.7839  0.9053 -0.6158
12414TIP3   OH258732   1.140   1.096   1.849  0.3291  0.3551  0.5822
12414TIP3    H158733   1.126   1.144   1.930  0.6316 -1.0662  1.5031
12414TIP3    H258734   1.180   1.014   1.877  0.2186 -0.2456 -0.9848
12415TIP3   OH258735   2.035   3.602  14.612 -0.3759  0.4812  0.0384
12415TIP3    H158736   2.092   3.559  14.548 -2.2008 -0.4203 -1.0297
12415TIP3    H258737   2.019   3.689  14.574  0.0186  0.6207  0.1861
12416TIP3   OH258738   4.102   3.814   3.078 -0.2579  0.2709  0.1215
12416TIP3    H158739   4.014   3.838   3.107 -1.1154 -1.8351 -0.5622
12416TIP3    H258740   4.090   3.787   2.986  0.5795 -2.5685  0.7963
12417TIP3   OH258741   0.335   4.686  16.350 -0.2785  0.5298 -0.5390
12417TIP3    H158742   0.419   4.641  16.343 -1.4047 -1.6659 -0.6058
12417TIP3    H258743   0.314   4.710  16.259  0.0820  0.7198 -0.5726
12418TIP3   OH258744   4.560   4.944   0.811 -0.0280 -0.0728 -0.1464
12418TIP3    H158745   4.614   4.880   0.858  0.1619  0.5620  0.5020
12418TIP3    H258746   4.589   5.029   0.845 -1.2661  0.2815  0.0339
12419TIP3   OH258747   1.793   2.674   3.436  0.0587 -0.5377 -0.4979
12419TIP3    H158748   1.704   2.650   3.462 -0.3855  0.7896 -0.7810
12419TIP3    H258749   1.839   2.689   3.518 -0.5580  0.8257 -0.3907
12420TIP3   OH258750   6.107   0.191  12.139  0.0187 -0.1464  0.1977
12420TIP3    H158751   6.038   0.194  12.072  0.2086 -2.8291 -0.1807
12420TIP3    H258752   6.186   0.219  12.093 -0.3655  0.7269  0.0473
12421TIP3   OH258753   5.797   5.307   4.157 -0.7797 -0.1076 -1.1189
12421TIP3    H158754   5.729   5.270   4.214 -1.4151  0.6355 -1.3856
12421TIP3    H258755   5.802   5.245   4.083 -0.5795 -0.6036 -0.6894
12422TIP3   OH258756   2.987   0.889   0.165 -0.2084  0.0343  0.1768
12422TIP3    H158757   2.967   0.928   0.250  0.2962 -0.4810  0.5329
12422TIP3    H258758   2.902   0.862   0.131 -0.3937  0.0896  0.5885
12423TIP3   OH258759   4.689   1.609   5.408  0.2829  0.4126  0.2008
12423TIP3    H158760   4.717   1.575   5.324 -0.6692  1.4138 -0.5379
12423TIP3    H258761   4.668   1.531   5.460  1.5726 -0.2288 -0.2252
12424TIP3   OH258762   3.037   0.159  15.485 -0.1764 -0.3729 -0.1744
12424TIP3    H158763   3.022   0.126  15.396 -0.3589 -0.1231 -0.2377
12424TIP3    H258764   2.981   0.237  15.491 -1.0346 -1.0320  0.5388
12425TIP3   OH258765   4.331   3.569  14.932 -0.1556 -0.9408 -0.2481
12425TIP3    H158766   4.304   3.635  14.996 -2.2422  0.3838 -2.4180
12425TIP3    H258767   4.321   3.485  14.978 -0.0616  0.0760  1.6541
12426TIP3   OH258768   2.514   4.973   1.364 -0.2804 -0.5802  0.1017
12426TIP3    H158769   2.463   5.054   1.370  1.7880  0.7204  0.3230
12426TIP3    H258770   2.500   4.929   1.448  0.6582  0.7963  0.9880
12427TIP3   OH258771   0.425   0.842   4.334  0.1073 -0.4178 -0.1360
12427TIP3    H158772   0.425   0.746   4.341  1.2512 -0.5219 -1.3052
12427TIP3    H258773   0.370   0.860   4.257  0.3143 -0.1743 -0.2262
12428TIP3   OH258774   1.587   4.794   3.807  0.2478 -0.4489 -0.1930
12428TIP3    H158775   1.509   4.739   3.795 -0.3307  0.4201 -0.4866
12428TIP3    H258776   1.585   4.818   3.900 -0.4064  0.4140 -0.4266
12429TIP3   OH258777   5.431   5.333  14.847 -0.3182  0.8708 -0.4027
12429TIP3    H158778   5.497   5.296  14.788  0.5597 -0.9358  1.6586
12429TIP3    H258779   5.389   5.401  14.795  0.7788 -0.3106 -2.9585
12430TIP3   OH258780   1.901   0.481  15.915  0.3787 -0.2581 -0.0897
12430TIP3    H158781   1.830   0.419  15.930  0.5883 -0.5269 -0.1913
12430TIP3    H258782   1.859   0.556  15.871 -0.1953  0.4525  1.6190
12431TIP3   OH258783   3.236   0.695  14.049  0.8169  0.6966 -0.3338
12431TIP3    H158784   3.262   0.779  14.012  2.6394  0.0647 -0.5043
12431TIP3    H258785   3.295   0.631  14.010  0.3678 -0.4894  0.8614
12432TIP3   OH258786   4.203   1.179  13.845  0.2862 -0.1096  0.2547
12432TIP3    H158787   4.246   1.129  13.776 -0.5627 -0.0845 -0.3097
12432TIP3    H258788   4.263   1.251  13.864  1.4323 -1.2370  0.9502
12433TIP3   OH258789   6.584   0.296  11.765  0.2508 -0.1101  0.2558
12433TIP3    H158790   6.558   0.204  11.760  2.5484 -0.6995 -1.2582
12433TIP3    H258791   6.628   0.304  11.850 -0.7571 -0.1721  0.7938
12434TIP3   OH258792   6.087   4.287  12.567 -0.0658  0.2836  0.3338
12434TIP3    H158793   6.127   4.246  12.644  0.2004  0.2541  0.1825
12434TIP3    H258794   6.026   4.352  12.603  0.2730  0.4742  0.5643
12435TIP3   OH258795   5.239   6.205  15.572 -0.2276 -0.3707 -0.2798
12435TIP3    H158796   5.301   6.201  15.645  0.6954 -1.9078 -1.1073
12435TIP3    H258797   5.246   6.295  15.540 -1.2633  0.5588  2.0183
12436TIP3   OH258798   1.089   0.276  12.006 -0.0577  0.7728  0.3236
12436TIP3    H158799   1.053   0.314  11.926 -0.0456 -0.3835 -0.2490
12436TIP3    H258800   1.129   0.194  11.977 -1.4441 -0.4306  1.7389
12437TIP3   OH258801   3.734   6.509  16.327 -0.4115 -0.4736 -0.5576
12437TIP3    H158802   3.813   6.518  16.273  0.0709 -2.0684 -0.1279
12437TIP3    H258803   3.665   6.488  16.264 -0.2133 -0.5047 -0.7645
12438TIP3   OH258804   5.154   1.710   2.906 -0.3418  0.3845 -0.1949
12438TIP3    H158805   5.150   1.681   2.814 -0.2255  2.0871 -0.7456
12438TIP3    H258806   5.191   1.635   2.952  3.1274  0.7879 -2.1399
12439TIP3   OH258807   6.341   5.155   3.260 -0.1073 -0.1449 -0.2198
12439TIP3    H158808   6.353   5.227   3.198 -1.0138 -1.5506 -2.0749
12439TIP3    H258809   6.426   5.111   3.263  0.7469  1.5420  1.6800
12440TIP3   OH258810   6.532   0.647  15.204  0.0084  0.0037  0.1670
12440TIP3    H158811   6.484   0.694  15.136  1.1603  1.4795  0.3465
12440TIP3    H258812   6.480   0.662  15.283  0.1483  0.6320  0.1445
12441TIP3   OH258813   6.090   6.198   1.860 -0.4537  0.0541  0.4069
12441TIP3    H158814   6.034   6.123   1.841 -0.6974  0.6154 -1.1846
12441TIP3    H258815   6.179   6.165   1.845 -0.3953 -0.5391  1.9224
12442TIP3   OH258816   1.699   5.867  12.386 -0.4359 -0.0640 -0.2362
12442TIP3    H158817   1.630   5.815  12.428  0.9586 -0.8860  1.0948
12442TIP3    H258818   1.701   5.836  12.296 -2.3048  0.4899 -0.4843
12443TIP3   OH258819   1.179   2.086  11.238 -0.3918 -0.0542  0.1203
12443TIP3    H158820   1.103   2.143  11.241 -0.8794 -0.6404 -0.9727
12443TIP3    H258821   1.211   2.092  11.148  1.3623  0.8366  0.7619
12444TIP3   OH258822   3.648   4.086   6.094  0.0216  0.2486 -0.0302
12444TIP3    H158823   3.636   4.145   6.019  0.4054  0.5114  0.1106
12444TIP3    H258824   3.740   4.098   6.118  0.0804 -0.3658  0.0408
12445TIP3   OH258825   1.351   3.051  13.190  0.0630 -0.1427  0.0695
12445TIP3    H158826   1.356   3.141  13.158  0.0654 -0.2127 -0.1257
12445TIP3    H258827   1.277   3.052  13.251  0.5861  0.1855  0.7011
12446TIP3   OH258828   2.028   3.466   0.296 -0.0849  0.0173 -0.1972
12446TIP3    H158829   1.948   3.499   0.256 -0.4969 -1.4396 -0.6119
12446TIP3    H258830   2.018   3.371   0.296  0.9906 -0.1243  1.1161
12447TIP3   OH258831   1.952   6.269  14.300  0.3163  0.1656 -0.0043
12447TIP3    H158832   1.927   6.343  14.245  2.3566  1.4731  0.7720
12447TIP3    H258833   1.961   6.196  14.240 -2.5401  0.2984 -0.6822
12448TIP3   OH258834   5.050   2.885   1.827  0.1582 -0.0294 -0.0570
12448TIP3    H158835   4.998   2.886   1.747 -1.0664 -2.0044  0.6566
12448TIP3    H258836   5.133   2.845   1.802  0.2443  0.4793 -0.5948
12449TIP3   OH258837   3.188   4.146   1.803 -0.4948 -0.1975 -0.2124
12449TIP3    H158838   3.139   4.093   1.866  0.2768  0.0763  0.6411
12449TIP3    H258839   3.218   4.221   1.854  1.4824 -0.7591 -0.5164
12450TIP3   OH258840   6.631   0.206   5.872 -0.9001 -0.2673  0.3407
12450TIP3    H158841   6.629   0.267   5.798 -2.8930 -0.4996  0.1693
12450TIP3    H258842   6.586   0.252   5.943 -2.0341 -1.3388  0.3405
12451TIP3   OH258843   2.092   4.450  13.577 -0.0669  0.1845 -0.4003
12451TIP3    H158844   2.009   4.492  13.600 -1.2641 -0.7195 -2.9448
12451TIP3    H258845   2.128   4.422  13.661 -3.4401 -1.4726  0.5883
12452TIP3   OH258846   6.009   4.366   2.492  0.0184  0.9064 -0.0037
12452TIP3    H158847   6.004   4.286   2.440  1.1926  0.4158  0.6275
12452TIP3    H258848   6.071   4.422   2.445 -1.8695  2.0470 -1.2167
12453TIP3   OH258849   6.559   3.640  14.786 -0.3366  0.0743  0.3800
12453TIP3    H158850   6.629   3.623  14.723 -0.8572 -0.4330 -0.0834
12453TIP3    H258851   6.504   3.706  14.743 -1.7078 -1.5875 -0.5455
12454TIP3   OH258852   4.920   5.389  15.601 -0.3751  0.0093 -0.1251
12454TIP3    H158853   4.855   5.457  15.584 -3.3593 -2.9330 -1.0751
12454TIP3    H258854   4.931   5.389  15.696 -2.7106 -0.2146  0.1766
12455TIP3   OH258855   1.434   3.685   6.610 -0.0818  0.1584  0.0066
12455TIP3    H158856   1.389   3.769   6.619 -1.7803 -0.7228 -0.0547
12455TIP3    H258857   1.527   3.707   6.613 -0.5081  1.8779  1.4386
12456TIP3   OH258858   4.368   2.804  16.773 -0.2097 -0.0858 -0.1150
12456TIP3    H158859   4.349   2.710  16.783 -3.2658  0.1605 -2.8140
12456TIP3    H258860   4.318   2.846  16.843  0.3612 -0.3755  0.4720
12457TIP3   OH258861   3.529   4.811   4.945  1.1409  0.0089  0.1700
12457TIP3    H158862   3.571   4.725   4.941  2.0511  0.5019 -1.2838
12457TIP3    H258863   3.498   4.827   4.855  0.0846  0.7492  0.6602
12458TIP3   OH258864   4.739   4.129   3.378  0.4517 -0.5802  0.3500
12458TIP3    H158865   4.814   4.092   3.425  0.4022  1.2205  1.9125
12458TIP3    H258866   4.663   4.087   3.419  0.4647  0.0747  1.0540
12459TIP3   OH258867   3.595   2.132   2.444 -0.1284  0.5715  0.7257
12459TIP3    H158868   3.630   2.043   2.452 -1.3124  0.1179  0.9439
12459TIP3    H258869   3.525   2.124   2.379  0.3122  1.5144  0.1327
12460TIP3   OH258870   6.332   3.012  13.816 -0.4169  0.1530  0.2963
12460TIP3    H158871   6.329   3.091  13.870  1.9564 -0.0486  0.7912
12460TIP3    H258872   6.415   2.971  13.838  0.9246  0.3286 -3.9045
12461TIP3   OH258873   0.992   0.037   5.168 -0.5701 -0.2631 -0.1219
12461TIP3    H158874   0.956   0.116   5.129 -1.5290 -0.1515  0.9515
12461TIP3    H258875   0.915  -0.011   5.201  0.1974 -0.3148  1.6771
12462TIP3   OH258876   5.211   4.962  15.609 -0.0890 -0.3487 -0.5124
12462TIP3    H158877   5.306   4.966  15.618  0.1354 -0.0649 -2.7204
12462TIP3    H258878   5.192   4.869  15.598 -0.4428 -0.7910  3.1127
12463TIP3   OH258879   3.227   5.017   1.733 -0.0860 -0.1139 -0.1744
12463TIP3    H158880   3.144   5.048   1.695 -1.4515 -0.1886  2.5872
12463TIP3    H258881   3.246   5.079   1.804  1.9838 -0.3868 -0.4611
12464TIP3   OH258882   3.857   6.263  17.153 -0.2153 -0.6657  0.5528
12464TIP3    H158883   3.867   6.220  17.238  0.5572 -2.9650 -0.6614
12464TIP3    H258884   3.783   6.217  17.112 -0.7792  0.6308  0.0805
12465TIP3   OH258885   5.914   6.660  15.205 -0.1080  0.5529  0.4308
12465TIP3    H158886   5.987   6.667  15.267 -0.5434 -1.0721  1.1423
12465TIP3    H258887   5.909   6.567  15.184 -1.7812  0.6935  0.1455
12466TIP3   OH258888   1.971   4.529   0.903 -0.3265  0.0303  0.5389
12466TIP3    H158889   1.993   4.594   0.836 -0.3844 -0.3797  0.1191
12466TIP3    H258890   1.897   4.568   0.950  0.8864  1.1504  1.5736
12467TIP3   OH258891   5.224   0.844   1.911 -0.5021 -0.0035  0.9567
12467TIP3    H158892   5.210   0.785   1.837  0.3152  1.1876 -0.1752
12467TIP3    H258893   5.230   0.786   1.987 -2.1295 -1.1923  0.2168
12468TIP3   OH258894   4.053   1.819  15.482  0.0375  0.1124  0.0222
12468TIP3    H158895   3.960   1.827  15.507 -0.5259 -1.5899 -1.5094
12468TIP3    H258896   4.100   1.830  15.565 -1.5849 -0.2393  1.0182
12469TIP3   OH258897   2.052   1.344   1.201 -0.3420  0.0080 -0.4073
12469TIP3    H158898   2.107   1.374   1.128 -0.0377 -1.2590 -0.7155
12469TIP3    H258899   2.087   1.258   1.223 -1.2110 -0.1345  0.4391
12470TIP3   OH258900   3.575   4.832  17.061  0.6629  0.0145 -0.3630
12470TIP3    H158901   3.587   4.923  17.089 -1.7262 -0.1904  1.5676
12470TIP3    H258902   3.504   4.835  16.997 -0.2735 -0.6052  0.6228
12471TIP3   OH258903   2.898   3.073  13.147 -0.0367  0.3251 -0.5526
12471TIP3    H158904   2.943   3.005  13.098  1.0657  0.8404 -0.2729
12471TIP3    H258905   2.947   3.153  13.128 -3.3755  1.7695 -3.7356
12472TIP3   OH258906   1.892   0.052   3.789  0.1260 -0.2837 -0.3098
12472TIP3    H158907   1.909  -0.042   3.779  1.2217  0.0969 -2.2803
12472TIP3    H258908   1.915   0.089   3.704  0.2248  1.8436  0.6287
12473TIP3   OH258909   3.472   6.663  16.963  0.1205 -0.3855  0.1868
12473TIP3    H158910   3.399   6.709  17.003  0.1570  1.0017 -1.3112
12473TIP3    H258911   3.540   6.729  16.951  0.3462 -0.8877 -1.5730
12474TIP3   OH258912   3.833   2.208   4.012  0.0961  0.7471 -0.6379
12474TIP3    H158913   3.900   2.237   3.950 -0.4764  1.6736 -0.8403
12474TIP3    H258914   3.768   2.279   4.012 -0.9283 -0.1722 -0.5103
12475TIP3   OH258915   2.984   6.738  13.274 -0.0926 -1.1197  0.4128
12475TIP3    H158916   2.996   6.802  13.204  0.1685 -2.4099 -0.7424
12475TIP3    H258917   2.902   6.763  13.316 -0.3946 -0.4912 -0.5318
12476TIP3   OH258918   2.592   2.413   4.055 -0.2175 -0.1195 -0.4800
12476TIP3    H158919   2.662   2.402   4.118 -0.3720 -0.5003 -0.3730
12476TIP3    H258920   2.623   2.482   3.996  0.5551 -0.8075 -0.8768
12477TIP3   OH258921   2.768   1.699   1.065  0.0902  0.2251  0.5184
12477TIP3    H158922   2.699   1.655   1.116  1.0165  0.1640  1.7422
12477TIP3    H258923   2.722   1.767   1.016 -0.9096 -0.1264  0.9560
12478TIP3   OH258924   6.228   4.195   6.437 -0.1770  0.7449 -0.2847
12478TIP3    H158925   6.316   4.159   6.426 -0.2023  0.5279  0.1868
12478TIP3    H258926   6.169   4.122   6.416 -0.2380  0.7815 -0.2406
12479TIP3   OH258927   0.045   1.077   6.722  0.4086  0.4362  0.4769
12479TIP3    H158928  -0.000   0.997   6.750  1.4429  0.1186  1.2714
12479TIP3    H258929  -0.007   1.148   6.760  0.0975  0.1034  0.6852
12480TIP3   OH258930   5.788   2.389   1.685 -0.3299  0.2980  0.2821
12480TIP3    H158931   5.722   2.321   1.675  0.1961 -0.1169 -0.3529
12480TIP3    H258932   5.842   2.360   1.758  0.4451 -0.4091 -0.5756
12481TIP3   OH258933   1.700   2.288   0.635 -0.4147 -0.5101 -0.0568
12481TIP3    H158934   1.648   2.210   0.619 -0.8274 -0.2499 -0.0092
12481TIP3    H258935   1.764   2.262   0.701 -1.0996 -0.5741  0.5849
12482TIP3   OH258936   1.644   4.611  12.979  0.3330 -0.4537  0.4093
12482TIP3    H158937   1.654   4.705  12.990 -0.9618 -0.2803  0.2301
12482TIP3    H258938   1.556   4.592  13.013 -0.1088 -1.3160 -1.1249
12483TIP3   OH258939   6.366   3.361   4.483  0.3703 -0.0373 -0.4098
12483TIP3    H158940   6.369   3.289   4.420  1.3998  0.3076 -0.7727
12483TIP3    H258941   6.415   3.432   4.441 -0.4926  0.8203  0.0135
12484TIP3   OH258942   0.500   1.592   3.612  0.1591  0.1743  0.2263
12484TIP3    H158943   0.418   1.635   3.637  0.3151 -0.2239  1.4793
12484TIP3    H258944   0.548   1.584   3.694  0.5385 -1.5089 -0.1467
12485TIP3   OH258945   1.042   6.748   0.594  0.0939 -0.5210  0.0444
12485TIP3    H158946   1.121   6.799   0.574 -0.1988 -0.5506 -1.2723
12485TIP3    H258947   1.007   6.789   0.673  0.0542  1.1159 -0.8062
12486TIP3   OH258948   0.041   1.709  13.266 -0.2254  0.0519 -0.2206
12486TIP3    H158949  -0.018   1.770  13.222 -1.0014 -0.0597  0.6560
12486TIP3    H258950  -0.016   1.655  13.319  0.7179  0.2734  1.0376
12487TIP3   OH258951   1.856   1.266  15.433 -0.1159  0.2095 -0.2944
12487TIP3    H158952   1.902   1.283  15.515  1.1791 -0.3605 -0.8946
12487TIP3    H258953   1.769   1.304  15.446 -0.9566 -2.4864  2.4312
12488TIP3   OH258954   6.283   6.203  12.235  0.3264  0.1457 -0.0901
12488TIP3    H158955   6.304   6.187  12.327 -3.3686  0.2496  0.8692
12488TIP3    H258956   6.287   6.298  12.225 -2.0030  0.3706  0.7619
12489TIP3   OH258957   0.700   3.595  17.002 -0.5760  0.1546 -0.6011
12489TIP3    H158958   0.627   3.646  17.039  0.4799  0.2154  1.4447
12489TIP3    H258959   0.778   3.644  17.026  0.2295 -0.4394 -1.9487
12490TIP3   OH258960   6.292   5.362  10.600 -0.1319 -0.1540  0.4685
12490TIP3    H158961   6.207   5.406  10.599  1.4060  2.8978 -1.1167
12490TIP3    H258962   6.342   5.408  10.666  0.5250 -1.5391  0.9477
12491TIP3   OH258963   5.745   3.499   0.349 -0.3639  0.0060 -0.1889
12491TIP3    H158964   5.653   3.524   0.351 -0.2877  0.4333 -1.4717
12491TIP3    H258965   5.754   3.447   0.269  0.5394  0.1060 -0.1580
12492TIP3   OH258966   2.733   0.382  11.228 -0.2238 -0.5272  0.3931
12492TIP3    H158967   2.722   0.475  11.212 -1.0967 -0.7144 -0.0809
12492TIP3    H258968   2.797   0.353  11.163  0.3022 -0.1969  0.7588
12493TIP3   OH258969   1.345   3.265  15.053  0.7130 -0.2519  0.4079
12493TIP3    H158970   1.433   3.238  15.027  1.0358  0.3591  0.8562
12493TIP3    H258971   1.319   3.202  15.120  0.0771 -1.5288 -1.0068
12494TIP3   OH258972   3.940   0.097  15.127  0.3264  0.4625  0.2072
12494TIP3    H158973   3.884   0.170  15.100 -0.9881 -0.3105  0.7595
12494TIP3    H258974   3.892   0.019  15.100  0.4810 -0.2434  1.9052
12495TIP3   OH258975   4.176   6.362   0.673  0.6047  0.0941 -0.2182
12495TIP3    H158976   4.194   6.359   0.579  1.1490 -1.1480 -0.0761
12495TIP3    H258977   4.139   6.449   0.687 -0.6805 -0.1719 -1.8061
12496TIP3   OH258978   6.668   4.534   2.992  0.3384  0.1144 -0.1531
12496TIP3    H158979   6.713   4.452   3.013 -0.6108 -0.3227  0.1756
12496TIP3    H258980   6.711   4.565   2.912  1.1819 -0.3278  0.1179
12497TIP3   OH258981   6.602   6.138  14.826  0.5148  0.1377 -0.3843
12497TIP3    H158982   6.557   6.213  14.863 -0.6212 -0.1910 -1.0817
12497TIP3    H258983   6.594   6.070  14.892  0.1943  0.1524 -0.4077
12498TIP3   OH258984   3.718   0.099  11.493 -0.4713  0.0926  0.1950
12498TIP3    H158985   3.654   0.127  11.558 -0.9387 -1.2270  0.3166
12498TIP3    H258986   3.667   0.051  11.428  0.1630  0.4176 -0.5538
12499TIP3   OH258987   4.707   3.607  13.675 -0.4548  0.1109 -0.3423
12499TIP3    H158988   4.670   3.618  13.588  0.6661 -0.4694 -0.9029
12499TIP3    H258989   4.802   3.606  13.661 -0.3159 -2.3804  0.5705
12500TIP3   OH258990   5.790   4.568  17.135 -0.3221  0.3291  0.0504
12500TIP3    H158991   5.862   4.506  17.144 -0.6370 -0.0639 -0.0690
12500TIP3    H258992   5.731   4.548  17.208 -0.6037  0.2402 -0.1954
12501TIP3   OH258993   0.314   0.755  16.932  0.2413  0.0419 -0.2688
12501TIP3    H158994   0.257   0.735  16.857  1.3482  0.3721 -1.2089
12501TIP3    H258995   0.381   0.813  16.896 -0.0358  1.3911  1.2989
12502TIP3   OH258996   4.758   0.421  12.897  0.0496  0.2759 -0.4655
12502TIP3    H158997   4.773   0.423  12.803  1.9511  0.4556 -0.1738
12502TIP3    H258998   4.764   0.513  12.925  2.0213 -0.0166  0.1779
12503TIP3   OH258999   4.997   2.330  11.477 -0.1697 -0.0419 -0.6207
12503TIP3    H159000   4.985   2.259  11.539 -1.0581 -0.4751 -1.2778
12503TIP3    H259001   5.039   2.399  11.528  0.3886 -0.9066  0.1024
12504TIP3   OH259002   1.794   0.683  14.356 -0.1906  0.3069  0.1264
12504TIP3    H159003   1.712   0.638  14.376 -0.0098  0.1620  0.5499
12504TIP3    H259004   1.833   0.700  14.442  1.0447 -1.1519 -0.1172
12505TIP3   OH259005   5.212   0.363   3.155  0.3787  0.3391  0.1671
12505TIP3    H159006   5.134   0.308   3.145  0.1709  0.4632  1.0633
12505TIP3    H259007   5.268   0.339   3.081 -0.9614  1.0142 -1.1090
12506TIP3   OH259008   2.062   5.253   6.419  0.9155 -0.1668  0.6427
12506TIP3    H159009   2.012   5.175   6.441  1.3860 -1.3213 -2.1049
12506TIP3    H259010   1.997   5.315   6.386  0.8590 -0.3657  0.3784
12507TIP3   OH259011   3.638   6.364   3.510 -0.1484  0.1196  0.4875
12507TIP3    H159012   3.550   6.388   3.537 -0.7887 -1.2620 -0.3207
12507TIP3    H259013   3.674   6.444   3.471 -1.9165  0.0303 -1.4016
12508TIP3   OH259014   1.508   5.626  13.257 -0.4097  0.2957  0.0761
12508TIP3    H159015   1.575   5.562  13.281 -0.7957 -0.2179 -0.2171
12508TIP3    H259016   1.489   5.671  13.339  1.5180  1.6198 -0.1658
12509TIP3   OH259017   1.209   0.468  12.204 -0.7224 -0.2635  0.4374
12509TIP3    H159018   1.142   0.413  12.163 -2.5108  1.3017  1.1824
12509TIP3    H259019   1.263   0.499  12.131 -1.2372 -0.9611 -0.2461
12510TIP3   OH259020   3.781   3.139   2.944  0.1987 -0.3789  0.1053
12510TIP3    H159021   3.772   3.235   2.951 -0.0182 -0.1003 -3.0629
12510TIP3    H259022   3.868   3.126   2.907 -0.4896 -1.2935 -1.2192
12511TIP3   OH259023   2.853   6.335   3.462  0.2724  0.2211 -0.6718
12511TIP3    H159024   2.823   6.354   3.373 -1.4849  1.6043  0.1988
12511TIP3    H259025   2.881   6.420   3.497  0.1908 -0.1792  0.3809
12512TIP3   OH259026   3.667   2.371  11.924  0.0518  0.0571  0.0852
12512TIP3    H159027   3.752   2.373  11.879 -0.1626 -0.7092 -0.3565
12512TIP3    H259028   3.631   2.284  11.905 -1.0544  0.5505 -0.1385
12513TIP3   OH259029   0.820   4.974  13.186 -0.2592  0.7605 -0.3267
12513TIP3    H159030   0.828   4.974  13.091 -0.2956  0.1623 -0.3366
12513TIP3    H259031   0.737   5.017  13.204  0.7437  2.7968 -0.4599
12514TIP3   OH259032   3.027   1.138   5.449  0.0585  0.2213 -0.5043
12514TIP3    H159033   3.062   1.078   5.384  0.7658  1.0779 -0.9152
12514TIP3    H259034   2.988   1.210   5.399 -1.7235 -0.3792 -0.0455
12515TIP3   OH259035   1.133   6.493  15.891  0.1469  0.1557 -0.2995
12515TIP3    H159036   1.078   6.544  15.951  1.2761  0.6164  0.3581
12515TIP3    H259037   1.222   6.526  15.906  0.7837 -1.4431 -0.4521
12516TIP3   OH259038   6.809   6.647   2.531  0.2450  0.4499  0.0126
12516TIP3    H159039   6.838   6.573   2.477  1.0573  1.3120 -0.7422
12516TIP3    H259040   6.726   6.674   2.492 -0.2995 -0.3737  0.5910
12517TIP3   OH259041   6.809   0.243  16.413  0.3071  0.5708 -0.6833
12517TIP3    H159042   6.878   0.228  16.477 -2.4468 -1.7957  1.8676
12517TIP3    H259043   6.841   0.200  16.333  2.3912  0.7991 -0.0040
12518TIP3   OH259044   5.632   2.089  12.022  0.0670  0.3457 -0.4479
12518TIP3    H159045   5.724   2.089  11.998 -0.0461 -3.3791 -1.0514
12518TIP3    H259046   5.631   2.061  12.114 -0.3135  3.1530  0.4518
12519TIP3   OH259047   0.959   3.772   0.975  0.5436 -0.2006 -0.4813
12519TIP3    H159048   1.034   3.815   0.934  0.9165  0.2882  0.6826
12519TIP3    H259049   0.998   3.718   1.044 -0.2296  0.6489  0.6324
12520TIP3   OH259050   1.891   1.611   4.901 -0.0978  0.3067 -0.0535
12520TIP3    H159051   1.849   1.603   4.986  1.2898 -2.9307  0.3983
12520TIP3    H259052   1.829   1.570   4.840 -0.3042  1.0429 -0.3455
12521TIP3   OH259053   3.160   1.635   2.842 -0.2315  0.1069 -0.0095
12521TIP3    H159054   3.238   1.651   2.895  0.0885 -0.5607 -0.2752
12521TIP3    H259055   3.122   1.721   2.829  0.0158  0.3449  0.8096
12522TIP3   OH259056   2.479   4.894  15.031 -0.6693  0.0631  0.0660
12522TIP3    H159057   2.520   4.831  15.091 -0.0766  0.7732  0.4206
12522TIP3    H259058   2.532   4.890  14.952 -2.2295 -1.8262 -0.9133
12523TIP3   OH259059   3.375   4.936   3.751  0.1824 -0.3420 -0.5598
12523TIP3    H159060   3.369   4.973   3.839 -0.6939  1.0886 -1.2086
12523TIP3    H259061   3.453   4.977   3.712 -1.4535  1.7787 -1.6945
12524TIP3   OH259062   1.105   4.900   6.297  0.0138 -0.5200  0.1192
12524TIP3    H159063   1.054   4.865   6.225  0.7146  0.3911 -0.8409
12524TIP3    H259064   1.046   4.959   6.343  0.5318  1.5686 -1.7755
12525TIP3   OH259065   2.518   1.856   1.304  0.2429 -0.0554  0.3001
12525TIP3    H159066   2.514   1.765   1.275 -3.3219  0.3071 -0.4943
12525TIP3    H259067   2.478   1.855   1.391  1.8414  0.5084  1.0753
12526TIP3   OH259068   5.751   5.442  16.109 -0.2792  0.4822  0.2175
12526TIP3    H159069   5.741   5.502  16.036  0.1703  0.1460 -0.1203
12526TIP3    H259070   5.746   5.355  16.070 -0.1742  0.3007  0.5995
12527TIP3   OH259071   4.187   3.041  13.041 -0.2891 -0.2312 -0.0143
12527TIP3    H159072   4.246   3.089  13.098  2.8692 -0.3839 -2.9527
12527TIP3    H259073   4.134   3.108  12.998 -1.9554 -0.0535  2.2518
12528TIP3   OH259074   1.839   4.947   0.405 -0.1011 -0.5228  0.2530
12528TIP3    H159075   1.908   4.994   0.357 -1.0400  0.1428 -0.4696
12528TIP3    H259076   1.779   4.916   0.336  0.6928 -3.1286  0.6874
12529TIP3   OH259077   6.596   5.015  13.279  0.3857  0.3713 -0.5509
12529TIP3    H159078   6.660   5.006  13.208 -0.1913  0.3732 -1.0763
12529TIP3    H259079   6.523   4.958  13.253  2.1101 -3.3281  2.2985
12530TIP3   OH259080   1.050   2.582  13.432 -0.4793 -0.5991 -0.4251
12530TIP3    H159081   1.039   2.621  13.345 -0.4344 -1.1556 -0.6821
12530TIP3    H259082   0.978   2.521  13.440  0.0790 -1.2718 -0.4753
12531TIP3   OH259083   4.868   0.436  12.622 -0.1088 -0.8463 -0.0801
12531TIP3    H159084   4.864   0.523  12.584 -1.0238 -1.1358 -0.6583
12531TIP3    H259085   4.956   0.430  12.659 -0.0483  0.3210 -0.0279
12532TIP3   OH259086   3.009   2.042  14.176  0.2450 -0.2132  0.3206
12532TIP3    H159087   2.999   1.987  14.099  2.8489 -2.3165  1.4016
12532TIP3    H259088   2.920   2.069  14.198 -0.7074 -0.9697 -2.3731
12533TIP3   OH259089   6.491   3.964   5.059 -0.0130  0.1158 -0.1605
12533TIP3    H159090   6.408   3.929   5.091  0.4196 -0.6176  0.1682
12533TIP3    H259091   6.539   3.888   5.027  1.5458  0.1533  1.9289
12534TIP3   OH259092   5.415   5.209  11.701 -0.6318  0.1786 -0.0911
12534TIP3    H159093   5.481   5.231  11.635 -1.2765  0.1963 -0.7294
12534TIP3    H259094   5.466   5.181  11.777  0.0642 -2.7926 -1.6147
12535TIP3   OH259095   4.782   5.186  11.342  0.1898 -0.3623  0.0641
12535TIP3    H159096   4.798   5.251  11.410 -0.5336  2.4845 -2.3877
12535TIP3    H259097   4.687   5.187  11.330  0.3553 -0.5071 -1.2947
12536TIP3   OH259098   2.333   3.033  15.064  0.3622  0.3181 -0.3606
12536TIP3    H159099   2.292   3.119  15.070  2.6274  1.5375 -1.7529
12536TIP3    H259100   2.387   3.026  15.142  0.6068  0.3823 -0.5250
12537TIP3   OH259101   1.360   2.374   0.470  0.1283  0.1170 -0.0209
12537TIP3    H159102   1.298   2.442   0.497 -0.2948 -0.4192  0.3424
12537TIP3    H259103   1.319   2.292   0.495  1.9207 -0.1711  2.2235
12538TIP3   OH259104   5.426   4.877   2.922 -0.4318  0.4967 -0.3589
12538TIP3    H159105   5.335   4.852   2.939 -0.2913 -0.4738 -0.9979
12538TIP3    H259106   5.428   4.895   2.828  0.1288  0.1463 -0.4146
12539TIP3   OH259107   1.789   3.142   3.527 -0.8716  0.1511 -0.2187
12539TIP3    H159108   1.699   3.152   3.495 -1.0565 -1.5563 -0.2708
12539TIP3    H259109   1.837   3.215   3.486 -1.8468  0.0325 -1.6120
12540TIP3   OH259110   1.608   1.493   0.521 -0.1722 -0.1775  0.1303
12540TIP3    H159111   1.677   1.428   0.506 -0.6577 -0.5229 -0.6171
12540TIP3    H259112   1.653   1.577   0.511  0.2628 -0.3960  0.2087
12541TIP3   OH259113   2.414   4.986  11.471  0.1175  0.6341 -0.2903
12541TIP3    H159114   2.510   4.987  11.464  0.2255  1.2376  1.2539
12541TIP3    H259115   2.384   5.026  11.390  1.1564 -0.1037 -1.0568
12542TIP3   OH259116   3.497   0.095  15.007  0.8572  0.6012 -0.8029
12542TIP3    H159117   3.538   0.111  14.921  0.8582 -0.9198 -1.1030
12542TIP3    H259118   3.531   0.009  15.034 -0.1825  0.4650  0.1062
12543TIP3   OH259119   3.710   3.251  11.596  0.1803  0.2843  0.4573
12543TIP3    H159120   3.715   3.237  11.690  0.9066  1.0047  0.5267
12543TIP3    H259121   3.799   3.276  11.570 -0.0625  0.2955 -0.3851
12544TIP3   OH259122   2.321   3.498  15.869 -0.5275 -0.3995 -0.2021
12544TIP3    H159123   2.416   3.490  15.874 -0.4875  1.2458  1.9851
12544TIP3    H259124   2.307   3.573  15.811 -0.3490  2.1810  2.9442
12545TIP3   OH259125   3.274   3.087  13.177 -0.3013 -0.2003  0.5468
12545TIP3    H159126   3.261   3.133  13.094  0.3847  0.4601  0.7981
12545TIP3    H259127   3.363   3.053  13.171 -0.3648 -0.4189  0.8820
12546TIP3   OH259128   4.263   6.459   4.759  0.3855  0.0051  0.2456
12546TIP3    H159129   4.186   6.484   4.810  0.0707 -0.4083 -0.0232
12546TIP3    H259130   4.337   6.499   4.805  0.0484  0.0678  0.7280
12547TIP3   OH259131   3.902   1.180   0.288 -0.0955 -0.1327  0.2729
12547TIP3    H159132   3.975   1.179   0.226  0.3429  2.1024  0.6999
12547TIP3    H259133   3.943   1.168   0.374 -0.3798 -0.2248  0.3957
12548TIP3   OH259134   1.587   3.552   1.216 -0.4550 -0.2538  0.5016
12548TIP3    H159135   1.584   3.552   1.312 -1.8325 -1.2144  0.4888
12548TIP3    H259136   1.496   3.567   1.190 -0.3833 -1.7227 -0.6373
12549TIP3   OH259137   6.172   6.412  14.765 -0.3477  0.6624  0.0518
12549TIP3    H159138   6.159   6.490  14.711  1.8410  1.3967  0.5111
12549TIP3    H259139   6.117   6.426  14.842  1.4576  2.6692  1.0150
12550TIP3   OH259140   5.523   1.223   2.680  0.2875 -0.1535  0.2782
12550TIP3    H159141   5.523   1.273   2.598 -0.5453 -0.0346  0.3437
12550TIP3    H259142   5.431   1.221   2.707  0.5430 -0.2715  1.1635
12551TIP3   OH259143   6.474   6.337   5.382  0.3886 -0.1249 -0.3793
12551TIP3    H159144   6.424   6.418   5.392  0.9109 -0.0937  2.3665
12551TIP3    H259145   6.557   6.365   5.343 -0.0188  0.4356 -0.8592
12552TIP3   OH259146   0.422   3.534   3.717 -0.9402  0.4752  0.2627
12552TIP3    H159147   0.467   3.603   3.669  0.4358 -0.5738  0.0051
12552TIP3    H259148   0.446   3.453   3.671 -0.8267 -0.3939  1.8186
12553TIP3   OH259149   6.741   1.659   0.136  0.2782 -0.8187 -0.2422
12553TIP3    H159150   6.708   1.748   0.133  2.9728  0.1973 -2.6161
12553TIP3    H259151   6.707   1.623   0.218  1.5503  3.3407  2.2611
12554TIP3   OH259152   6.573   6.264  12.452  0.4920 -0.5128  0.0936
12554TIP3    H159153   6.626   6.320  12.509  0.6743 -0.8107  0.2217
12554TIP3    H259154   6.499   6.237  12.507  0.8987 -1.1584  0.3389
12555TIP3   OH259155   5.686   5.548  12.607  0.3176  0.7425  0.0749
12555TIP3    H159156   5.768   5.574  12.648  0.7381 -0.3848 -0.0192
12555TIP3    H259157   5.663   5.465  12.649 -0.8087  1.0923  0.1546
12556TIP3   OH259158   0.557   1.396   1.272  0.9042  0.2331 -0.0130
12556TIP3    H159159   0.470   1.429   1.248  0.2557 -1.3328  0.1003
12556TIP3    H259160   0.602   1.384   1.189  0.9594  0.9005 -0.0822
12557TIP3   OH259161   4.935   4.517   1.921  0.6339  0.0306  0.2695
12557TIP3    H159162   4.852   4.564   1.931 -0.7788 -2.0364 -1.4503
12557TIP3    H259163   4.960   4.494   2.011 -0.4089  1.0223  0.8282
12558TIP3   OH259164   2.602   1.382   3.897 -0.0047  0.4505 -0.1537
12558TIP3    H159165   2.627   1.324   3.825 -1.3049 -0.6079  0.2215
12558TIP3    H259166   2.570   1.462   3.854  0.2247  0.2397 -0.7184
12559TIP3   OH259167   1.911   2.836  11.551  0.2008 -0.6617 -0.1190
12559TIP3    H159168   1.866   2.920  11.547 -2.5593 -2.1076 -0.1446
12559TIP3    H259169   1.924   2.819  11.644 -0.1123 -0.6643 -0.0776
12560TIP3   OH259170   2.715   5.803  11.387 -0.5668  0.0554 -1.2223
12560TIP3    H159171   2.782   5.844  11.332  0.0009  0.1946 -0.4315
12560TIP3    H259172   2.701   5.717  11.347  1.8475 -0.9505  0.0112
12561TIP3   OH259173   2.638   4.728   3.773  0.1511 -0.3815  0.2218
12561TIP3    H159174   2.730   4.714   3.795  0.4992  1.8675  0.2476
12561TIP3    H259175   2.637   4.808   3.721 -2.0542  0.9910  2.2418
12562TIP3   OH259176   3.198   4.487   4.427 -0.0695 -0.0717  0.0484
12562TIP3    H159177   3.207   4.529   4.341  2.0968  1.0479  0.7801
12562TIP3    H259178   3.227   4.397   4.413 -0.4168 -0.0987 -0.5374
12563TIP3   OH259179   1.367   0.477   3.752  0.1851 -0.0169 -0.6649
12563TIP3    H159180   1.424   0.494   3.677  0.9271 -1.1306 -0.3644
12563TIP3    H259181   1.424   0.434   3.816 -0.3813  1.1306  0.6338
12564TIP3   OH259182   4.647   4.365  14.740 -0.3932  0.0387  0.2350
12564TIP3    H159183   4.560   4.336  14.763 -0.1566 -1.2397 -0.4340
12564TIP3    H259184   4.659   4.335  14.650  0.7046  0.2690  0.2959
12565TIP3   OH259185   5.637   3.003  12.773 -0.3001  0.2767 -0.0283
12565TIP3    H159186   5.673   2.996  12.685  1.7057  0.2752  0.7754
12565TIP3    H259187   5.661   2.920  12.815 -0.6133  0.5746  0.7485
12566TIP3   OH259188   3.656   2.710   5.709  0.2920  0.0894 -0.0555
12566TIP3    H159189   3.629   2.676   5.624 -0.3140  0.4062  0.0090
12566TIP3    H259190   3.643   2.636   5.769  0.7883 -0.1561 -0.2469
12567TIP3   OH259191   2.400   6.031  13.036 -0.0234 -0.2022  0.1073
12567TIP3    H159192   2.430   6.051  12.947 -1.4384 -0.8762 -0.5457
12567TIP3    H259193   2.308   6.057  13.036  0.4575  1.6429  1.9880
12568TIP3   OH259194   2.653   1.819  13.317 -0.5633  0.5026 -0.6946
12568TIP3    H159195   2.675   1.881  13.386  0.9469 -1.4317  0.6175
12568TIP3    H259196   2.735   1.773  13.299 -1.0825  0.5556 -3.3763
12569TIP3   OH259197   1.118   0.162   4.689 -0.3510  0.2687  0.0837
12569TIP3    H159198   1.095   0.238   4.634  0.2012  0.5907  0.2919
12569TIP3    H259199   1.116   0.088   4.630  1.0238  0.7251 -0.5659
12570TIP3   OH259200   5.021   5.827   2.760  0.5452 -0.0680 -0.1131
12570TIP3    H159201   5.009   5.806   2.668  2.9802 -1.6465 -0.1197
12570TIP3    H259202   5.006   5.744   2.806 -0.1763  0.5925  0.8666
12571TIP3   OH259203   3.049   5.645   6.142 -0.3869  0.2358 -0.5369
12571TIP3    H159204   3.136   5.660   6.105 -0.5171 -0.9078 -1.3322
12571TIP3    H259205   3.036   5.718   6.202  1.6646 -0.2967  0.6035
12572TIP3   OH259206   5.142   0.785  15.687 -0.0537  0.0071 -0.2355
12572TIP3    H159207   5.058   0.755  15.652  1.1350 -1.4348 -1.9711
12572TIP3    H259208   5.194   0.807  15.610  1.7950 -0.8876  0.7225
12573TIP3   OH259209   4.927   4.199  14.955 -0.0205 -0.2941 -0.3314
12573TIP3    H159210   5.012   4.218  14.994  0.9687 -0.3249 -2.4088
12573TIP3    H259211   4.909   4.274  14.899 -0.9891 -0.6651 -0.5267
12574TIP3   OH259212   1.052   3.827  16.102  0.5566  0.7881  0.7944
12574TIP3    H159213   1.092   3.914  16.104 -0.4645  1.2603  2.7938
12574TIP3    H259214   1.008   3.820  16.187 -0.2229 -1.2805  0.2416
12575TIP3   OH259215   6.582   0.664  12.240 -0.3804 -0.1822  0.0417
12575TIP3    H159216   6.613   0.752  12.218  0.7167 -0.9603 -1.6195
12575TIP3    H259217   6.621   0.646  12.325  1.8702 -0.2083 -0.9519
12576TIP3   OH259218   3.968   1.293   4.473 -0.7237 -0.1213 -0.1875
12576TIP3    H159219   3.952   1.244   4.392 -0.9001 -1.0103  0.3813
12576TIP3    H259220   3.955   1.229   4.543  2.1446 -0.0810  0.4563
12577TIP3   OH259221   0.056   5.872   4.122 -0.0049 -0.4326 -0.2521
12577TIP3    H159222   0.043   5.831   4.036  0.5157  1.8784 -1.5024
12577TIP3    H259223   0.151   5.880   4.131 -0.0946  3.3705 -1.5671
12578TIP3   OH259224   2.520   1.224   5.896  0.1899 -0.2534 -0.4834
12578TIP3    H159225   2.546   1.264   5.979  1.5815  0.4011 -1.2063
12578TIP3    H259226   2.451   1.162   5.920  1.6005 -1.1726  1.3712
12579TIP3   OH259227   2.742   1.182  11.667  0.4456 -0.1684 -0.5932
12579TIP3    H159228   2.751   1.276  11.678 -2.4896  0.0812 -0.1772
12579TIP3    H259229   2.707   1.170  11.579 -0.6113 -0.7693 -0.1090
12580TIP3   OH259230   6.118   3.564   2.913 -0.1084 -0.4918 -0.3230
12580TIP3    H159231   6.086   3.654   2.921  0.2641 -0.4921  1.4058
12580TIP3    H259232   6.208   3.573   2.882  0.1702 -0.2237  0.5455
12581TIP3   OH259233   1.651   1.432  12.980 -0.0099 -0.5200 -0.6079
12581TIP3    H159234   1.580   1.403  13.038  0.1881 -1.4690 -0.8329
12581TIP3    H259235   1.631   1.391  12.896  0.2441  0.0544 -0.9485
12582TIP3   OH259236   6.490   4.807  11.926 -0.0659 -0.1937 -0.2711
12582TIP3    H159237   6.537   4.728  11.953 -2.8409 -2.8262 -2.7754
12582TIP3    H259238   6.507   4.815  11.832  0.1197  2.2046 -0.0773
12583TIP3   OH259239   5.961   3.599   3.504 -0.0533  0.3206  0.0307
12583TIP3    H159240   6.015   3.524   3.529  0.6355  0.0402 -2.2008
12583TIP3    H259241   5.996   3.627   3.420 -1.6154  1.8989 -0.1275
12584TIP3   OH259242   3.151   4.799   3.738 -0.5428 -0.0912  0.0224
12584TIP3    H159243   3.228   4.855   3.742  0.1213 -1.0773  1.5176
12584TIP3    H259244   3.164   4.744   3.662 -0.7189  1.0826 -0.8718
12585TIP3   OH259245   1.670   6.248   0.168  0.1172  0.1436  0.1037
12585TIP3    H159246   1.756   6.232   0.129  0.0613 -1.0993  0.4799
12585TIP3    H259247   1.608   6.218   0.101 -0.0345  0.8188 -0.0696
12586TIP3   OH259248   4.484   3.482  13.283  0.3962  0.1873  0.3358
12586TIP3    H159249   4.490   3.416  13.353 -1.8987 -0.5462 -0.1040
12586TIP3    H259250   4.532   3.558  13.318  2.1618 -1.3168  1.2894
12587TIP3   OH259251   5.506   5.450  13.921 -0.2273  0.5889 -0.5425
12587TIP3    H159252   5.439   5.500  13.968 -0.3212  0.6535 -0.7454
12587TIP3    H259253   5.588   5.495  13.940  0.0389 -0.6213  1.3078
12588TIP3   OH259254   1.118   0.176   1.001  0.2687 -0.2787 -0.2624
12588TIP3    H159255   1.120   0.270   1.017  0.0138 -0.2583 -0.3521
12588TIP3    H259256   1.064   0.140   1.071 -1.4764 -0.1030 -1.4712
12589TIP3   OH259257   0.955   2.787  11.146  0.0088  0.3540 -0.0799
12589TIP3    H159258   0.936   2.725  11.216  2.0396  0.1161  0.2658
12589TIP3    H259259   0.920   2.745  11.067  0.3149 -0.6957  0.3323
12590TIP3   OH259260   1.085   2.371  16.252 -0.5035 -0.2606 -0.3383
12590TIP3    H159261   1.089   2.414  16.166  0.0180 -0.3131 -0.3425
12590TIP3    H259262   1.152   2.415  16.304 -0.6544 -0.3916 -0.0326
12591TIP3   OH259263   6.129   1.669   6.417 -0.1329 -0.3486 -0.1443
12591TIP3    H159264   6.096   1.661   6.507 -0.1918  1.3186  0.0049
12591TIP3    H259265   6.200   1.605   6.412  0.2240 -0.0976  1.2588
12592TIP3   OH259266   1.328   3.272  16.969 -0.2016 -0.2332 -0.2612
12592TIP3    H159267   1.417   3.306  16.984 -0.2531 -0.9284  1.7180
12592TIP3    H259268   1.271   3.347  16.987  0.0368  0.7369 -3.3028
12593TIP3   OH259269   6.521   5.012  12.653 -0.2681 -0.0852  0.1666
12593TIP3    H159270   6.461   4.967  12.593 -0.7005  0.6731  0.0202
12593TIP3    H259271   6.498   4.980  12.740  0.3557 -1.1862 -0.0633
12594TIP3   OH259272   2.148   1.475  12.137  0.4037  0.1038 -0.0736
12594TIP3    H159273   2.202   1.487  12.216  0.7894  0.3218 -0.3670
12594TIP3    H259274   2.076   1.419  12.165 -0.6408  1.9106  0.9806
12595TIP3   OH259275   0.357   4.910   1.300  0.0835  0.3392  0.0835
12595TIP3    H159276   0.368   4.922   1.205  2.3331 -2.3191 -0.0632
12595TIP3    H259277   0.394   4.990   1.338  0.6245  0.7405 -1.2388
12596TIP3   OH259278   4.722   5.337  14.407 -0.1297 -0.1015 -0.0941
12596TIP3    H159279   4.772   5.356  14.486  1.0088 -0.9917 -0.5849
12596TIP3    H259280   4.786   5.347  14.336 -0.7064 -1.0215 -0.7497
12597TIP3   OH259281   2.771   5.318   2.292  0.2179 -0.1379  0.3212
12597TIP3    H159282   2.693   5.372   2.304 -0.8484 -1.9202  1.6358
12597TIP3    H259283   2.743   5.246   2.236  0.5853 -1.4320  1.7657
12598TIP3   OH259284   0.089   3.191   4.425 -0.8822 -0.0582  0.1450
12598TIP3    H159285   0.140   3.189   4.344  1.5411 -0.1104  1.6492
12598TIP3    H259286   0.057   3.101   4.435 -1.2990 -0.0214 -0.8027
12599TIP3   OH259287   3.061   1.272   5.847  0.7178  0.4578 -0.2420
12599TIP3    H159288   3.081   1.255   5.939  3.6429  0.3751 -0.8354
12599TIP3    H259289   3.090   1.193   5.801 -0.1805  0.7251 -1.3009
12600TIP3   OH259290   4.465   0.329   3.473  0.0883  0.5171 -0.0671
12600TIP3    H159291   4.377   0.364   3.457 -0.4663 -1.4487 -1.4763
12600TIP3    H259292   4.518   0.365   3.403  0.2818  1.2775  0.4724
12601TIP3   OH259293   1.457   3.206  13.538  0.7949  0.0762 -0.4733
12601TIP3    H159294   1.374   3.162  13.520  1.4788 -0.5456 -2.2330
12601TIP3    H259295   1.471   3.194  13.632 -0.4903 -0.8938 -0.3935
12602TIP3   OH259296   0.086   4.032   0.576  0.7994 -0.0423 -0.0268
12602TIP3    H159297   0.168   3.986   0.594  0.0077 -1.6542 -0.4707
12602TIP3    H259298   0.081   4.099   0.644  4.2284  2.4550 -2.0442
12603TIP3   OH259299   2.251   5.998   1.750 -0.4592 -0.0840  0.7961
12603TIP3    H159300   2.171   5.983   1.800 -1.4781 -0.5739 -0.9386
12603TIP3    H259301   2.261   5.920   1.696  0.6025  0.4347  0.2248
12604TIP3   OH259302   5.767   4.894   4.349 -0.3990  0.0878  0.0626
12604TIP3    H159303   5.857   4.926   4.358  0.1441 -1.4448  0.2515
12604TIP3    H259304   5.740   4.923   4.262  1.2497 -1.7227 -1.1134
12605TIP3   OH259305   4.395   3.056  15.153  0.0199 -0.4177  0.1182
12605TIP3    H159306   4.404   3.024  15.063  1.6344  1.4347 -0.4049
12605TIP3    H259307   4.303   3.081  15.160 -0.2319 -1.0314 -0.8564
12606TIP3   OH259308   1.282   2.302  16.475 -0.2495  0.1053 -0.2256
12606TIP3    H159309   1.281   2.328  16.568  0.5728 -1.5809  0.2654
12606TIP3    H259310   1.336   2.369  16.432  0.1522  0.3676  0.6690
12607TIP3   OH259311   6.401   0.335  15.619  0.0144  0.9219  0.3444
12607TIP3    H159312   6.489   0.299  15.625 -0.2942  0.4141  2.1708
12607TIP3    H259313   6.407   0.421  15.659  0.5041  2.5729 -3.0499
12608TIP3   OH259314   3.426   4.719  16.156 -0.0907  0.6013  0.1496
12608TIP3    H159315   3.385   4.762  16.231 -0.1595  0.4117  0.2202
12608TIP3    H259316   3.504   4.773  16.138 -0.0505  0.6230  0.3813
12609TIP3   OH259317   2.155   4.397  15.260  0.1916  0.1579  0.3472
12609TIP3    H159318   2.177   4.485  15.291 -0.9041  0.0231  1.5260
12609TIP3    H259319   2.104   4.359  15.331 -2.2880 -0.2102 -1.5838
12610TIP3   OH259320   5.804   1.949  13.844 -0.4869 -0.4658  0.3528
12610TIP3    H159321   5.831   1.999  13.921  0.9681  0.9811 -1.0744
12610TIP3    H259322   5.838   1.861  13.860 -1.8683 -0.7065  2.2287
12611TIP3   OH259323   2.590   3.287  16.238 -0.0939 -0.0422  0.2037
12611TIP3    H159324   2.629   3.222  16.295  2.6180  1.1080 -0.2740
12611TIP3    H259325   2.605   3.255  16.149  0.5150  0.7902 -0.0069
12612TIP3   OH259326   5.959   3.320  16.223  0.1917  0.1400  0.6198
12612TIP3    H159327   5.892   3.318  16.290 -0.2862 -0.0806  0.1388
12612TIP3    H259328   5.974   3.228  16.201  0.8464  0.1706  0.9148
12613TIP3   OH259329   3.054   3.207  17.237 -0.3234  0.7004  0.7635
12613TIP3    H159330   3.130   3.192  17.292  1.2326  2.7298 -0.7423
12613TIP3    H259331   3.045   3.126  17.186  0.1564  0.0388  1.7099
12614TIP3   OH259332   5.632   1.266   1.600 -0.0255  0.3149  0.0586
12614TIP3    H159333   5.726   1.252   1.611 -0.0494 -0.0188 -0.1689
12614TIP3    H259334   5.626   1.342   1.542  0.1040  0.3960  0.1524
12615TIP3   OH259335   0.750   0.488   3.795  0.2724 -0.6655  0.6123
12615TIP3    H159336   0.686   0.458   3.859 -0.7133  0.0508 -0.0306
12615TIP3    H259337   0.769   0.411   3.742 -0.5193 -0.7265  0.4166
12616TIP3   OH259338   6.722   0.179   3.719  0.0335 -0.6763 -0.2067
12616TIP3    H159339   6.692   0.157   3.807 -2.3477 -0.6060 -0.9643
12616TIP3    H259340   6.729   0.274   3.719 -1.2500 -0.5705 -0.4608
12617TIP3   OH259341   6.252   6.018   0.999  0.0963 -0.1486 -0.2506
12617TIP3    H159342   6.343   5.989   1.002 -0.1679 -0.9076  1.6990
12617TIP3    H259343   6.213   5.969   0.927  1.1637 -0.0257 -0.9114
12618TIP3   OH259344   2.331   5.326  14.520  0.7139  0.4980 -0.3003
12618TIP3    H159345   2.320   5.417  14.547  1.0256  0.6675 -0.7310
12618TIP3    H259346   2.293   5.274  14.591  0.1895  0.9746 -0.2308
12619TIP3   OH259347   2.672   5.477  12.302  0.0043 -0.4772 -0.4098
12619TIP3    H159348   2.615   5.409  12.266  0.6811 -1.5148  0.4332
12619TIP3    H259349   2.720   5.433  12.372  0.2478  0.9525  0.3463
12620TIP3   OH259350   1.648   5.961   2.507  0.7023  0.2841 -0.0576
12620TIP3    H159351   1.576   5.935   2.450  0.3380  1.6931 -0.2681
12620TIP3    H259352   1.652   6.057   2.498  2.0476  0.3002  0.6005
12621TIP3   OH259353   4.253   1.279  16.286 -0.2651  0.1432  0.3524
12621TIP3    H159354   4.178   1.244  16.335 -0.8681  2.1275  0.8771
12621TIP3    H259355   4.232   1.371  16.272  2.5497  0.9832  1.3805
12622TIP3   OH259356   6.815   1.067  16.505  0.3092 -0.6837  0.2189
12622TIP3    H159357   6.770   1.147  16.477  0.1126 -0.9586 -0.2552
12622TIP3    H259358   6.875   1.097  16.574 -1.0873 -0.4330  1.3503
12623TIP3   OH259359   6.562   2.746   4.245 -0.0702 -0.0984  0.4210
12623TIP3    H159360   6.493   2.749   4.311 -0.7843 -1.8510 -0.2200
12623TIP3    H259361   6.522   2.784   4.167  0.2564  0.4726  0.5259
12624TIP3   OH259362   2.438   0.530   2.477  0.2075 -0.2963  0.0403
12624TIP3    H159363   2.428   0.573   2.562  3.2940  0.7409 -0.0304
12624TIP3    H259364   2.391   0.448   2.485  0.6972 -0.3302  2.8894
12625TIP3   OH259365   2.286   6.063   0.713  0.2746 -0.6424  0.6151
12625TIP3    H159366   2.218   6.050   0.647  0.0345  0.0544  0.7217
12625TIP3    H259367   2.308   6.156   0.707  2.5260 -1.2400 -0.6806
12626TIP3   OH259368   5.405   2.625  14.433 -0.5798 -0.3619  0.2402
12626TIP3    H159369   5.370   2.544  14.470 -1.7375  0.3303  0.6794
12626TIP3    H259370   5.366   2.695  14.485 -3.3472  0.7067 -3.0545
12627TIP3   OH259371   4.920   2.733   0.782  0.0810  0.8612  0.1948
12627TIP3    H159372   4.932   2.814   0.732 -0.2796  1.5242  1.1749
12627TIP3    H259373   4.878   2.761   0.863 -0.5851 -0.3900  0.2895
12628TIP3   OH259374   5.790   4.644   1.073  0.1360 -0.3764  0.6432
12628TIP3    H159375   5.865   4.664   1.017  0.4355 -2.1784  0.3840
12628TIP3    H259376   5.716   4.638   1.013  0.4809 -2.4468  0.3763
12629TIP3   OH259377   1.475   0.904   5.881 -0.8111  0.3856 -0.3406
12629TIP3    H159378   1.535   0.957   5.933 -0.6139  2.9688 -3.0459
12629TIP3    H259379   1.425   0.853   5.945  1.2756  1.4051  2.1649
12630TIP3   OH259380   0.939   0.615  16.974 -0.1741  0.0340  0.3440
12630TIP3    H159381   0.881   0.615  17.050 -0.1020 -0.2475  0.4009
12630TIP3    H259382   0.970   0.705  16.967  0.3336 -0.0855  1.0347
12631TIP3   OH259383   2.498   2.045  13.462  0.2735  0.6728 -0.3059
12631TIP3    H159384   2.582   2.081  13.489  0.0196  1.3511 -0.3928
12631TIP3    H259385   2.436   2.076  13.528 -0.0165  0.7395 -0.6051
12632TIP3   OH259386   1.913   2.667   5.970 -0.0208  0.4478  0.1333
12632TIP3    H159387   1.981   2.734   5.980 -1.2774  1.5963  1.2851
12632TIP3    H259388   1.961   2.585   5.961  1.5355  1.3810 -0.3549
12633TIP3   OH259389   5.509   1.613  12.352 -0.1090 -0.2242  0.5727
12633TIP3    H159390   5.582   1.557  12.378 -0.5584 -0.7201  0.7740
12633TIP3    H259391   5.496   1.672  12.426  0.3178  0.1029  0.3886
12634TIP3   OH259392   3.759   0.206   3.480 -0.8250 -0.4662  0.0558
12634TIP3    H159393   3.735   0.184   3.391 -0.3471 -2.0936  0.3186
12634TIP3    H259394   3.677   0.231   3.522 -1.1437 -0.3334 -0.6474
12635TIP3   OH259395   6.190   6.430  16.315  0.4199  0.0603 -0.0410
12635TIP3    H159396   6.132   6.378  16.259  0.8382  0.1196 -0.5290
12635TIP3    H259397   6.268   6.376  16.325  0.8000  0.5307 -0.4355
12636TIP3   OH259398   6.195   5.379  16.074 -0.0260 -0.9348  0.6758
12636TIP3    H159399   6.130   5.342  16.015 -0.2570 -1.6738  1.3940
12636TIP3    H259400   6.275   5.329  16.056 -0.0965 -1.1599  0.9847
12637TIP3   OH259401   6.145   6.720  16.979 -0.1049  0.1379  0.4444
12637TIP3    H159402   6.182   6.788  16.923 -1.3442  0.7101  0.3057
12637TIP3    H259403   6.221   6.680  17.022  0.6357  1.7417  0.6763
12638TIP3   OH259404   4.194   4.837   5.069  0.1064  0.2707  0.0692
12638TIP3    H159405   4.235   4.872   4.990 -0.2383 -0.8121 -0.6087
12638TIP3    H259406   4.256   4.855   5.139 -0.6011  3.3152 -0.0154
12639TIP3   OH259407   5.365   3.899  12.329  0.5732  0.5896  0.3385
12639TIP3    H159408   5.307   3.974  12.331  1.6900  1.4851 -0.0422
12639TIP3    H259409   5.367   3.872  12.237  0.7371  0.5598  0.3499
12640TIP3   OH259410   6.060   6.529   0.419 -0.0136  0.2224 -0.2133
12640TIP3    H159411   6.108   6.549   0.339  2.9814  0.4240  1.5509
12640TIP3    H259412   6.089   6.441   0.443  0.6750  0.9493  1.7113
12641TIP3   OH259413   2.634   3.491  13.129  0.5374  0.2837  0.4917
12641TIP3    H159414   2.642   3.574  13.082 -0.7701  0.1141 -0.0462
12641TIP3    H259415   2.572   3.509  13.199  0.3198 -0.2109  0.4309
12642TIP3   OH259416   5.112   6.326  16.391 -0.1663 -0.5270 -0.3645
12642TIP3    H159417   5.037   6.317  16.332 -0.4524  0.1409 -0.1025
12642TIP3    H259418   5.073   6.335  16.478  0.2591 -1.8184 -0.0252
12643TIP3   OH259419   5.440   1.729   2.780  0.4489 -0.5180 -0.2857
12643TIP3    H159420   5.455   1.654   2.837  1.2047  0.0633  0.2899
12643TIP3    H259421   5.525   1.774   2.775 -0.6405  1.9089  1.7076
12644TIP3   OH259422   0.114   0.313  11.071  0.1797 -0.0658  0.2393
12644TIP3    H159423   0.115   0.399  11.115  1.0059  1.0886 -1.9750
12644TIP3    H259424   0.203   0.280  11.082 -0.0892 -0.5653  0.9317
12645TIP3   OH259425   4.976   0.360   5.511 -0.6392 -0.2886 -0.4047
12645TIP3    H159426   5.027   0.432   5.476 -0.4938 -0.1206  0.1512
12645TIP3    H259427   4.997   0.358   5.604  0.2597 -1.7935 -0.6254
12646TIP3   OH259428   0.298   0.065  13.834 -0.6639 -0.1532  0.5244
12646TIP3    H159429   0.358   0.139  13.842 -0.8955 -0.2492  3.5772
12646TIP3    H259430   0.356  -0.011  13.826 -0.3698 -0.0717  1.7612
12647TIP3   OH259431   1.445   3.400  11.542  0.2617  0.0534  0.1053
12647TIP3    H159432   1.506   3.453  11.593  1.0740 -0.4154 -0.3743
12647TIP3    H259433   1.501   3.343  11.489 -0.5909 -0.6284 -0.0764
12648TIP3   OH259434   0.134   0.212  13.371  0.4073 -0.0712 -0.3713
12648TIP3    H159435   0.051   0.220  13.416 -0.0386  1.5807 -1.4031
12648TIP3    H259436   0.199   0.241  13.435  0.0113  0.1351 -0.0601
12649TIP3   OH259437   4.185   4.814  17.148  0.5224  1.0092  0.0578
12649TIP3    H159438   4.107   4.863  17.122 -0.9463 -0.5179  1.4401
12649TIP3    H259439   4.255   4.880  17.150 -0.3849  2.1225 -2.6357
12650TIP3   OH259440   1.758   6.269  12.741 -0.1187  0.5545 -0.3990
12650TIP3    H159441   1.668   6.254  12.771 -0.2472 -2.3099 -2.0126
12650TIP3    H259442   1.809   6.279  12.821 -1.7063  1.1105  0.5590
12651TIP3   OH259443   3.255   1.696  13.523  0.0079  0.0933 -0.0220
12651TIP3    H159444   3.254   1.738  13.437 -0.0877 -0.8618 -0.4890
12651TIP3    H259445   3.329   1.736  13.569  2.7903 -2.4869 -2.0910
12652TIP3   OH259446   5.829   2.044  15.440 -0.4848  0.2200 -0.0673
12652TIP3    H159447   5.900   2.105  15.460 -0.2979 -0.2745  0.7732
12652TIP3    H259448   5.807   2.063  15.349  0.4444  0.6648 -0.2059
12653TIP3   OH259449   6.242   1.179   2.513 -0.3535 -0.2175 -0.1937
12653TIP3    H159450   6.314   1.209   2.458  0.7626 -0.5837  1.0586
12653TIP3    H259451   6.234   1.085   2.493 -1.4273  0.1025 -1.3710
12654TIP3   OH259452   3.629   0.285   2.945  0.5111 -0.2482  0.4854
12654TIP3    H159453   3.633   0.300   2.851  0.6348 -1.9991  0.1832
12654TIP3    H259454   3.718   0.298   2.976  0.7903 -1.1658  0.0929
12655TIP3   OH259455   3.392   1.311  15.475  0.1337 -0.2975 -0.6470
12655TIP3    H159456   3.325   1.260  15.521 -0.1931  0.9663  0.2997
12655TIP3    H259457   3.419   1.255  15.402 -0.3445 -1.7509  0.2711
12656TIP3   OH259458   1.284   3.033  15.242  0.4031 -0.3520 -0.2950
12656TIP3    H159459   1.188   3.037  15.243  0.3707 -0.2573 -1.8823
12656TIP3    H259460   1.305   2.996  15.156  1.8063  0.2280 -0.2099
12657TIP3   OH259461   1.338   4.322  15.108 -0.4163 -0.8965 -0.2018
12657TIP3    H159462   1.356   4.406  15.152 -0.2613 -0.3634 -1.2735
12657TIP3    H259463   1.286   4.273  15.172 -2.3825  0.8502 -0.3976
12658TIP3   OH259464   0.669   2.683   4.911  0.3328 -0.2190 -0.2728
12658TIP3    H159465   0.716   2.766   4.896 -0.4139  0.5718  1.6778
12658TIP3    H259466   0.606   2.679   4.839  0.6537  0.7090 -0.6210
12659TIP3   OH259467   1.787   2.609  10.920  0.2106  0.1471  0.4766
12659TIP3    H159468   1.756   2.681  10.866 -0.8121 -0.8023 -0.2299
12659TIP3    H259469   1.872   2.585  10.881  0.9033  1.4075  1.1582
12660TIP3   OH259470   6.296   5.518   4.008 -0.1970  0.0436  0.3197
12660TIP3    H159471   6.373   5.495   4.061 -0.2521  0.1233  0.4349
12660TIP3    H259472   6.303   5.613   3.996 -0.2219  0.0353  0.2438
12661TIP3   OH259473   5.086   3.363   0.877  0.6003 -0.2463  0.4118
12661TIP3    H159474   5.135   3.444   0.896 -1.6256  0.6748  2.6320
12661TIP3    H259475   5.048   3.378   0.791 -0.9614  1.7727  1.3783
12662TIP3   OH259476   0.909   5.263  13.219 -0.0599 -0.2654  0.4141
12662TIP3    H159477   0.925   5.221  13.303 -0.0378 -1.4425 -0.1754
12662TIP3    H259478   0.896   5.191  13.158  0.0326  0.5816 -0.6179
12663TIP3   OH259479   1.868   5.115  13.509 -0.3878 -0.0951  0.4747
12663TIP3    H159480   1.788   5.124  13.561 -1.7003 -2.9802 -0.8931
12663TIP3    H259481   1.865   5.188  13.447 -2.5089 -0.7413 -0.2133
12664TIP3   OH259482   6.561   0.931  11.966  0.3757  0.1061 -0.2186
12664TIP3    H159483   6.484   0.894  11.921  1.2702  0.7993 -2.3982
12664TIP3    H259484   6.627   0.862  11.958  1.6227  1.5611 -3.0934
12665TIP3   OH259485   0.873   5.346   4.615 -0.2923  0.1087  0.0569
12665TIP3    H159486   0.785   5.375   4.640 -0.6631 -0.6724 -0.3251
12665TIP3    H259487   0.928   5.370   4.689 -0.8700  0.3838  0.4032
12666TIP3   OH259488   6.690   2.818  12.422 -0.3263  0.1090 -0.4888
12666TIP3    H159489   6.605   2.823  12.466  0.1379 -0.1426  0.4309
12666TIP3    H259490   6.734   2.900  12.446  0.4274 -0.5863  0.5596
12667TIP3   OH259491   4.982   6.073  12.033  0.1582  0.7485  0.1721
12667TIP3    H159492   5.050   6.138  12.052  0.8243 -0.3941  1.8212
12667TIP3    H259493   4.958   6.038  12.119 -1.8759  0.4732 -0.4796
12668TIP3   OH259494   1.428   4.474   2.543 -0.5663  0.0906  0.1105
12668TIP3    H159495   1.474   4.499   2.462 -2.1632  0.4568 -0.7053
12668TIP3    H259496   1.451   4.382   2.556  1.6968  0.7102  0.6230
12669TIP3   OH259497   6.301   3.708  15.056 -0.1022  0.1679 -0.1280
12669TIP3    H159498   6.245   3.632  15.042 -0.2154  0.4398 -1.2475
12669TIP3    H259499   6.241   3.779  15.081 -0.1046  0.1298 -0.0251
12670TIP3   OH259500   3.949   1.050   0.518  0.2629 -0.1349  0.1059
12670TIP3    H159501   4.037   1.054   0.555  0.6622 -0.8019 -0.7631
12670TIP3    H259502   3.919   0.961   0.536  0.9785 -0.8961 -2.3237
12671TIP3   OH259503   5.681   0.613   3.266  0.0137  0.1339  0.3126
12671TIP3    H159504   5.589   0.594   3.282 -0.1242  0.2639 -0.3237
12671TIP3    H259505   5.681   0.701   3.228  0.4468  0.3767  0.8600
12672TIP3   OH259506   1.643   0.601   5.386 -0.2336 -0.1594  0.0641
12672TIP3    H159507   1.663   0.624   5.295 -0.6448 -0.8700 -0.2183
12672TIP3    H259508   1.634   0.506   5.384 -0.0186 -0.1957  0.8990
12673TIP3   OH259509   5.309   1.207   3.422  0.3090  0.1487  0.3700
12673TIP3    H159510   5.371   1.246   3.485  1.3550 -0.3729 -0.3150
12673TIP3    H259511   5.306   1.115   3.445 -1.1412  0.3867  1.1455
12674TIP3   OH259512   5.722   2.547  16.416  0.1917  0.1212 -0.1342
12674TIP3    H159513   5.694   2.469  16.369 -1.4187  1.0534 -0.7658
12674TIP3    H259514   5.657   2.614  16.393  1.3192  1.5400  0.6987
12675TIP3   OH259515   0.906   6.145   5.031 -0.2695  0.0076 -0.1757
12675TIP3    H159516   0.920   6.230   4.990 -0.2277  0.1770  0.1849
12675TIP3    H259517   0.991   6.101   5.025 -0.4336 -0.2307 -0.8551
12676TIP3   OH259518   6.413   4.240  14.586 -0.2394  0.5054  0.2650
12676TIP3    H159519   6.490   4.260  14.638 -0.6889  1.4445  0.5755
12676TIP3    H259520   6.342   4.291  14.626 -1.0512 -0.4452  0.0643
12677TIP3   OH259521   1.653   3.069  16.160 -0.2202  0.0252  0.3571
12677TIP3    H159522   1.706   3.080  16.081 -0.4125 -0.6787  0.1283
12677TIP3    H259523   1.710   3.022  16.221 -0.7075 -1.0764 -0.0278
12678TIP3   OH259524   1.030   0.733  11.728 -0.4778  0.7665  0.4262
12678TIP3    H159525   1.012   0.814  11.680 -1.0938 -0.0727 -0.7934
12678TIP3    H259526   1.084   0.681  11.668 -3.1100 -1.2222 -0.3531
12679TIP3   OH259527   3.184   6.031   1.353 -0.2533 -0.2284 -0.2839
12679TIP3    H159528   3.143   6.118   1.357 -0.5061 -0.3320 -0.5719
12679TIP3    H259529   3.239   6.035   1.274 -0.5311 -0.4419 -0.4902
12680TIP3   OH259530   5.786   0.779  11.329  0.4499 -0.0672  0.2894
12680TIP3    H159531   5.728   0.827  11.271  0.3481  1.5899  1.7001
12680TIP3    H259532   5.729   0.719  11.377  0.0490  0.8856  1.0006
12681TIP3   OH259533   0.341   6.249   4.060 -0.4458  0.5008 -0.2437
12681TIP3    H159534   0.313   6.315   4.123 -2.1833 -0.6783  0.2754
12681TIP3    H259535   0.430   6.225   4.088  0.2480  2.6659 -0.5170
12682TIP3   OH259536   5.672   4.951  13.641 -0.2705 -0.1235  0.7437
12682TIP3    H159537   5.717   4.932  13.559 -1.5208 -0.8672  0.2096
12682TIP3    H259538   5.735   5.002  13.692  1.1286 -1.0812 -0.0029
12683TIP3   OH259539   6.010   4.883  10.726  0.0677  0.4164 -0.0862
12683TIP3    H159540   5.924   4.886  10.686 -0.0237  0.5569  0.1211
12683TIP3    H259541   6.048   4.968  10.708 -0.1497  0.6451  0.5096
12684TIP3   OH259542   0.287   2.342  16.333 -0.1454  0.0454  0.7637
12684TIP3    H159543   0.335   2.329  16.251 -0.2002 -3.2169  1.1784
12684TIP3    H259544   0.276   2.437  16.340  2.7944  0.5916 -1.2927
12685TIP3   OH259545   0.626   5.415  13.675  0.0351 -0.4740  0.2869
12685TIP3    H159546   0.662   5.455  13.596 -1.7996 -0.9715 -0.8430
12685TIP3    H259547   0.682   5.339  13.691  0.9441  0.1176 -0.0227
12686TIP3   OH259548   5.463   2.165  15.081  0.0486  0.4491  0.1514
12686TIP3    H159549   5.456   2.175  14.986 -0.0081  2.5311  0.3520
12686TIP3    H259550   5.522   2.235  15.109 -0.4273  0.2514  1.7270
12687TIP3   OH259551   3.066   3.313  13.067 -0.2812  0.2165  0.1877
12687TIP3    H159552   3.136   3.356  13.019  0.3776 -1.1172 -0.0672
12687TIP3    H259553   3.065   3.355  13.153  0.4958  0.5782  0.0148
12688TIP3   OH259554   6.340   3.715   3.070 -0.1878 -0.0937  0.7851
12688TIP3    H159555   6.269   3.748   3.014  0.9944  0.9024 -0.1730
12688TIP3    H259556   6.398   3.669   3.009  1.1017  0.9770  1.1878
12689TIP3   OH259557   4.547   6.389   0.722  0.4603  0.0108 -0.1546
12689TIP3    H159558   4.530   6.427   0.808  2.2057  2.3076 -0.7585
12689TIP3    H259559   4.506   6.451   0.661  2.3236  0.3035 -1.1236
12690TIP3   OH259560   6.055   0.586   0.775 -0.2803 -0.5343  0.1655
12690TIP3    H159561   6.047   0.602   0.869  1.2482 -2.9134  0.7444
12690TIP3    H259562   5.976   0.537   0.752 -1.5776  1.7050 -0.1927
12691TIP3   OH259563   6.476   3.714  16.972 -0.0316 -0.1331  0.1285
12691TIP3    H159564   6.442   3.626  16.954 -1.1886  0.4565 -0.6640
12691TIP3    H259565   6.493   3.751  16.885 -1.9774  1.3321  0.3405
12692TIP3   OH259566   5.642   1.020   1.415 -0.8567  0.2644 -0.0736
12692TIP3    H159567   5.663   0.928   1.427  0.3074  0.6694  1.1877
12692TIP3    H259568   5.616   1.050   1.502 -0.0422  1.4064 -0.2039
12693TIP3   OH259569   3.680   2.888   5.931  0.0552  0.3479 -0.4929
12693TIP3    H159570   3.658   2.977   5.903  1.6060  0.5948 -1.0024
12693TIP3    H259571   3.668   2.835   5.852 -0.6994  0.1299 -0.2346
12694TIP3   OH259572   3.643   5.504   0.067  0.0781  0.2862 -0.7275
12694TIP3    H159573   3.657   5.598   0.057  2.0079 -0.1723 -2.4590
12694TIP3    H259574   3.584   5.481  -0.005 -0.1512  0.0962 -0.4811
12695TIP3   OH259575   4.096   0.274   1.905  0.0128 -0.0832  0.4938
12695TIP3    H159576   4.057   0.231   1.829 -0.1799 -0.3165  0.7273
12695TIP3    H259577   4.134   0.203   1.956  2.2665  0.2811 -0.5990
12696TIP3   OH259578   0.833   3.811  16.344  0.7312 -1.0863  0.1261
12696TIP3    H159579   0.879   3.894  16.350 -1.3351  0.3030 -2.2229
12696TIP3    H259580   0.805   3.792  16.434  1.4274  0.6273  0.7210
12697TIP3   OH259581   3.785   1.881  16.622 -0.1028 -0.5989  0.3246
12697TIP3    H159582   3.764   1.961  16.573  1.9470 -0.8283 -0.9998
12697TIP3    H259583   3.880   1.882  16.630 -0.1945 -2.0359  1.8161
12698TIP3   OH259584   4.497   0.123   0.633 -0.3061  0.4542  0.2589
12698TIP3    H159585   4.544   0.107   0.552 -0.2109 -1.2685  0.6379
12698TIP3    H259586   4.559   0.169   0.689  0.4918 -0.6152  0.2663
12699TIP3   OH259587   4.892   4.158  12.352 -0.4388  0.0345 -0.0840
12699TIP3    H159588   4.949   4.095  12.307  0.0247 -0.7840  1.5984
12699TIP3    H259589   4.804   4.134  12.325 -0.1452 -0.0668 -1.0029
12700TIP3   OH259590   0.647   5.071   4.153  0.2409 -0.0199 -0.1209
12700TIP3    H159591   0.733   5.068   4.195  0.3744 -0.0693 -0.3916
12700TIP3    H259592   0.660   5.127   4.076 -0.2097  0.7581  0.3679
12701TIP3   OH259593   2.823   1.796  16.811 -0.1544 -0.0338  0.2070
12701TIP3    H159594   2.804   1.879  16.767 -2.5797 -0.7355 -0.1304
12701TIP3    H259595   2.757   1.736  16.779  0.5177 -1.6574  1.7679
12702TIP3   OH259596   2.408   4.938   0.923  0.1502  0.8471 -0.0283
12702TIP3    H159597   2.327   4.990   0.926  0.6662  1.7752 -1.4779
12702TIP3    H259598   2.402   4.891   0.840  2.1092  2.6395 -1.2269
12703TIP3   OH259599   0.501   5.084   5.716  0.6685 -0.1622  0.0167
12703TIP3    H159600   0.513   5.018   5.785 -0.9198 -1.2704 -0.7502
12703TIP3    H259601   0.428   5.137   5.746 -0.1323 -0.7465 -0.8944
12704TIP3   OH259602   2.800   6.424   0.834 -0.3780  0.3465 -0.1018
12704TIP3    H159603   2.710   6.454   0.821 -1.3507 -1.7332  1.4550
12704TIP3    H259604   2.829   6.395   0.748 -1.4143  0.5067 -0.5093
12705TIP3   OH259605   0.263   1.608  13.138 -0.2995  0.0848 -0.4467
12705TIP3    H159606   0.209   1.646  13.207 -0.2275 -0.6500  0.0204
12705TIP3    H259607   0.200   1.570  13.077 -0.3470  0.3143 -0.5415
12706TIP3   OH259608   5.373   5.909  12.087  0.2077 -0.0210  0.3343
12706TIP3    H159609   5.456   5.862  12.096  1.5911  2.5576  1.8621
12706TIP3    H259610   5.343   5.921  12.177  0.6632  3.2417  0.1003
12707TIP3   OH259611   6.100   2.626  15.504 -1.0387 -0.2016 -0.1828
12707TIP3    H159612   6.071   2.713  15.475  1.5352  0.9721  0.6266
12707TIP3    H259613   6.116   2.578  15.423 -0.3374  0.8313 -0.6712
12708TIP3   OH259614   3.810   3.701   1.047  0.1170  0.2812 -0.2777
12708TIP3    H159615   3.881   3.668   0.992  0.3341  0.9938 -0.4247
12708TIP3    H259616   3.822   3.656   1.131  0.8859  0.5751 -0.2257
12709TIP3   OH259617   0.988   2.042   4.209 -0.6392 -0.4938  0.0564
12709TIP3    H159618   0.953   2.073   4.126  0.1093  2.5381  0.8144
12709TIP3    H259619   0.911   2.036   4.267 -0.6357  1.2905  0.2749
12710TIP3   OH259620   2.981   4.702  14.909  0.0773  0.2528 -0.1697
12710TIP3    H159621   3.067   4.668  14.885 -0.8348 -2.3050  0.0527
12710TIP3    H259622   2.938   4.723  14.826  0.6887  0.9757 -0.3043
12711TIP3   OH259623   0.924   1.532  13.871  0.0821 -0.4089 -0.0835
12711TIP3    H159624   0.908   1.609  13.926 -3.6981 -1.7364  0.8686
12711TIP3    H259625   0.988   1.481  13.921 -0.0887  0.4418  1.0455
12712TIP3   OH259626   5.181   3.187   3.273 -0.2383 -0.2468  0.5493
12712TIP3    H159627   5.185   3.251   3.345 -1.0241 -1.2395  1.4880
12712TIP3    H259628   5.182   3.102   3.316  0.4164 -0.8797 -0.6834
12713TIP3   OH259629   1.530   4.698   1.277 -0.1364  0.1593 -1.0096
12713TIP3    H159630   1.549   4.698   1.371 -0.2858 -0.9152 -0.9765
12713TIP3    H259631   1.553   4.786   1.248 -1.1003  0.8395  0.2477
12714TIP3   OH259632   1.302   0.255  13.833  0.2117  0.1890 -1.0050
12714TIP3    H159633   1.326   0.175  13.878 -0.5086  0.3911 -0.2426
12714TIP3    H259634   1.231   0.293  13.886 -1.3439 -0.0592 -2.8188
12715TIP3   OH259635   2.901   4.530  13.839 -0.3253  0.8906  0.2158
12715TIP3    H159636   2.932   4.521  13.929  2.2612  1.6440 -0.5469
12715TIP3    H259637   2.854   4.613  13.837  2.0687  2.3091  0.2746
12716TIP3   OH259638   3.482   0.410   4.684  0.1915 -0.0208  0.0442
12716TIP3    H159639   3.525   0.470   4.623  0.6275  0.3631  0.7279
12716TIP3    H259640   3.399   0.387   4.641  0.6934 -0.0956 -0.8909
12717TIP3   OH259641   2.652   3.494  13.601  0.0203  0.0483  0.6790
12717TIP3    H159642   2.731   3.509  13.654 -0.1825 -2.1656  1.6681
12717TIP3    H259643   2.662   3.405  13.569 -1.2200  0.4104 -0.7229
12718TIP3   OH259644   4.839   0.586  11.790 -0.6216 -0.4054 -0.0629
12718TIP3    H159645   4.829   0.562  11.698 -2.2506  2.5992 -0.7234
12718TIP3    H259646   4.928   0.557  11.812 -0.5247 -1.9825 -2.2845
12719TIP3   OH259647   2.245   4.817  13.071 -0.0497 -0.0737  0.0173
12719TIP3    H159648   2.195   4.738  13.089  1.2848 -0.7196  0.9891
12719TIP3    H259649   2.182   4.877  13.032 -1.7463 -0.6256  1.8288
12720TIP3   OH259650   4.791   1.539  13.543  0.4893 -0.0931  0.0411
12720TIP3    H159651   4.714   1.513  13.492 -0.1711  1.8112  0.0565
12720TIP3    H259652   4.814   1.459  13.591  0.7237 -1.7304 -2.6722
12721TIP3   OH259653   0.728   2.854  12.308  0.0869  0.0010  0.0716
12721TIP3    H159654   0.694   2.776  12.263 -2.1500  0.2671  1.2118
12721TIP3    H259655   0.777   2.900  12.240 -0.2184 -1.3987 -1.1468
12722TIP3   OH259656   1.870   4.853   0.039  0.4323 -0.2871 -0.5047
12722TIP3    H159657   1.810   4.800   0.092  0.9893 -1.7480 -1.3078
12722TIP3    H259658   1.827   4.939   0.033 -0.6850 -0.7634  0.4654
12723TIP3   OH259659   5.113   0.628   3.104  0.1262  0.2497  0.5623
12723TIP3    H159660   5.046   0.650   3.169 -0.1867  1.2766 -0.0884
12723TIP3    H259661   5.126   0.534   3.114 -1.1626  0.0935  0.9403
12724TIP3   OH259662   5.945   6.060   5.420  0.3935 -0.1319  0.3005
12724TIP3    H159663   5.965   6.136   5.475 -2.1657  2.1835 -1.7448
12724TIP3    H259664   6.010   6.063   5.350 -0.8488  1.4196 -0.8430
12725TIP3   OH259665   5.280   1.281   1.452 -0.4942  0.6000 -0.1690
12725TIP3    H159666   5.187   1.258   1.449 -0.3787 -0.1061  1.1888
12725TIP3    H259667   5.321   1.222   1.388 -0.5265 -1.4414  1.6550
12726TIP3   OH259668   4.732   5.380  17.158 -0.3368 -0.1855  0.1894
12726TIP3    H159669   4.716   5.392  17.065 -2.2587 -1.8078  0.2855
12726TIP3    H259670   4.782   5.299  17.165  1.2330  0.7956  0.4622
12727TIP3   OH259671   0.153   4.926  11.653 -0.0377 -0.3889 -0.2598
12727TIP3    H159672   0.117   4.904  11.567  0.1625 -0.9699 -0.1981
12727TIP3    H259673   0.082   4.973  11.697  0.0116  0.2947 -0.8960
12728TIP3   OH259674   6.468   4.254  12.943 -0.1420 -0.2076  0.0523
12728TIP3    H159675   6.372   4.253  12.940 -0.2149  0.7671  1.1452
12728TIP3    H259676   6.493   4.318  12.876 -0.3083  0.1776  0.3512
12729TIP3   OH259677   4.762   6.210  11.890 -0.2264 -0.1414 -0.0937
12729TIP3    H159678   4.843   6.165  11.914 -0.9456 -0.6416  1.4633
12729TIP3    H259679   4.705   6.141  11.856 -0.4374  0.0003 -0.0287
12730TIP3   OH259680   4.324   0.119  12.351 -0.8197 -0.4163  0.3750
12730TIP3    H159681   4.358   0.090  12.436  1.3215  1.2586  0.1401
12730TIP3    H259682   4.400   0.156  12.307 -1.7673 -1.8169 -2.5431
12731TIP3   OH259683   1.461   3.346  11.827  0.0829  0.3365  0.3729
12731TIP3    H159684   1.377   3.325  11.787 -0.5548  1.0969  1.2980
12731TIP3    H259685   1.441   3.361  11.919  1.1536  0.9721  0.5131
12732TIP3   OH259686   2.063   2.773   4.647 -0.1984  0.0747  0.2722
12732TIP3    H159687   2.112   2.843   4.602  0.1237  1.1320  2.2413
12732TIP3    H259688   2.126   2.701   4.652  0.1493  0.3558  0.0765
12733TIP3   OH259689   2.220   1.818  14.416 -0.5189  0.3808 -0.5337
12733TIP3    H159690   2.287   1.859  14.362  1.2144 -2.0641 -0.3242
12733TIP3    H259691   2.266   1.746  14.460 -3.1473 -0.9875  0.0542
12734TIP3   OH259692   0.509   0.677   4.561  0.0949  0.1135 -0.0168
12734TIP3    H159693   0.594   0.702   4.597  0.5374  1.3739 -1.8896
12734TIP3    H259694   0.472   0.758   4.527  0.0131 -1.1340 -3.0274
12735TIP3   OH259695   4.018   1.662   5.814  0.4791 -0.2571 -0.8090
12735TIP3    H159696   4.031   1.747   5.772  0.4212 -0.2262 -0.7646
12735TIP3    H259697   4.085   1.658   5.882  0.5194 -0.2720 -0.8490
12736TIP3   OH259698   6.666   6.728  14.356  0.1288  0.5228  0.2618
12736TIP3    H159699   6.692   6.637  14.368 -0.2580  0.6281  2.0305
12736TIP3    H259700   6.714   6.775  14.425  0.9749  1.7774 -1.1661
12737TIP3   OH259701   4.615   0.918   2.594  0.2186 -0.2227  0.1750
12737TIP3    H159702   4.627   0.883   2.682  0.1196  0.3623  0.4205
12737TIP3    H259703   4.522   0.937   2.588  0.1653 -0.5806 -0.1787
12738TIP3   OH259704   0.566   2.298  12.934  0.0716  0.3938  0.3436
12738TIP3    H159705   0.525   2.253  13.008  1.2691  0.4998  1.0984
12738TIP3    H259706   0.584   2.386  12.966 -0.3366  0.7604 -0.4261
12739TIP3   OH259707   4.208   6.296  14.866  0.3355  0.7816 -0.4072
12739TIP3    H159708   4.274   6.228  14.852  1.1786  1.7316 -1.1900
12739TIP3    H259709   4.128   6.262  14.826  0.2532 -0.5231  0.8450
12740TIP3   OH259710   3.031   0.623   4.269  0.4945 -0.2162 -0.4440
12740TIP3    H159711   2.939   0.638   4.246  0.2875  0.2497  0.6503
12740TIP3    H259712   3.072   0.597   4.187 -0.8602 -1.5717 -0.7226
12741TIP3   OH259713   6.597   5.404  15.105 -0.5556  0.4927  0.3727
12741TIP3    H159714   6.573   5.333  15.164  1.7834 -0.6229  0.0581
12741TIP3    H259715   6.517   5.423  15.057 -1.6528 -0.7984  1.6097
12742TIP3   OH259716   3.357   3.529  13.564 -0.1364  0.6802  0.2639
12742TIP3    H159717   3.333   3.469  13.493  1.6986  1.3926 -0.9827
12742TIP3    H259718   3.304   3.607  13.548  0.6861  1.0523 -0.6455
12743TIP3   OH259719   1.309   4.633   2.718  0.2552  0.2908  0.0896
12743TIP3    H159720   1.226   4.639   2.672 -0.2863  3.3004  1.3443
12743TIP3    H259721   1.359   4.566   2.670 -1.8579  0.3443 -2.2656
12744TIP3   OH259722   5.138   4.618   1.134  0.5340 -0.0526 -0.6348
12744TIP3    H159723   5.181   4.557   1.074  0.5679  1.1637 -1.8868
12744TIP3    H259724   5.090   4.562   1.195  1.1695 -1.3442 -1.2929
12745TIP3   OH259725   1.241   0.797  14.029 -0.5072  0.2031 -0.0443
12745TIP3    H159726   1.304   0.806  14.101 -0.1239  0.0246 -0.3537
12745TIP3    H259727   1.172   0.861  14.049 -0.5176  0.0002  0.5989
12746TIP3   OH259728   1.548   6.092  16.976 -0.5028  0.0870 -0.2954
12746TIP3    H159729   1.484   6.035  17.019  1.3723 -0.5118  1.7950
12746TIP3    H259730   1.498   6.134  16.906 -2.8186 -1.4484  0.3374
12747TIP3   OH259731   5.246   3.216   3.018 -0.7086 -0.3603 -0.9418
12747TIP3    H159732   5.182   3.276   2.979 -0.4150  0.2872 -0.4340
12747TIP3    H259733   5.215   3.204   3.108 -0.7227 -0.9095 -1.0215
12748TIP3   OH259734   0.783   2.771  14.399 -0.3285  0.0144  0.5893
12748TIP3    H159735   0.863   2.781  14.346 -1.6372 -2.9273 -2.1157
12748TIP3    H259736   0.723   2.836  14.362 -0.3531 -0.1947  0.2580
12749TIP3   OH259737   0.451   5.731  11.178 -0.2380  0.4090  0.1518
12749TIP3    H159738   0.537   5.690  11.169  0.0560  0.6198  1.8139
12749TIP3    H259739   0.466   5.822  11.153 -0.2803  0.1595 -0.8261
12750TIP3   OH259740   4.218   4.272  11.431  0.0666  0.1140 -0.3705
12750TIP3    H159741   4.164   4.292  11.508 -0.4848 -1.4553 -0.3268
12750TIP3    H259742   4.180   4.325  11.361  1.5974  2.8082  0.7790
12751TIP3   OH259743   0.028   0.228   0.501  0.1704  0.0436 -0.4128
12751TIP3    H159744  -0.040   0.292   0.480 -0.3905  0.8293  3.3133
12751TIP3    H259745   0.097   0.244   0.438 -0.7091  3.1726 -0.6716
12752TIP3   OH259746   5.825   0.731   5.553  0.6349  0.4356  0.3983
12752TIP3    H159747   5.808   0.778   5.634  0.7716  0.2332  0.5445
12752TIP3    H259748   5.882   0.659   5.579 -0.5667 -0.5389  0.3802
12753TIP3   OH259749   3.469   4.356  15.494  0.3586  0.1980  0.9523
12753TIP3    H159750   3.440   4.437  15.451  0.8134 -0.3562 -0.4520
12753TIP3    H259751   3.402   4.338  15.559 -0.7194  0.7051  0.0037
12754TIP3   OH259752   2.597   0.934   6.308  0.0386 -0.7259 -0.1768
12754TIP3    H159753   2.663   0.939   6.239 -0.2358 -0.8710 -0.4534
12754TIP3    H259754   2.532   1.000   6.283 -0.2727 -1.0705 -0.2845
12755TIP3   OH259755   4.660   0.500  14.490 -0.4510  0.2495  0.6868
12755TIP3    H159756   4.723   0.429  14.481 -1.6514 -0.6665 -0.7046
12755TIP3    H259757   4.618   0.506  14.405  0.0879  3.0961  0.5556
12756TIP3   OH259758   1.110   0.127  11.693  0.8307 -0.0502  0.2945
12756TIP3    H159759   1.083   0.206  11.646 -0.3279 -0.3751  0.4063
12756TIP3    H259760   1.205   0.137  11.703  0.7899  1.0122 -0.2722
12757TIP3   OH259761   3.198   2.699  17.208 -0.5561  0.0204  0.5438
12757TIP3    H159762   3.155   2.723  17.290  0.0908 -0.9054  1.1589
12757TIP3    H259763   3.288   2.728  17.218 -0.1100 -1.4089  0.7445
12758TIP3   OH259764   0.948   4.351   5.302  0.4238 -0.1402 -0.1874
12758TIP3    H159765   0.920   4.296   5.375  0.9587 -0.4511 -0.2106
12758TIP3    H259766   0.871   4.356   5.245 -0.1594  0.5507  0.6589
12759TIP3   OH259767   0.271   6.548   0.086 -0.4776 -0.0341 -0.3632
12759TIP3    H159768   0.274   6.483   0.016 -0.2886  0.5491 -0.8964
12759TIP3    H259769   0.242   6.499   0.163 -0.6670 -0.6755 -0.8431
12760TIP3   OH259770   4.527   2.248   0.590 -0.1163  0.0590 -0.6240
12760TIP3    H159771   4.500   2.158   0.609  0.6697  0.2035  1.2810
12760TIP3    H259772   4.539   2.249   0.495 -2.4406 -1.1900 -0.9742
12761TIP3   OH259773   2.352   4.085   0.896  1.0664  0.4611 -0.9273
12761TIP3    H159774   2.322   4.148   0.962 -1.8728 -1.1402 -0.6966
12761TIP3    H259775   2.273   4.060   0.848  2.7423 -0.4752 -3.2815
12762TIP3   OH259776   2.844   1.258  11.310 -0.1155  0.0259  0.1056
12762TIP3    H159777   2.873   1.172  11.340 -3.0295 -0.4661  1.6277
12762TIP3    H259778   2.759   1.271  11.352  0.8546  4.2231  1.0199
12763TIP3   OH259779   2.903   1.171  16.007 -0.5728 -0.3217 -0.1304
12763TIP3    H159780   2.819   1.131  16.031 -1.4525 -0.5477 -3.3872
12763TIP3    H259781   2.886   1.216  15.924  1.2290  4.1281  1.7326
12764TIP3   OH259782   0.860   2.401  13.528 -0.2141  0.2215  0.6242
12764TIP3    H159783   0.819   2.446  13.602  1.9717  2.2669  0.6785
12764TIP3    H259784   0.877   2.312  13.559 -0.6460  0.6411  2.0821
12765TIP3   OH259785   5.016   6.629   1.790 -0.3397  0.2420 -0.4814
12765TIP3    H159786   5.016   6.695   1.720 -0.2967  0.0629 -0.6495
12765TIP3    H259787   4.993   6.547   1.746  1.3515 -0.1961 -0.5847
12766TIP3   OH259788   2.622   4.603   5.227  0.8804 -0.0661  0.0703
12766TIP3    H159789   2.613   4.698   5.231 -1.6461 -0.3679  2.2198
12766TIP3    H259790   2.712   4.590   5.197  1.0252  2.9832 -1.0470
12767TIP3   OH259791   1.168   1.955  14.585  0.1646  0.4221  0.8287
12767TIP3    H159792   1.192   1.991  14.670 -1.0706  0.2342  1.2604
12767TIP3    H259793   1.097   1.894  14.604 -1.5082  1.9016 -0.5877
12768TIP3   OH259794   3.983   0.897   4.430  0.6108 -0.5892  0.0297
12768TIP3    H159795   4.003   0.843   4.507  0.0940 -0.3986  0.3022
12768TIP3    H259796   3.901   0.942   4.453 -1.2588 -2.9058 -1.8403
12769TIP3   OH259797   4.271   2.039  15.651  0.1824 -0.6688  0.0337
12769TIP3    H159798   4.354   1.991  15.645  1.3172  0.9122  2.2140
12769TIP3    H259799   4.285   2.118  15.599 -0.1804 -0.6673 -0.0650
12770TIP3   OH259800   4.151   0.848  12.442 -0.2397 -0.3761  0.1569
12770TIP3    H159801   4.056   0.843  12.430 -0.3914  0.3020  0.9870
12770TIP3    H259802   4.168   0.791  12.518  0.0641 -0.7513 -0.1875
12771TIP3   OH259803   0.844   4.443   1.076  0.0680  0.5776  0.4113
12771TIP3    H159804   0.937   4.422   1.065  0.7000  2.5155  1.7441
12771TIP3    H259805   0.817   4.391   1.153 -0.1818 -0.6147 -0.4699
12772TIP3   OH259806   2.925   5.892  11.219 -0.2042  0.0934 -0.0939
12772TIP3    H159807   2.958   5.891  11.129  0.7854 -0.2008  0.2602
12772TIP3    H259808   2.997   5.929  11.270  0.5828 -2.9295  1.0693
12773TIP3   OH259809   0.491   6.742  14.531 -0.2346 -1.1852  0.2497
12773TIP3    H159810   0.452   6.811  14.476  0.7729  2.4151  3.8034
12773TIP3    H259811   0.568   6.713  14.482 -0.4375  0.5410 -1.1412
12774TIP3   OH259812   0.835   5.955  15.189  0.0047  0.3484  0.3155
12774TIP3    H159813   0.761   5.985  15.240  1.4860  0.1706  2.6216
12774TIP3    H259814   0.888   6.034  15.174 -0.4445  0.4146 -1.0343
12775TIP3   OH259815   5.054   2.922  15.989  0.0412 -0.0129 -0.5461
12775TIP3    H159816   5.112   2.998  15.978 -0.2001  0.0166 -1.6615
12775TIP3    H259817   4.966   2.958  15.978 -0.0861 -0.4006 -0.7965
12776TIP3   OH259818   4.150   5.694  14.013 -0.3290  0.0926 -0.1876
12776TIP3    H159819   4.212   5.761  13.988  1.5539 -0.2947  3.1826
12776TIP3    H259820   4.201   5.613  14.015 -1.9681 -1.0304 -1.5744
12777TIP3   OH259821   3.747   4.384  15.204  0.2460 -0.0564 -0.2904
12777TIP3    H159822   3.669   4.329  15.213  1.1384 -1.4281 -0.8900
12777TIP3    H259823   3.734   4.454  15.269 -1.8395  0.1771 -0.9085
12778TIP3   OH259824   0.989   5.336   0.042 -0.4074 -0.3887 -0.1582
12778TIP3    H159825   0.989   5.423   0.003 -2.7351 -1.0357 -1.6927
12778TIP3    H259826   0.945   5.281  -0.023 -0.1687 -2.4299  1.3750
12779TIP3   OH259827   2.977   0.076  13.066 -0.2188  0.2818 -0.4130
12779TIP3    H159828   3.032   0.132  13.012  0.4215 -0.0657 -0.1258
12779TIP3    H259829   2.929   0.022  13.003  0.5262 -0.1270 -0.6322
12780TIP3   OH259830   4.079   6.758   0.365  0.8301  0.4168 -0.7219
12780TIP3    H159831   4.021   6.831   0.341 -1.8251 -0.6129  2.0732
12780TIP3    H259832   4.141   6.797   0.427 -1.5440  0.1576  1.9873
12781TIP3   OH259833   1.668   5.237  11.221 -0.1622 -0.8343 -0.1567
12781TIP3    H159834   1.617   5.242  11.140 -2.8387 -1.3077  1.4350
12781TIP3    H259835   1.702   5.326  11.233  0.0411 -0.6953 -1.6482
12782TIP3   OH259836   5.952   1.735   0.297  0.3005 -0.3537  0.6751
12782TIP3    H159837   6.035   1.691   0.276 -0.5309 -1.9147  0.5449
12782TIP3    H259838   5.978   1.814   0.344  1.9185 -0.1006 -0.6068
12783TIP3   OH259839   4.371   6.486   2.415  0.2464  0.4814  0.3658
12783TIP3    H159840   4.287   6.443   2.427 -0.4242  2.1286  1.8041
12783TIP3    H259841   4.373   6.511   2.322 -0.1284 -1.0015 -0.0492
12784TIP3   OH259842   5.053   1.232  12.506  0.8674  0.0564 -0.1812
12784TIP3    H159843   5.068   1.288  12.430  0.6321  1.1245  0.5555
12784TIP3    H259844   5.046   1.292  12.580  1.3310 -0.9824  0.7310
12785TIP3   OH259845   3.981   4.123  15.589 -0.0524 -0.4558 -0.3072
12785TIP3    H159846   4.002   4.136  15.681  0.5411 -1.3781 -0.3111
12785TIP3    H259847   3.893   4.159  15.580 -0.3901 -0.9688  0.7788
12786TIP3   OH259848   4.676   1.618  12.205  0.1463 -0.2540 -1.0145
12786TIP3    H159849   4.606   1.594  12.144 -0.6763  1.0672 -0.6030
12786TIP3    H259850   4.702   1.534  12.245 -1.2682 -0.7524 -1.0976
12787TIP3   OH259851   5.940   0.468   2.496  0.3731 -0.4152  0.1131
12787TIP3    H159852   5.950   0.563   2.501  1.0934 -0.3382 -2.3208
12787TIP3    H259853   5.900   0.453   2.410 -0.5536 -2.2527  0.8472
12788TIP3   OH259854   1.194   6.113   3.551 -0.5661  0.4107 -0.3787
12788TIP3    H159855   1.118   6.054   3.553 -0.0200 -0.2580  2.0674
12788TIP3    H259856   1.157   6.200   3.564 -0.9897  0.1766 -0.0102
12789TIP3   OH259857   5.996   0.040   5.846 -0.0245 -0.7522 -0.0714
12789TIP3    H159858   5.932  -0.025   5.877 -1.0028 -0.0305 -0.5609
12789TIP3    H259859   5.943   0.114   5.818  1.0927  0.3247  0.6069
12790TIP3   OH259860   6.665   6.470  15.158 -0.1821  0.1760 -0.1720
12790TIP3    H159861   6.622   6.385  15.160  0.0325  0.0194 -1.7453
12790TIP3    H259862   6.668   6.498  15.250  0.9452 -2.1107  0.5190
12791TIP3   OH259863   6.041   5.464  13.578 -0.1131  0.0352 -0.1886
12791TIP3    H159864   5.950   5.438  13.592 -0.9493  2.8619 -0.1292
12791TIP3    H259865   6.088   5.431  13.655 -1.4782  0.3920  0.8029
12792TIP3   OH259866   0.135   0.090   5.629  0.0166  0.5033  0.4194
12792TIP3    H159867   0.169   0.161   5.683 -0.1601  0.6202  0.3785
12792TIP3    H259868   0.186   0.014   5.655  1.5443  1.0522 -0.9313
12793TIP3   OH259869   3.815   6.701  11.274 -0.0178  0.3262 -0.0229
12793TIP3    H159870   3.792   6.625  11.328 -0.9329  1.3282  1.0270
12793TIP3    H259871   3.856   6.664  11.196 -2.9207 -1.3754 -0.8048
12794TIP3   OH259872   3.991   2.997   6.255  0.1306 -0.5226  0.7335
12794TIP3    H159873   3.987   3.042   6.340 -1.3353 -0.3028  0.5599
12794TIP3    H259874   4.061   3.042   6.208 -0.5637  0.8602  0.9833
12795TIP3   OH259875   2.860   0.148  16.357  0.2046  0.7038  0.2604
12795TIP3    H159876   2.822   0.191  16.434 -0.9658  0.3799 -0.1193
12795TIP3    H259877   2.954   0.145  16.374  0.0610  1.5544  1.2182
12796TIP3   OH259878   0.583   1.738   1.073  0.1591  0.1692 -0.0264
12796TIP3    H159879   0.492   1.767   1.075  0.0438 -0.2205  0.7013
12796TIP3    H259880   0.630   1.808   1.029 -0.1401  1.3715  1.5498
12797TIP3   OH259881   4.139   2.398   2.984  0.0605  0.8279  0.0692
12797TIP3    H159882   4.122   2.473   2.927 -1.4012  0.6672  0.2748
12797TIP3    H259883   4.067   2.398   3.047  0.0048 -0.7866  0.0394
12798TIP3   OH259884   5.669   4.380   5.088 -0.2361 -0.3124  0.4902
12798TIP3    H159885   5.684   4.449   5.153  0.0962  0.1900 -0.1207
12798TIP3    H259886   5.751   4.331   5.086 -0.3536 -0.5177  0.6716
12799TIP3   OH259887   4.634   2.356   2.505  0.1100 -0.1504  0.9093
12799TIP3    H159888   4.587   2.330   2.427  3.0724 -0.4257 -0.8488
12799TIP3    H259889   4.593   2.307   2.576 -0.4971 -2.3868 -0.9459
12800TIP3   OH259890   3.780   6.131   4.767 -0.0604 -0.0280 -0.1835
12800TIP3    H159891   3.768   6.038   4.784 -0.4381  0.1999  0.8743
12800TIP3    H259892   3.760   6.173   4.851  0.7355  0.9511 -0.4771
12801TIP3   OH259893   3.764   0.582   5.279  0.5137 -0.5177  0.0408
12801TIP3    H159894   3.803   0.535   5.353  2.0102  1.8442  0.8058
12801TIP3    H259895   3.820   0.659   5.267 -1.1085  0.3997 -2.0193
12802TIP3   OH259896   1.303   1.569   4.718 -0.5449  0.3687 -0.1237
12802TIP3    H159897   1.242   1.515   4.669 -1.4100  0.7558  0.5268
12802TIP3    H259898   1.332   1.513   4.790  0.1258  0.0786 -0.5991
12803TIP3   OH259899   0.081   1.074   5.150  0.3457 -0.0648  0.0950
12803TIP3    H159900   0.153   1.089   5.211  0.4803 -1.0860  0.2075
12803TIP3    H259901   0.101   0.989   5.110  0.4783  0.7920 -1.7068
12804TIP3   OH259902   5.186   6.716   3.318  0.2325 -0.3212 -0.1554
12804TIP3    H159903   5.202   6.811   3.321 -1.7087  0.0186  0.1758
12804TIP3    H259904   5.273   6.677   3.327  1.2323  1.4333 -1.8648
12805TIP3   OH259905   4.062   0.465  12.857  0.0966  0.6619 -0.1012
12805TIP3    H159906   4.065   0.370  12.851 -0.4916  0.6499 -0.3082
12805TIP3    H259907   4.113   0.487  12.935  0.4253  0.1918 -0.1885
12806TIP3   OH259908   5.644   5.905   4.200 -0.1421  0.1176  0.4050
12806TIP3    H159909   5.556   5.906   4.163 -0.1013  0.0039  0.3045
12806TIP3    H259910   5.699   5.868   4.130  0.0058  0.3119  0.4178
12807TIP3   OH259911   6.077   3.158   0.695  0.1523  0.0912 -0.3954
12807TIP3    H159912   5.986   3.157   0.724  0.1014  1.0666 -0.4800
12807TIP3    H259913   6.092   3.071   0.659 -0.7008 -0.1287 -0.2381
12808TIP3   OH259914   4.494   2.899   1.708 -0.1884  0.0249 -0.0825
12808TIP3    H159915   4.497   2.886   1.802 -0.9133 -0.1645 -0.0802
12808TIP3    H259916   4.482   2.993   1.696 -1.2008 -0.0780  0.0465
12809TIP3   OH259917   0.544   5.980   5.193 -0.0707 -0.3213 -0.4691
12809TIP3    H159918   0.454   5.950   5.180 -0.8020  1.5012  0.1835
12809TIP3    H259919   0.594   5.900   5.210 -1.8498 -1.2091  0.6995
12810TIP3   OH259920   5.384   6.032   4.551  0.3487  0.3223  0.3738
12810TIP3    H159921   5.460   6.076   4.513  0.3080  0.1852  0.1338
12810TIP3    H259922   5.422   5.962   4.605  0.3459 -1.1186 -1.4403
12811TIP3   OH259923   2.211   4.629   6.877  0.4485  1.0154 -0.0052
12811TIP3    H159924   2.255   4.714   6.871 -1.4227  1.8387 -3.2052
12811TIP3    H259925   2.132   4.638   6.824 -0.2260 -2.4678  0.2413
12812TIP3   OH259926   3.782   6.002  14.523  0.0751  0.3545  0.2537
12812TIP3    H159927   3.771   5.961  14.437  0.5199 -1.4008  1.0171
12812TIP3    H259928   3.871   6.037  14.521  1.2697 -2.4683  1.1071
12813TIP3   OH259929   2.164   2.824   0.455 -0.2173 -0.1002  0.2343
12813TIP3    H159930   2.069   2.826   0.471 -0.5337 -1.6908 -1.2880
12813TIP3    H259931   2.202   2.861   0.534 -2.1898  2.4205  0.0801
12814TIP3   OH259932   4.113   0.222  16.385  0.0557  0.3637 -0.0726
12814TIP3    H159933   4.021   0.241  16.367 -0.1113 -0.8422 -0.5549
12814TIP3    H259934   4.161   0.280  16.325 -0.4480 -0.9681 -1.8104
12815TIP3   OH259935   0.506   5.118  10.538 -0.2731  0.1548  0.4330
12815TIP3    H159936   0.439   5.180  10.569  0.1171 -0.1386  1.8544
12815TIP3    H259937   0.556   5.169  10.474  1.5472  2.1274  3.3032
12816TIP3   OH259938   3.592   5.056   1.346  0.0306  0.0680  0.3207
12816TIP3    H159939   3.545   5.139   1.350  0.0952  0.1741 -0.8339
12816TIP3    H259940   3.682   5.078   1.369 -0.5799 -0.2626  3.2749
12817TIP3   OH259941   4.804   3.066  13.743  0.1796 -0.6302  0.3399
12817TIP3    H159942   4.800   3.033  13.653 -0.9702 -0.2303  0.2348
12817TIP3    H259943   4.877   3.128  13.742  1.3650 -1.9920  0.1583
12818TIP3   OH259944   3.668   5.882   0.492 -0.2517  0.8316 -0.9446
12818TIP3    H159945   3.737   5.820   0.468  0.5450  1.9389 -1.5691
12818TIP3    H259946   3.665   5.879   0.588  1.5861  1.7413 -0.8339
12819TIP3   OH259947   1.813   6.318   5.001  0.0587 -0.1723 -0.5557
12819TIP3    H159948   1.857   6.243   4.960 -1.9721 -1.6741 -0.0511
12819TIP3    H259949   1.812   6.296   5.094  0.4782  1.0422 -0.2616
12820TIP3   OH259950   0.640   4.912   1.153  0.2313 -0.2308  0.2551
12820TIP3    H159951   0.633   4.911   1.248  1.9032  0.5508  0.4057
12820TIP3    H259952   0.602   4.828   1.125  0.7191 -0.9455  1.6846
12821TIP3   OH259953   3.962   0.011  11.457  0.1522 -0.0840  0.4644
12821TIP3    H159954   3.879   0.057  11.463 -1.0269 -2.2949  1.7964
12821TIP3    H259955   3.944  -0.063  11.398  0.9322 -1.0249  1.3768
12822TIP3   OH259956   5.135   4.320  17.150 -0.1955 -0.4358 -0.1451
12822TIP3    H159957   5.083   4.265  17.091 -1.5619 -0.4403  1.0108
12822TIP3    H259958   5.133   4.273  17.233  2.5838 -0.9482 -0.3308
12823TIP3   OH259959   5.718   4.653  14.639 -0.1068 -0.2681 -0.5916
12823TIP3    H159960   5.804   4.685  14.611  0.0219 -0.9250 -0.9524
12823TIP3    H259961   5.658   4.726  14.622  0.5841  0.6664  0.8628
12824TIP3   OH259962   1.409   3.022  16.355  0.4127  0.3555  0.1886
12824TIP3    H159963   1.482   3.037  16.295  1.1043  0.2917  1.0005
12824TIP3    H259964   1.448   3.027  16.443 -0.5504  0.2781  0.6341
12825TIP3   OH259965   3.260   5.403   3.359 -0.5228 -0.5145 -0.5997
12825TIP3    H159966   3.326   5.472   3.366 -0.1655 -0.7614 -1.5439
12825TIP3    H259967   3.309   5.322   3.372 -0.5912 -0.7141 -1.5602
12826TIP3   OH259968   1.020   6.561  15.306  0.3507  0.2304  0.1652
12826TIP3    H159969   0.929   6.532  15.301  0.4334 -0.5223  2.5155
12826TIP3    H259970   1.069   6.493  15.260 -0.0187 -0.6826  1.0932
12827TIP3   OH259971   3.977   2.621  14.618 -0.3728 -0.3627  0.2170
12827TIP3    H159972   3.917   2.695  14.629  0.3061  0.4551 -1.3836
12827TIP3    H259973   3.931   2.561  14.560 -0.5702 -0.8105  0.8291
12828TIP3   OH259974   1.430   2.083  12.723 -0.6547 -0.4083 -0.4065
12828TIP3    H159975   1.525   2.094  12.730 -0.6172 -0.7843 -0.2914
12828TIP3    H259976   1.404   2.140  12.651 -0.2705 -0.6918 -0.7696
12829TIP3   OH259977   0.903   2.008   2.146 -0.1651 -0.0668  0.5978
12829TIP3    H159978   0.922   1.948   2.218 -0.3432 -0.7203  0.1083
12829TIP3    H259979   0.817   2.045   2.168  1.0619  1.8957  2.1429
12830TIP3   OH259980   0.913   2.415  13.203  0.0174  0.3646  0.0592
12830TIP3    H159981   0.972   2.340  13.209  1.2000  1.2751 -0.0284
12830TIP3    H259982   0.831   2.385  13.242  1.2388 -0.2310  2.2324
12831TIP3   OH259983   5.034   1.176   1.399  0.1211  0.2017  0.3506
12831TIP3    H159984   5.041   1.081   1.410  1.3095  0.4320  1.7617
12831TIP3    H259985   4.948   1.197   1.436 -0.3747 -0.3837 -0.4517
12832TIP3   OH259986   4.303   6.744   2.012  0.3321  0.3938 -0.1852
12832TIP3    H159987   4.291   6.829   2.053  0.0120  0.6057 -0.7079
12832TIP3    H259988   4.305   6.762   1.918  1.5631 -0.0229 -0.2500
12833TIP3   OH259989   3.147   6.026   4.723  0.3624  0.3864  0.0902
12833TIP3    H159990   3.225   6.004   4.774  0.0793 -0.3224  0.2262
12833TIP3    H259991   3.181   6.055   4.639  0.8641  2.3736  0.9655
12834TIP3   OH259992   6.074   2.644  15.207 -0.0830 -0.5783 -0.0152
12834TIP3    H159993   5.993   2.610  15.169 -0.2585  1.6541 -1.6859
12834TIP3    H259994   6.053   2.734  15.232  1.2993 -0.6317  1.4151
12835TIP3   OH259995   2.644   6.199   2.562 -0.1881  0.1608 -0.4858
12835TIP3    H159996   2.597   6.180   2.481 -0.3511 -1.3715 -0.0514
12835TIP3    H259997   2.611   6.284   2.591 -1.1400  0.0678 -1.3006
12836TIP3   OH259998   1.604   2.098   2.592  0.0380  0.4020  0.4247
12836TIP3    H159999   1.628   2.185   2.625  2.5381  0.5313 -1.5923
12836TIP3    H260000   1.515   2.110   2.557  0.0746  1.9721  0.8137
12837TIP3   OH260001   6.567   3.641   3.477  0.1431 -0.0796  0.1743
12837TIP3    H160002   6.472   3.628   3.475 -0.1413  1.9576 -0.3955
12837TIP3    H260003   6.596   3.594   3.555 -1.0580 -2.4327 -0.7499
12838TIP3   OH260004   1.923   1.310  11.322 -0.3693  0.3222  0.1468
12838TIP3    H160005   1.998   1.334  11.377  1.0597 -0.4317 -1.4625
12838TIP3    H260006   1.898   1.392  11.278  1.8427 -0.1707 -2.1101
12839TIP3   OH260007   2.401   4.364   2.351 -0.1791  0.4090  0.0268
12839TIP3    H160008   2.380   4.336   2.261  0.5934  2.8451 -0.9558
12839TIP3    H260009   2.475   4.308   2.376  0.4988  0.6373 -1.3896
12840TIP3   OH260010   5.236   2.086  15.397 -0.0185  0.1331  0.1749
12840TIP3    H160011   5.249   2.099  15.491  1.7930 -0.0406 -0.0271
12840TIP3    H260012   5.258   2.171  15.358 -3.9375  1.2247  0.1246
12841TIP3   OH260013   5.154   5.968  13.568  0.2775 -0.5155 -0.3604
12841TIP3    H160014   5.128   6.060  13.568 -0.8315 -0.8107 -1.5326
12841TIP3    H260015   5.203   5.957  13.649 -0.0861  0.9669  0.0824
12842TIP3   OH260016   0.844   5.815   0.450  0.4791 -0.3512  0.1647
12842TIP3    H160017   0.884   5.840   0.366  1.0457  2.8682  1.3349
12842TIP3    H260018   0.750   5.817   0.433  0.6091 -0.4363 -0.6006
12843TIP3   OH260019   3.116   4.343  13.405  0.1829  0.1288  0.0946
12843TIP3    H160020   3.038   4.374  13.451  1.0246 -1.1692  2.4457
12843TIP3    H260021   3.189   4.373  13.459  1.1891 -1.4346 -0.3685
12844TIP3   OH260022   1.481   6.519   1.419  0.1175 -0.8321 -0.9654
12844TIP3    H160023   1.564   6.492   1.380  0.5985  0.4135 -0.8070
12844TIP3    H260024   1.501   6.531   1.512 -0.5250 -1.6705 -0.7066
12845TIP3   OH260025   2.614   2.037   5.564  0.5943  0.0416 -0.7543
12845TIP3    H160026   2.636   2.105   5.500  2.6659 -0.8106 -0.9828
12845TIP3    H260027   2.693   1.983   5.571 -0.0656 -0.7088  1.5100
12846TIP3   OH260028   0.499   3.195  13.206  0.0816  0.1501 -0.8274
12846TIP3    H160029   0.412   3.163  13.230  0.5591  0.7548  1.8666
12846TIP3    H260030   0.560   3.142  13.258  1.1344  1.9628 -0.1418
12847TIP3   OH260031   5.577   3.812  16.187 -0.0302  0.1100  0.6037
12847TIP3    H160032   5.496   3.776  16.152  0.0807 -0.7079  1.1620
12847TIP3    H260033   5.588   3.767  16.271  0.6139  0.7596  0.8674
12848TIP3   OH260034   2.404   4.445  15.980  0.5498 -0.0234  0.1571
12848TIP3    H160035   2.329   4.470  15.925  0.0090 -1.3814  0.2336
12848TIP3    H260036   2.371   4.452  16.070  0.1283 -1.7043  0.1576
12849TIP3   OH260037   2.263   3.518   0.171 -0.2457 -0.3462  0.3077
12849TIP3    H160038   2.295   3.604   0.197 -1.4683  0.0142  0.6842
12849TIP3    H260039   2.196   3.497   0.236 -0.5699 -1.1867 -0.2896
12850TIP3   OH260040   0.280   1.382  17.156  0.0660 -0.4028  0.4346
12850TIP3    H160041   0.319   1.295  17.162 -1.1734 -0.8722  1.7894
12850TIP3    H260042   0.355   1.440  17.141  1.0139 -1.5690  0.5524
12851TIP3   OH260043   3.731   5.980  13.105 -0.2462  0.3368  0.1578
12851TIP3    H160044   3.659   6.042  13.118 -1.0155 -0.7865  1.5878
12851TIP3    H260045   3.765   5.964  13.193 -0.8873 -2.1646  0.0136
12852TIP3   OH260046   1.565   3.128  14.903 -0.4130 -0.6017  0.2561
12852TIP3    H160047   1.625   3.200  14.923 -1.2795  0.4428 -0.7879
12852TIP3    H260048   1.618   3.049  14.910  0.3421  0.0716  2.2857
12853TIP3   OH260049   6.703   0.497  17.177 -0.3970 -0.3737 -0.2738
12853TIP3    H160050   6.690   0.508  17.271  0.1067 -1.1531 -0.1093
12853TIP3    H260051   6.726   0.584  17.145  1.3084 -0.4825  0.6248
12854TIP3   OH260052   3.626   4.060   4.331  0.8118 -0.4701  0.1616
12854TIP3    H160053   3.693   4.129   4.328  1.9563 -1.5894 -0.4400
12854TIP3    H260054   3.668   3.988   4.379 -0.7902 -0.3255  1.8093
12855TIP3   OH260055   6.578   2.711   3.169 -0.5273 -0.1256  0.3473
12855TIP3    H160056   6.558   2.782   3.108  0.3399  0.3075  0.5619
12855TIP3    H260057   6.643   2.748   3.228 -2.1218 -0.1939  2.1961
12856TIP3   OH260058   3.644   5.774   3.243  0.0890  0.3546  0.0353
12856TIP3    H160059   3.711   5.840   3.230 -1.1960  1.4415 -1.1577
12856TIP3    H260060   3.680   5.695   3.202  1.4497  0.3960  1.1139
12857TIP3   OH260061   2.106   6.164  14.588  0.9446 -0.2221  0.3674
12857TIP3    H160062   2.041   6.095  14.572  0.4317  0.2402  0.4275
12857TIP3    H260063   2.064   6.220  14.653  1.9522 -0.6592  1.4123
12858TIP3   OH260064   0.826   6.423  12.830  0.6020 -0.3767 -0.5039
12858TIP3    H160065   0.906   6.397  12.876 -0.5561 -0.7551  1.4026
12858TIP3    H260066   0.806   6.510  12.865 -0.5160 -0.8411  0.0543
12859TIP3   OH260067   2.755   3.899  15.712  0.7944 -0.2885  0.5864
12859TIP3    H160068   2.785   3.813  15.682  1.7115 -0.7776  2.8095
12859TIP3    H260069   2.659   3.891  15.715  0.8269 -0.9622  0.0220
12860TIP3   OH260070   0.884   3.388  16.252 -0.0906 -0.2179 -0.1761
12860TIP3    H160071   0.818   3.419  16.313 -1.7605  0.4084 -2.2432
12860TIP3    H260072   0.856   3.421  16.167  1.9490 -1.4117 -1.3600
12861TIP3   OH260073   5.053   2.225   4.992  0.5429 -0.0894  0.3893
12861TIP3    H160074   5.144   2.253   4.994 -0.3412  3.0173 -0.1766
12861TIP3    H260075   5.042   2.172   5.071  1.6313  3.6540  3.1537
12862TIP3   OH260076   3.433   0.122   6.466 -0.0414  0.7830 -0.4241
12862TIP3    H160077   3.421   0.051   6.529 -0.8002  0.9105 -0.4180
12862TIP3    H260078   3.385   0.196   6.504 -0.3584  0.9097 -1.0614
12863TIP3   OH260079   4.977   5.495  13.138  0.2067  0.2507  0.2088
12863TIP3    H160080   4.970   5.513  13.231 -1.9321 -1.2520  0.3705
12863TIP3    H260081   4.909   5.549  13.097  0.3702  0.0349 -0.3582
12864TIP3   OH260082   5.069   1.276  13.245  0.4583 -0.3809  0.2805
12864TIP3    H160083   5.090   1.369  13.235  1.8369 -0.8713 -1.7655
12864TIP3    H260084   4.990   1.264  13.191  1.3290 -0.7376 -0.9415
12865TIP3   OH260085   3.029   1.731  15.115 -0.2971 -0.1797  0.3615
12865TIP3    H160086   2.956   1.789  15.090  0.2817  0.1174 -0.6435
12865TIP3    H260087   3.000   1.691  15.197 -1.0395  0.9418  0.6618
12866TIP3   OH260088   5.289   0.719   6.205  0.2407 -0.0496  0.6091
12866TIP3    H160089   5.205   0.735   6.249 -0.2894 -1.1570  0.0182
12866TIP3    H260090   5.279   0.759   6.119 -0.7877 -2.7521 -0.5663
12867TIP3   OH260091   3.514   6.793   5.325 -0.8284 -0.1184  0.7268
12867TIP3    H160092   3.488   6.845   5.402 -0.9849  0.8019  0.0718
12867TIP3    H260093   3.431   6.778   5.278 -0.7895 -1.0246  0.9526
12868TIP3   OH260094   6.282   1.406  13.341  0.0740 -0.0872 -0.0783
12868TIP3    H160095   6.253   1.459  13.416 -3.8350  0.0290 -1.5565
12868TIP3    H260096   6.280   1.316  13.373  1.0651  0.1858  0.7523
12869TIP3   OH260097   6.800   5.845   2.668 -0.3613 -0.3530 -0.3505
12869TIP3    H160098   6.757   5.780   2.613  0.3321 -0.9134 -0.2336
12869TIP3    H260099   6.866   5.885   2.611 -0.9021  0.3651 -0.4726
12870TIP3   OH260100   5.552   4.674   0.265 -0.3040  0.0340 -0.4483
12870TIP3    H160101   5.489   4.700   0.333 -0.5075 -0.2510 -0.5289
12870TIP3    H260102   5.627   4.731   0.281  0.0362 -0.6968  0.6388
12871TIP3   OH260103   4.793   3.127   5.196 -0.5520  0.0311 -0.1338
12871TIP3    H160104   4.865   3.171   5.242 -0.3792  0.8309 -1.1405
12871TIP3    H260105   4.717   3.141   5.252 -0.7312  2.5895 -0.9544
12872TIP3   OH260106   1.673   2.123  12.277 -0.3000  0.2649 -0.3359
12872TIP3    H160107   1.611   2.190  12.248 -0.9255  0.1419  0.7189
12872TIP3    H260108   1.686   2.068  12.199  0.0549  1.4728 -1.1484
12873TIP3   OH260109   2.597   1.737   1.833  0.1483  0.7283  0.3299
12873TIP3    H160110   2.505   1.709   1.836 -0.0354  1.2699 -0.0457
12873TIP3    H260111   2.637   1.695   1.908 -0.0702 -0.6747 -0.3262
12874TIP3   OH260112   3.970   3.463  12.297 -0.0859 -0.4853 -0.3882
12874TIP3    H160113   4.031   3.534  12.280  0.5939 -1.3122 -1.4047
12874TIP3    H260114   3.994   3.394  12.235 -0.6676 -1.6491  0.6604
12875TIP3   OH260115   1.671   6.635   4.106 -0.0879  0.4532 -0.0067
12875TIP3    H160116   1.747   6.593   4.066  0.6222  0.9376  0.8087
12875TIP3    H260117   1.650   6.581   4.182 -0.2999  0.5586  0.0125
12876TIP3   OH260118   4.555   2.226   5.019 -0.2988  0.0484  0.1213
12876TIP3    H160119   4.549   2.225   4.924 -0.4261  2.7098  0.0443
12876TIP3    H260120   4.464   2.229   5.049 -0.2529 -0.4772  0.3195
12877TIP3   OH260121   2.579   3.723   1.110  0.5229 -0.6506 -0.8025
12877TIP3    H160122   2.532   3.769   1.180 -1.1374 -2.3698 -0.7459
12877TIP3    H260123   2.571   3.780   1.034  1.8579  0.9758  0.2145
12878TIP3   OH260124   4.559   1.260   1.896 -0.5231  0.0107  0.1738
12878TIP3    H160125   4.501   1.186   1.878 -0.9740  0.6589 -1.0932
12878TIP3    H260126   4.648   1.224   1.887 -0.7341 -0.6526  0.7450
12879TIP3   OH260127   5.925   2.376  13.317  0.1102 -0.3558  0.1649
12879TIP3    H160128   5.881   2.407  13.396  0.3925 -1.9005  0.9469
12879TIP3    H260129   5.969   2.295  13.344 -0.7564 -1.5266 -1.8586
12880TIP3   OH260130   1.712   0.963  13.451  0.5432  0.1968  0.0210
12880TIP3    H160131   1.637   0.982  13.508 -1.2854  0.7555 -2.5131
12880TIP3    H260132   1.713   0.868  13.444 -0.1680  0.2053 -0.2451
12881TIP3   OH260133   1.935   1.052   5.949  0.2056 -0.5160 -0.0107
12881TIP3    H160134   1.885   1.102   6.014 -0.6420 -0.3354 -0.7920
12881TIP3    H260135   1.958   1.117   5.882  0.1427 -0.9319 -0.4319
12882TIP3   OH260136   3.924   2.833   5.167  0.0948  0.3348 -0.0177
12882TIP3    H160137   3.950   2.792   5.084  1.2877  1.6327 -0.2924
12882TIP3    H260138   3.849   2.781   5.196  0.2451 -0.7158 -1.4400
12883TIP3   OH260139   6.268   2.118   4.404  0.6451  0.0902  0.3962
12883TIP3    H160140   6.226   2.194   4.363  1.7454  1.1856  1.2199
12883TIP3    H260141   6.223   2.042   4.368 -1.7774  1.2006  0.9864
12884TIP3   OH260142   3.971   4.697   5.063 -0.1561 -0.4906 -0.4707
12884TIP3    H160143   4.066   4.703   5.054 -0.1408 -2.4480 -1.9803
12884TIP3    H260144   3.936   4.753   4.993 -0.1485  1.5975  1.1605
12885TIP3   OH260145   5.873   3.627  16.438  0.4038  0.2807 -0.9621
12885TIP3    H160146   5.931   3.642  16.363  0.9588  1.3674 -0.3281
12885TIP3    H260147   5.905   3.547  16.478  1.0433  0.5133 -1.0086
12886TIP3   OH260148   1.803   6.201   4.469  0.0189  0.2256 -0.0388
12886TIP3    H160149   1.747   6.251   4.409 -0.7285 -2.1051 -1.3616
12886TIP3    H260150   1.863   6.154   4.411  0.7675 -0.3356  1.1835
12887TIP3   OH260151   4.872   6.631   3.994  0.0127 -0.0227  0.3018
12887TIP3    H160152   4.917   6.557   4.035 -0.6936  0.0960  1.3012
12887TIP3    H260153   4.831   6.678   4.067  0.9088  1.6661 -0.2624
12888TIP3   OH260154   3.830   0.970   1.563  0.1947  0.1658 -0.6318
12888TIP3    H160155   3.901   0.925   1.517  0.6036  1.5995 -1.4274
12888TIP3    H260156   3.864   1.058   1.580 -0.4866  0.0963  1.1642
12889TIP3   OH260157   1.135   1.322   2.502  0.3525 -0.1475  0.5839
12889TIP3    H160158   1.162   1.238   2.465  1.1692  0.2915  0.1727
12889TIP3    H260159   1.217   1.365   2.528  0.1227  1.4169 -1.1383
12890TIP3   OH260160   0.335   2.658   3.516 -1.0095 -0.3002 -0.0068
12890TIP3    H160161   0.280   2.734   3.531  0.2559  0.7200 -0.4645
12890TIP3    H260162   0.325   2.605   3.595 -2.2052  0.1431  0.1417
12891TIP3   OH260163   0.641   4.419   6.301  0.5486 -0.1578 -0.2795
12891TIP3    H160164   0.603   4.404   6.387  0.6813 -1.7634 -0.4848
12891TIP3    H260165   0.653   4.332   6.264  0.7441  0.4938 -1.8191
12892TIP3   OH260166   2.750   3.627   1.920 -0.0751 -0.4030  0.0178
12892TIP3    H160167   2.783   3.671   1.842 -0.2700  0.2565  0.3011
12892TIP3    H260168   2.736   3.698   1.983  1.7312 -1.1290  1.2498
12893TIP3   OH260169   4.765   4.007  10.885  0.9182 -0.1702 -0.2003
12893TIP3    H160170   4.713   3.951  10.827 -1.3356  0.6878  0.9002
12893TIP3    H260171   4.854   4.000  10.852  0.3999 -3.0185 -1.1508
12894TIP3   OH260172   1.228   0.260  13.391 -0.0939  0.2885  0.3370
12894TIP3    H160173   1.206   0.307  13.472 -1.1289  0.4208 -0.0051
12894TIP3    H260174   1.323   0.254  13.392 -0.1842 -1.4727  2.5549
12895TIP3   OH260175   2.742   2.339  11.549 -0.1348 -0.0137 -0.1651
12895TIP3    H160176   2.791   2.345  11.467  1.4656  0.2321  0.7897
12895TIP3    H260177   2.806   2.309  11.614 -2.3392 -4.2080  0.2062
12896TIP3   OH260178   3.257   2.876  14.202  0.0137  0.3773  0.3252
12896TIP3    H160179   3.321   2.809  14.177 -1.4067 -0.5567 -0.8834
12896TIP3    H260180   3.280   2.897  14.292  1.7034 -0.3235  0.0892
12897TIP3   OH260181   3.776   0.297  12.115 -0.8784 -0.0492  0.1504
12897TIP3    H160182   3.860   0.320  12.154 -2.2941  3.3959  1.3777
12897TIP3    H260183   3.766   0.357  12.042 -1.1930 -2.1190 -1.5528
12898TIP3   OH260184   2.786   4.568   2.048 -0.2128 -0.2594 -0.3352
12898TIP3    H160185   2.869   4.557   2.002  0.3258 -0.4597  0.6568
12898TIP3    H260186   2.811   4.570   2.141 -1.4194 -1.3273  0.0157
12899TIP3   OH260187   2.891   6.256  13.389 -0.2141 -0.1202  0.2221
12899TIP3    H160188   2.906   6.186  13.453 -0.4556 -0.0540  0.3544
12899TIP3    H260189   2.878   6.211  13.306  1.1766 -0.1644  0.0069
12900TIP3   OH260190   0.636   3.219   6.419  0.3452  0.5010  0.5527
12900TIP3    H160191   0.581   3.295   6.439 -0.0862  0.0937  0.9142
12900TIP3    H260192   0.723   3.256   6.402 -0.0112  1.1336  0.1000
12901TIP3   OH260193   1.285   0.389   0.339  0.6506  0.2339 -0.6978
12901TIP3    H160194   1.192   0.378   0.358  0.8282  0.4284  0.2869
12901TIP3    H260195   1.330   0.342   0.409  1.2900 -4.4431 -4.0263
12902TIP3   OH260196   6.015   2.625  14.515 -0.5290  0.4579  0.7914
12902TIP3    H160197   6.016   2.713  14.552  0.4925  0.5245  0.6355
12902TIP3    H260198   6.019   2.567  14.591 -2.9411  0.4909  0.9846
12903TIP3   OH260199   0.071   0.908   4.336 -0.1579  0.6163 -0.0322
12903TIP3    H160200   0.063   0.838   4.271 -2.6821  1.3046 -0.5232
12903TIP3    H260201   0.119   0.868   4.408 -0.2248 -1.1625 -0.9462
12904TIP3   OH260202   4.873   4.568   4.164  0.2503  0.1766 -0.6133
12904TIP3    H160203   4.883   4.535   4.253 -1.5197  0.1938 -0.3951
12904TIP3    H260204   4.839   4.494   4.114  2.6576 -0.2913 -1.6459
12905TIP3   OH260205   5.340   0.642   0.366 -0.3491  0.7836  0.0058
12905TIP3    H160206   5.321   0.696   0.442 -3.1056  0.8380 -0.6918
12905TIP3    H260207   5.265   0.583   0.359  0.4947 -0.0929 -1.8976
12906TIP3   OH260208   1.245   0.898   2.759 -0.2773 -0.3031 -0.0331
12906TIP3    H160209   1.337   0.874   2.749 -0.5326 -1.6159  0.6685
12906TIP3    H260210   1.223   0.874   2.849 -0.9032  1.4010  0.2775
12907TIP3   OH260211   4.725   6.042  16.746 -0.0627 -0.1083  0.0164
12907TIP3    H160212   4.639   6.024  16.710 -0.5015 -2.6219  2.1997
12907TIP3    H260213   4.707   6.087  16.829  0.6055 -2.4696  1.4894
12908TIP3   OH260214   6.101   1.158   5.352 -0.1166  0.1318 -0.5969
12908TIP3    H160215   6.093   1.069   5.385 -1.9663 -0.7364 -3.2690
12908TIP3    H260216   6.081   1.213   5.428 -2.5091 -1.7619  0.2313
12909TIP3   OH260217   3.939   4.794  11.278 -0.6029  0.6295 -0.5568
12909TIP3    H160218   3.945   4.707  11.239 -0.1175  1.2678 -1.9435
12909TIP3    H260219   4.028   4.831  11.269 -1.2522  1.9716 -1.6922
12910TIP3   OH260220   3.749   5.691  12.936 -0.0120 -0.3735 -0.2383
12910TIP3    H160221   3.725   5.757  13.001 -0.7874  0.4437 -1.3346
12910TIP3    H260222   3.835   5.719  12.904 -0.2727  0.0221 -0.5931
12911TIP3   OH260223   6.398   4.213   0.726  0.4137 -0.4617  0.0769
12911TIP3    H160224   6.318   4.178   0.766  0.5080 -1.0461 -0.2350
12911TIP3    H260225   6.449   4.135   0.702  1.1147 -0.0898  0.3447
12912TIP3   OH260226   4.888   1.656   5.804  0.0696 -0.4070 -0.0701
12912TIP3    H160227   4.961   1.618   5.755  1.0912  0.7801  0.5238
12912TIP3    H260228   4.928   1.694   5.882 -1.2971 -0.5391  0.7133
12913TIP3   OH260229   0.993   4.102  15.488  0.3203 -0.5168 -0.1264
12913TIP3    H160230   0.907   4.114  15.529  0.1797  1.8723 -1.0472
12913TIP3    H260231   1.053   4.089  15.561 -0.7668 -1.9451  0.5387
12914TIP3   OH260232   4.595   2.988   0.553 -0.6885 -0.4679 -0.0277
12914TIP3    H160233   4.599   3.060   0.616  0.0707 -1.3834  0.9852
12914TIP3    H260234   4.626   3.026   0.471  2.9732 -0.4148  1.2676
12915TIP3   OH260235   0.953   3.832  11.079  0.2218 -0.6187  0.6400
12915TIP3    H160236   0.880   3.785  11.037  0.3601  0.4269 -0.8436
12915TIP3    H260237   1.028   3.813  11.024  0.3753  0.9292  0.2895
12916TIP3   OH260238   5.748   1.749   0.878  0.0442 -0.3199 -0.7890
12916TIP3    H160239   5.742   1.690   0.954 -0.6329 -0.5208 -1.0007
12916TIP3    H260240   5.831   1.726   0.837  0.8660  0.4145  0.4145
12917TIP3   OH260241   2.121   2.435   3.490  0.0635 -0.2188  0.0798
12917TIP3    H160242   2.153   2.345   3.497  0.8397  0.0207 -0.3646
12917TIP3    H260243   2.048   2.430   3.428  2.2253 -0.0203 -2.5802
12918TIP3   OH260244   2.138   5.816  13.366 -0.5963  0.1396  0.1159
12918TIP3    H160245   2.100   5.791  13.282  0.0097 -1.3969  0.2784
12918TIP3    H260246   2.225   5.851  13.345 -1.2948  1.7807 -0.0802
12919TIP3   OH260247   6.157   2.034  14.661 -0.3152 -0.1417  0.1130
12919TIP3    H160248   6.123   1.994  14.580  1.6024  1.4310 -1.5248
12919TIP3    H260249   6.214   1.967  14.699 -1.6677 -1.1009  0.4708
12920TIP3   OH260250   5.034   4.921  14.697 -0.0648 -0.5240 -0.3700
12920TIP3    H160251   4.942   4.944  14.698  0.2491  0.6746  1.7422
12920TIP3    H260252   5.077   4.987  14.751  1.9641 -1.3863 -0.8646
12921TIP3   OH260253   2.618   3.068  13.602  0.2310  0.7660  0.7806
12921TIP3    H160254   2.548   3.129  13.578 -1.3533 -0.9435  0.9358
12921TIP3    H260255   2.592   3.035  13.688 -0.7371 -2.6529 -0.7219
12922TIP3   OH260256   2.822   2.894  11.930  0.2496  0.1969 -0.4035
12922TIP3    H160257   2.898   2.895  11.872 -0.4315  2.8300 -1.3502
12922TIP3    H260258   2.833   2.971  11.986 -1.0037 -0.1998  0.4325
12923TIP3   OH260259   5.396   0.402  16.301 -0.1076 -0.7546 -0.2647
12923TIP3    H160260   5.371   0.433  16.388  2.2228 -0.3596  0.3174
12923TIP3    H260261   5.482   0.441  16.286 -0.2554 -1.2355 -2.5451
12924TIP3   OH260262   1.046   1.925   0.384 -0.0287 -0.4229  0.4365
12924TIP3    H160263   1.008   2.013   0.380 -0.1935 -0.3691  2.5673
12924TIP3    H260264   1.121   1.934   0.443  1.0342 -1.3446 -0.7497
12925TIP3   OH260265   0.479   3.203  16.709  0.1217 -0.2382 -0.2223
12925TIP3    H160266   0.534   3.264  16.759  0.5782 -0.3406 -0.6022
12925TIP3    H260267   0.394   3.209  16.752 -0.4826  2.3827 -1.6469
12926TIP3   OH260268   1.546   4.370  14.828  0.1256  0.4357  0.1449
12926TIP3    H160269   1.553   4.452  14.876 -1.8290 -0.4472  2.0080
12926TIP3    H260270   1.622   4.319  14.855 -0.4376  0.3332  1.5860
12927TIP3   OH260271   6.805   1.068   2.308 -0.0217 -0.0447  0.4608
12927TIP3    H160272   6.805   0.980   2.346  1.3979  1.0005  3.0172
12927TIP3    H260273   6.838   1.056   2.219 -2.2174 -2.3980 -0.1328
12928TIP3   OH260274   0.271   4.826  17.093 -0.1119  0.3747 -1.2068
12928TIP3    H160275   0.244   4.765  17.162  0.2840 -0.6245 -1.9214
12928TIP3    H260276   0.319   4.895  17.140  1.8951 -1.3273 -0.6728
12929TIP3   OH260277   2.349   2.732  12.075 -0.2518 -0.0165 -0.0750
12929TIP3    H160278   2.295   2.657  12.098 -0.8217  0.1699 -0.7741
12929TIP3    H260279   2.372   2.718  11.983  1.9757 -0.7510  0.5729
12930TIP3   OH260280   6.494   2.553  14.703 -0.0356  0.2135 -0.4208
12930TIP3    H160281   6.500   2.503  14.785 -1.4484  0.2180 -0.3177
12930TIP3    H260282   6.495   2.645  14.731  2.5415  0.2875 -0.6107
12931TIP3   OH260283   1.987   1.753   2.985 -0.0547 -0.2491 -0.0648
12931TIP3    H160284   2.035   1.688   2.934  1.8767  0.4951  0.7439
12931TIP3    H260285   2.010   1.837   2.945 -0.0898  0.1701  0.7731
12932TIP3   OH260286   4.727   1.637  16.860 -0.1868 -0.2603  0.0873
12932TIP3    H160287   4.725   1.547  16.826  0.7601 -0.1043 -0.3617
12932TIP3    H260288   4.820   1.658  16.869 -0.3977  0.9094 -0.3957
12933TIP3   OH260289   0.194   2.980   0.524 -0.2745  0.0528 -0.0525
12933TIP3    H160290   0.175   2.997   0.432 -1.0138  0.6971  0.2149
12933TIP3    H260291   0.112   2.997   0.569  0.5300  1.4285  0.9468
12934TIP3   OH260292   6.395   3.747  16.679 -0.2617  0.2033 -0.2012
12934TIP3    H160293   6.398   3.737  16.584 -0.8865 -0.4603 -0.1479
12934TIP3    H260294   6.315   3.795  16.696 -0.9261 -0.9853  0.0990
12935TIP3   OH260295   0.877   2.651   3.067  0.7376  0.1431 -0.6837
12935TIP3    H160296   0.850   2.597   2.993 -1.2049 -1.1307  0.9052
12935TIP3    H260297   0.922   2.590   3.126 -0.8326  0.3966  0.7952
12936TIP3   OH260298   1.391   1.526   4.012  0.1435  0.2516  0.7567
12936TIP3    H160299   1.425   1.438   3.992 -0.3804 -0.4954  2.9426
12936TIP3    H260300   1.454   1.562   4.074 -0.2551  0.9542  0.7512
12937TIP3   OH260301   2.716   1.435  12.573  0.5624 -0.3102  0.0101
12937TIP3    H160302   2.719   1.341  12.558  3.4236 -0.5984  1.9923
12937TIP3    H260303   2.754   1.473  12.494 -2.0580 -0.6671 -1.4847
12938TIP3   OH260304   5.501   0.456  15.258 -0.2986 -0.3972 -0.0817
12938TIP3    H160305   5.538   0.543  15.272  0.1016 -0.9311  2.3615
12938TIP3    H260306   5.577   0.401  15.236 -0.5698 -0.1179 -1.7638
12939TIP3   OH260307   6.143   1.202  16.284 -0.0948  0.1364  0.1844
12939TIP3    H160308   6.117   1.123  16.236  0.7600  0.0274 -0.1096
12939TIP3    H260309   6.226   1.228  16.243 -1.1487  2.0926 -0.7716
12940TIP3   OH260310   0.737   2.491   1.481  0.7268 -0.0651  0.1979
12940TIP3    H160311   0.701   2.403   1.487 -0.3840  0.2192 -1.8801
12940TIP3    H260312   0.684   2.543   1.542 -0.0820 -0.3825 -0.2290
12941TIP3   OH260313   4.515   6.630  12.006 -0.0628  0.0214 -0.1741
12941TIP3    H160314   4.511   6.542  11.969  1.6708  0.8406 -2.3809
12941TIP3    H260315   4.605   6.639  12.037 -0.1551  1.1075 -0.1992
12942TIP3   OH260316   1.694   4.725   0.239  0.4955 -0.0462 -0.6321
12942TIP3    H160317   1.751   4.703   0.313 -0.5299 -0.2622  0.1129
12942TIP3    H260318   1.687   4.643   0.190 -0.4393 -0.4622  0.1630
12943TIP3   OH260319   2.394   2.104  13.706  0.3634 -0.1909 -0.0087
12943TIP3    H160320   2.353   2.024  13.741 -0.6168  0.2204 -0.1870
12943TIP3    H260321   2.400   2.162  13.782  1.8065 -0.7086  0.2934
12944TIP3   OH260322   4.556   5.875   5.240  0.9064  0.4566 -0.4785
12944TIP3    H160323   4.502   5.940   5.286  0.2804  0.8080 -1.7084
12944TIP3    H260324   4.623   5.851   5.305  0.3717  1.3613  0.4366
12945TIP3   OH260325   5.164   5.457   4.724  0.2728  0.1793  0.4279
12945TIP3    H160326   5.110   5.463   4.803 -0.2318  0.1080  0.0849
12945TIP3    H260327   5.143   5.372   4.687  1.6156 -0.4298  1.0144
12946TIP3   OH260328   5.769   3.225   4.235 -0.0401  0.7336  0.7257
12946TIP3    H160329   5.714   3.193   4.164 -0.7221 -0.3115  1.6952
12946TIP3    H260330   5.725   3.305   4.264 -1.1090 -0.1098  1.5124
12947TIP3   OH260331   5.378   6.458  15.007 -0.1844 -0.2885  0.3351
12947TIP3    H160332   5.440   6.528  14.985 -1.0214  0.4813  0.4039
12947TIP3    H260333   5.420   6.411  15.079  0.5127 -0.0352  0.1018
12948TIP3   OH260334   2.534   0.515  16.580  0.2760  0.1011  0.8547
12948TIP3    H160335   2.546   0.510  16.485 -1.5797 -0.3676  0.6385
12948TIP3    H260336   2.616   0.479  16.616  1.2486  0.8695 -0.5483
12949TIP3   OH260337   6.629   4.933   0.881 -0.1449 -0.0766 -0.0873
12949TIP3    H160338   6.698   4.987   0.843 -0.1865  0.3425  0.4143
12949TIP3    H260339   6.549   4.984   0.869  0.1668  1.1952  2.6581
12950TIP3   OH260340   4.025   4.329   5.031  0.3625 -0.1950 -0.6501
12950TIP3    H160341   4.042   4.309   5.123  0.7797  0.4761 -0.5782
12950TIP3    H260342   3.952   4.392   5.034  0.4749 -0.0601 -0.7690
12951TIP3   OH260343   5.278   1.752  16.366  0.4991  0.1353  0.0386
12951TIP3    H160344   5.270   1.776  16.458 -0.9289 -0.5820  0.1052
12951TIP3    H260345   5.325   1.669  16.367  0.4436  0.1048  0.1071
12952TIP3   OH260346   3.267   3.939  14.311 -0.2107  0.2051 -0.1932
12952TIP3    H160347   3.348   3.890  14.294  1.3723  2.8637 -0.6129
12952TIP3    H260348   3.247   3.921  14.403  0.8056 -0.5687 -0.1119
12953TIP3   OH260349   3.561   2.212  11.608 -0.1289  0.5915  0.2763
12953TIP3    H160350   3.503   2.288  11.612 -1.0941 -0.2228  2.9262
12953TIP3    H260351   3.607   2.212  11.692  0.4915 -1.2738 -0.0292
12954TIP3   OH260352   6.435   2.086   1.354  0.1808  0.2848 -0.4634
12954TIP3    H160353   6.398   2.043   1.278 -0.4474 -0.1574  0.0913
12954TIP3    H260354   6.359   2.123   1.400  0.5236  0.2312  0.1448
12955TIP3   OH260355   1.285   0.934   3.709  0.3160 -0.3575  0.3171
12955TIP3    H160356   1.276   0.892   3.623 -0.6584 -0.7757  0.6259
12955TIP3    H260357   1.244   0.873   3.770 -2.6174  1.7689  0.5767
12956TIP3   OH260358   2.689   1.375   2.732 -0.0233 -0.4104  0.0364
12956TIP3    H160359   2.690   1.466   2.699 -2.0503 -0.3189  0.1729
12956TIP3    H260360   2.770   1.367   2.782  1.2644  0.6460 -1.8030
12957TIP3   OH260361   4.832   4.589  14.563  0.2722  0.5370 -0.4117
12957TIP3    H160362   4.862   4.526  14.497 -0.1359 -0.6593  0.5283
12957TIP3    H260363   4.862   4.553  14.646 -0.9203  1.0084  0.2358
12958TIP3   OH260364   0.304   2.389  12.114 -0.0991  0.6219 -0.4770
12958TIP3    H160365   0.260   2.473  12.124 -0.2386  0.5265 -0.2854
12958TIP3    H260366   0.327   2.364  12.204 -0.5689  0.1799 -0.4768
12959TIP3   OH260367   5.222   3.532  16.635 -0.1280  0.0460  0.0079
12959TIP3    H160368   5.212   3.443  16.601 -0.5852  0.5429 -1.1785
12959TIP3    H260369   5.195   3.525  16.727  0.8763 -1.2532  0.2296
12960TIP3   OH260370   2.746   1.668   2.149 -0.0812  0.6994 -0.2956
12960TIP3    H160371   2.805   1.675   2.074  0.4026  0.4421  0.0591
12960TIP3    H260372   2.778   1.592   2.198 -1.1096  0.1634 -0.4566
12961TIP3   OH260373   4.873   2.072  12.529  0.2585 -0.2160  0.1819
12961TIP3    H160374   4.968   2.063  12.539  0.3127 -1.4596 -1.1504
12961TIP3    H260375   4.836   2.012  12.594  0.3043  2.4659  2.7463
12962TIP3   OH260376   6.683   6.218  11.981 -0.2174 -0.0617 -0.5038
12962TIP3    H160377   6.642   6.249  12.062  2.3644  0.2503  0.7338
12962TIP3    H260378   6.640   6.269  11.912 -0.2843  1.9321  0.9671
12963TIP3   OH260379   3.920   0.607  16.783  0.3352  0.0758  0.3987
12963TIP3    H160380   4.002   0.603  16.832  0.0149 -0.9107  0.8646
12963TIP3    H260381   3.947   0.614  16.692  0.9425 -0.8204  0.5061
12964TIP3   OH260382   0.858   2.643  10.954 -0.0836 -0.0872  0.1373
12964TIP3    H160383   0.918   2.576  10.921  1.2134  2.0932 -2.1426
12964TIP3    H260384   0.795   2.657  10.883  0.4468  1.9832  0.0215
12965TIP3   OH260385   4.243   1.098  12.546  0.4359  0.0521  0.0976
12965TIP3    H160386   4.178   1.159  12.581  0.6781  0.7227 -0.5837
12965TIP3    H260387   4.196   1.015  12.538 -0.2822  0.4739 -0.1869
12966TIP3   OH260388   5.460   1.142  13.047  0.8728 -0.1051 -0.3544
12966TIP3    H160389   5.404   1.079  13.092 -1.3213  2.4311  0.5710
12966TIP3    H260390   5.439   1.226  13.086  3.2833  1.3480 -2.0008
12967TIP3   OH260391   1.823   4.005  13.556 -0.0651 -0.5012 -0.4052
12967TIP3    H160392   1.746   3.961  13.520  0.3981 -0.3910 -1.5749
12967TIP3    H260393   1.838   4.079  13.497  0.3701  0.0379  0.3645
12968TIP3   OH260394   6.386   6.816  14.414 -0.2935  0.6893 -0.2180
12968TIP3    H160395   6.471   6.794  14.375 -0.4477 -0.0512 -0.1402
12968TIP3    H260396   6.332   6.738  14.399 -0.9423  1.1395 -0.2212
12969TIP3   OH260397   1.457   0.311   4.893 -0.1468 -1.1202  0.0404
12969TIP3    H160398   1.433   0.402   4.880 -0.1185 -1.5061 -3.3802
12969TIP3    H260399   1.378   0.269   4.925 -0.5421 -0.1412  0.3590
12970TIP3   OH260400   1.983   1.324  13.364  0.0759  0.3403  0.2088
12970TIP3    H160401   2.065   1.368  13.386  0.6377  0.8297 -2.6649
12970TIP3    H260402   1.932   1.390  13.317 -0.8217 -0.8041 -0.4554
12971TIP3   OH260403   1.267   3.188   0.587  0.4126 -0.0943 -0.3196
12971TIP3    H160404   1.192   3.248   0.581 -0.2715 -0.9905 -0.8903
12971TIP3    H260405   1.264   3.154   0.676 -1.3178 -1.9738 -1.0687
12972TIP3   OH260406   1.075   6.452   0.048  0.8766  0.5504 -0.1481
12972TIP3    H160407   1.059   6.538   0.008  1.2410  0.0479 -1.3904
12972TIP3    H260408   0.992   6.405   0.037  1.2247  0.1349 -1.0260
12973TIP3   OH260409   3.790   1.990   0.625  0.2239  0.8366 -0.0308
12973TIP3    H160410   3.879   1.956   0.623 -0.4204 -0.8955 -0.3445
12973TIP3    H260411   3.800   2.085   0.614  2.1200  0.8743  1.6972
12974TIP3   OH260412   0.706   3.037   2.677 -0.0101 -0.1890 -0.0836
12974TIP3    H160413   0.718   2.949   2.712 -1.7264 -0.0972  0.7685
12974TIP3    H260414   0.675   3.089   2.752  0.2284  0.9557 -0.7616
12975TIP3   OH260415   1.517   0.925   0.791 -0.5593 -0.4205 -0.5457
12975TIP3    H160416   1.503   0.926   0.696  0.2199 -1.4855 -0.6845
12975TIP3    H260417   1.432   0.901   0.828 -0.7220 -0.5610 -1.0110
12976TIP3   OH260418   5.007   5.410  15.853  0.3134 -0.4397 -0.0188
12976TIP3    H160419   5.085   5.400  15.799  0.3469 -1.9979  0.3107
12976TIP3    H260420   5.040   5.424  15.941  0.2114 -1.3599  0.1637
12977TIP3   OH260421   4.863   4.255  16.527 -0.1523  0.2967  0.5895
12977TIP3    H160422   4.829   4.197  16.595 -1.2200  0.4557  0.2114
12977TIP3    H260423   4.789   4.311  16.505  0.4903  0.9229  0.0246
12978TIP3   OH260424   3.164   0.060   0.738 -0.1102  0.3616  0.1166
12978TIP3    H160425   3.227   0.128   0.761 -0.2695 -0.1280  2.0663
12978TIP3    H260426   3.103   0.103   0.678  0.6140  1.5332  0.2018
12979TIP3   OH260427   3.443   5.035   4.010  0.2984 -0.6553 -0.0115
12979TIP3    H160428   3.519   5.093   4.008 -0.6594  0.6641  1.2018
12979TIP3    H260429   3.475   4.956   4.053  1.2477 -0.5197 -0.4383
12980TIP3   OH260430   1.241   5.046  17.069 -0.0590  0.6990  0.3972
12980TIP3    H160431   1.212   5.055  17.160  1.5325 -0.0801  0.9837
12980TIP3    H260432   1.285   5.129  17.050  3.0855 -0.6567  1.6166
12981TIP3   OH260433   5.642   5.212  16.425 -0.4445  0.4345  0.3924
12981TIP3    H160434   5.685   5.294  16.400 -0.7863 -0.3800 -3.2384
12981TIP3    H260435   5.702   5.170  16.486  1.7568  1.4099 -1.0504
12982TIP3   OH260436   3.391   5.224   4.248  0.5946 -0.5286  0.1544
12982TIP3    H160437   3.374   5.151   4.189 -0.2681 -0.4560  0.3120
12982TIP3    H260438   3.453   5.280   4.201 -0.4693 -0.2138 -0.8865
12983TIP3   OH260439   3.778   0.966   5.161 -0.1055  0.0293  0.3140
12983TIP3    H160440   3.817   1.047   5.129  0.3928  0.0854  1.0460
12983TIP3    H260441   3.724   0.935   5.089 -1.2264  1.6150  0.4460
12984TIP3   OH260442   0.528   5.764   0.120 -0.4773 -0.6905 -0.2534
12984TIP3    H160443   0.503   5.791   0.032  1.0398  1.2735 -0.1071
12984TIP3    H260444   0.539   5.669   0.113  1.4284 -0.3355 -2.6542
12985TIP3   OH260445   2.112   5.703  12.081 -0.2096 -0.4623 -0.2299
12985TIP3    H160446   2.051   5.632  12.057 -0.4314 -0.7780  1.2113
12985TIP3    H260447   2.115   5.700  12.177 -0.7514  1.9360 -0.1208
12986TIP3   OH260448   1.132   6.115   1.329 -0.2146  0.1060  0.4272
12986TIP3    H160449   1.122   6.021   1.321  0.3887 -0.0114  1.0777
12986TIP3    H260450   1.047   6.150   1.304 -0.4126 -0.6045  0.0979
12987TIP3   OH260451   2.333   3.186  12.266  0.7672 -0.6245  0.2812
12987TIP3    H160452   2.308   3.098  12.238  0.0587 -0.1066 -0.7080
12987TIP3    H260453   2.271   3.208  12.335  2.8828 -2.1387  2.7728
12988TIP3   OH260454   3.891   5.193  12.671 -0.8157 -0.7233  0.3409
12988TIP3    H160455   3.858   5.246  12.598  1.7745 -0.1391 -0.4620
12988TIP3    H260456   3.831   5.118  12.675 -1.4498 -0.3769 -1.8789
12989TIP3   OH260457   6.687   4.528   3.286 -0.4873 -0.0089  0.0643
12989TIP3    H160458   6.675   4.587   3.211 -1.1915 -0.5447 -0.2496
12989TIP3    H260459   6.702   4.442   3.247  1.2736  0.0869  0.5154
12990TIP3   OH260460   6.058   4.849   0.373 -0.1884  0.3144  0.3329
12990TIP3    H160461   5.988   4.813   0.428  0.4272 -0.4970  0.5938
12990TIP3    H260462   6.091   4.774   0.324 -1.1277  1.1394 -1.6055
12991TIP3   OH260463   0.350   3.494   0.980 -0.1951  0.2298  0.5025
12991TIP3    H160464   0.347   3.573   1.034 -0.6364  1.6534 -1.5069
12991TIP3    H260465   0.272   3.445   1.005  0.8939 -0.3423  2.8588
12992TIP3   OH260466   3.543   6.587   3.794  0.2189  0.4364  0.1100
12992TIP3    H160467   3.639   6.584   3.798  0.2278  0.2223 -0.2147
12992TIP3    H260468   3.523   6.580   3.701 -0.0698  2.2153  0.0301
12993TIP3   OH260469   2.834   5.159   0.037 -0.4557 -0.3123  0.0975
12993TIP3    H160470   2.862   5.197   0.121 -0.3519  0.5476 -0.3219
12993TIP3    H260471   2.895   5.088   0.021 -1.6563 -1.7505  1.7134
12994TIP3   OH260472   2.654   1.501  16.054  0.1422  0.3747 -0.1618
12994TIP3    H160473   2.670   1.490  16.148 -0.4231 -0.1595 -0.1236
12994TIP3    H260474   2.722   1.561  16.025  1.4202 -0.8724  0.2309
12995TIP3   OH260475   6.542   0.495  11.228  0.4257 -0.4919  0.2557
12995TIP3    H160476   6.584   0.421  11.184 -0.1180 -0.5346 -0.1923
12995TIP3    H260477   6.449   0.483  11.212  0.4827  1.5799 -1.8578
12996TIP3   OH260478   2.544   0.141  16.920 -0.0910 -0.5763  0.0695
12996TIP3    H160479   2.492   0.164  16.843  2.1114 -0.3085 -1.3690
12996TIP3    H260480   2.493   0.073  16.964 -2.2469  0.5448 -0.6230
12997TIP3   OH260481   4.222   2.337   0.124  0.5235 -0.3350  0.2556
12997TIP3    H160482   4.315   2.342   0.103  0.2255 -1.8602 -1.5119
12997TIP3    H260483   4.178   2.368   0.045 -0.5219 -1.8048  0.2512
12998TIP3   OH260484   6.385   6.798  14.081 -0.2395 -0.7966  0.4621
12998TIP3    H160485   6.301   6.780  14.123 -0.8928 -1.8044 -1.2023
12998TIP3    H260486   6.393   6.730  14.014 -0.0959  1.8011 -2.2668
12999TIP3   OH260487   3.226   3.484   0.260  0.0539 -0.0047  0.0323
12999TIP3    H160488   3.215   3.575   0.233 -2.1315  0.1246  1.2613
12999TIP3    H260489   3.215   3.433   0.180 -2.1423  0.6279 -0.0908
13000TIP3   OH260490   3.986   0.078   4.331 -0.3165 -0.0061  0.7202
13000TIP3    H160491   3.918   0.035   4.280  1.8881 -0.7431 -1.7381
13000TIP3    H260492   3.948   0.162   4.357 -1.3879  0.5575 -2.4831
13001TIP3   OH260493   4.637   5.648   1.058  0.5318  0.2152  0.0324
13001TIP3    H160494   4.594   5.563   1.061 -1.3364  1.2113  3.0434
13001TIP3    H260495   4.577   5.703   1.006  0.5864  0.3153  0.0759
13002TIP3   OH260496   5.409   2.291   0.717 -0.2250  0.0333  0.7154
13002TIP3    H160497   5.348   2.354   0.679 -1.8226 -1.4055  0.8398
13002TIP3    H260498   5.434   2.330   0.801 -1.9031  0.0981  1.2030
13003TIP3   OH260499   0.804   3.935   1.942 -0.4547  0.2869 -0.4367
13003TIP3    H160500   0.751   3.903   2.016  1.2662 -3.6940 -0.7872
13003TIP3    H260501   0.743   3.939   1.869 -0.8870 -1.8444 -0.2403
13004TIP3   OH260502   5.524   1.520  15.101 -0.2987  0.1949 -0.2491
13004TIP3    H160503   5.479   1.564  15.173 -1.1658  0.9406 -1.2447
13004TIP3    H260504   5.469   1.445  15.080 -0.9740  0.9991 -1.3400
13005TIP3   OH260505   1.411   1.525  17.018  0.3920 -0.2021  0.8044
13005TIP3    H160506   1.455   1.584  16.957 -1.1876  1.4550  1.2142
13005TIP3    H260507   1.443   1.551  17.104  1.1415 -1.2379  0.8474
13006TIP3   OH260508   0.988   2.259  13.912 -0.3207  0.3402  0.1355
13006TIP3    H160509   0.991   2.232  13.820 -0.2925  0.7178  0.0252
13006TIP3    H260510   0.976   2.178  13.961  3.1139 -0.3008  0.0313
13007TIP3   OH260511   4.389   2.006   5.477  0.4541  0.3244  0.3901
13007TIP3    H160512   4.464   2.028   5.534  0.6872 -2.7242  1.3366
13007TIP3    H260513   4.427   1.950   5.410 -0.7026  0.1618 -0.1213
13008TIP3   OH260514   6.159   2.188   1.373  0.4301 -0.5051 -0.2424
13008TIP3    H160515   6.152   2.281   1.349 -0.0970 -0.0566  1.5768
13008TIP3    H260516   6.105   2.180   1.452  2.8283 -1.7331  1.3284
13009TIP3   OH260517   1.857   3.549  15.779 -0.6537 -0.1058  0.2909
13009TIP3    H160518   1.952   3.546  15.782 -0.4493  3.3769 -0.4310
13009TIP3    H260519   1.832   3.483  15.715  1.3131 -0.7068  0.1305
13010TIP3   OH260520   0.581   5.463  15.468  0.6618  0.5378  0.3090
13010TIP3    H160521   0.576   5.368  15.483  1.0930  0.4594 -0.0278
13010TIP3    H260522   0.540   5.502  15.545  0.3379  0.0725  0.3740
13011TIP3   OH260523   5.918   1.305   1.662 -0.0226  0.6677 -0.2403
13011TIP3    H160524   5.936   1.336   1.750  0.3983  0.0577 -0.1091
13011TIP3    H260525   5.986   1.346   1.608  1.2089 -0.8792  0.1055
13012TIP3   OH260526   3.194   5.244   0.882  0.3076 -0.6484  0.4106
13012TIP3    H160527   3.196   5.154   0.848  0.8293 -0.8214  0.8778
13012TIP3    H260528   3.184   5.299   0.804  0.4237 -1.0901  0.0786
13013TIP3   OH260529   4.988   6.554  13.233  0.4705  0.7479 -0.3400
13013TIP3    H160530   5.063   6.543  13.173 -0.0160  1.0394 -1.0069
13013TIP3    H260531   4.919   6.591  13.178 -0.0534  0.8129  0.3611
13014TIP3   OH260532   6.089   3.187   5.613 -0.1887 -0.1812 -0.2076
13014TIP3    H160533   6.107   3.281   5.617  0.8228 -0.3250 -1.2073
13014TIP3    H260534   5.997   3.180   5.640 -0.6372  1.2228 -1.2670
13015TIP3   OH260535   5.622   3.600   0.112 -0.1733  0.1099 -0.2438
13015TIP3    H160536   5.546   3.658   0.115  1.0545  1.8513 -1.7872
13015TIP3    H260537   5.690   3.647   0.160  0.0748 -1.2613  0.7863
13016TIP3   OH260538   4.736   5.935   2.722  0.5690 -0.0146 -0.0490
13016TIP3    H160539   4.682   5.942   2.801 -1.3416  1.2178 -1.4269
13016TIP3    H260540   4.826   5.926   2.755 -0.4683 -2.2886  2.2755
13017TIP3   OH260541   6.404   2.279  14.009 -0.1263  0.0067  0.1148
13017TIP3    H160542   6.464   2.206  14.029 -0.9215 -0.4111  1.0011
13017TIP3    H260543   6.412   2.290  13.914  1.5985  0.1748  0.2519
13018TIP3   OH260544   5.398   0.955   5.456 -0.5576  0.0303  0.4949
13018TIP3    H160545   5.429   1.035   5.498 -1.2818  0.9610 -0.7262
13018TIP3    H260546   5.445   0.885   5.501  0.8007  1.1960  0.9287
13019TIP3   OH260547   0.853   2.614  11.326  0.6020 -0.3058  0.1139
13019TIP3    H160548   0.887   2.549  11.388  2.0518  0.3562  0.0419
13019TIP3    H260549   0.768   2.640  11.361  0.2529 -1.8225  0.4421
13020TIP3   OH260550   5.055   0.329  13.642 -0.1371 -0.0553 -0.3342
13020TIP3    H160551   5.034   0.251  13.693 -0.8020  1.3908  1.6898
13020TIP3    H260552   5.012   0.316  13.558 -1.2056 -1.3498  0.3968
13021TIP3   OH260553   4.418   4.095  15.989 -0.4929  0.2894 -0.6509
13021TIP3    H160554   4.341   4.042  16.012  1.8063 -2.3973  1.2097
13021TIP3    H260555   4.438   4.144  16.068  2.1254 -2.1978  0.3114
13022TIP3   OH260556   6.342   2.621   2.417  0.5738  0.3406  0.1367
13022TIP3    H160557   6.277   2.592   2.353 -1.4701  2.8046  1.0044
13022TIP3    H260558   6.304   2.596   2.502  1.7195 -0.0094  0.5476
13023TIP3   OH260559   2.468   1.300   4.719  0.9969  0.7745 -0.2073
13023TIP3    H160560   2.465   1.325   4.626 -0.2446  0.2582 -0.3102
13023TIP3    H260561   2.501   1.210   4.718  0.8289  0.7134 -0.1517
13024TIP3   OH260562   4.027   6.400  16.790 -0.0972  0.0080  0.4469
13024TIP3    H160563   3.968   6.463  16.747 -1.0860 -0.5015  1.0245
13024TIP3    H260564   4.109   6.448  16.802 -1.3380  1.7518  2.3593
13025TIP3   OH260565   5.021   4.685  12.127  0.5418  0.6090 -0.2777
13025TIP3    H160566   5.046   4.593  12.122 -0.0142  0.4621 -0.4237
13025TIP3    H260567   4.934   4.684  12.169  0.6922  1.0902  0.0541
13026TIP3   OH260568   3.057   3.734  14.820  0.1349 -0.0584  0.2950
13026TIP3    H160569   3.141   3.748  14.863  0.2836 -1.0499  0.3436
13026TIP3    H260570   2.992   3.745  14.889  0.2184  0.8287  0.2307
13027TIP3   OH260571   5.149   3.643  16.362 -0.3845 -0.4383 -0.2055
13027TIP3    H160572   5.151   3.633  16.457  2.5076  3.2408  0.2134
13027TIP3    H260573   5.073   3.699  16.345  0.3859  0.7339  0.1708
13028TIP3   OH260574   5.153   2.738   0.295 -0.8067  0.3069 -0.9055
13028TIP3    H160575   5.074   2.756   0.244 -0.2287 -2.0978 -2.7523
13028TIP3    H260576   5.185   2.654   0.260  0.5481 -0.5623  2.2810
13029TIP3   OH260577   1.179   6.381  15.060  0.5909  0.1985 -0.3949
13029TIP3    H160578   1.127   6.361  14.982  0.1214  0.2313 -0.0947
13029TIP3    H260579   1.172   6.302  15.114 -0.7305  0.9102  0.5053
13030TIP3   OH260580   2.714   3.355  16.595  0.1214 -0.3438 -0.0869
13030TIP3    H160581   2.747   3.444  16.606  2.1697 -1.2757  1.6197
13030TIP3    H260582   2.628   3.366  16.554  1.1191  2.3176 -1.5627
13031TIP3   OH260583   5.978   2.882  16.975 -0.6678  0.2332 -0.0777
13031TIP3    H160584   6.023   2.927  17.047 -1.6070 -0.7442  1.1604
13031TIP3    H260585   6.048   2.855  16.916 -0.1141  3.4094 -0.9300
13032TIP3   OH260586   3.968   5.285   0.746  0.2773  0.2698  0.2395
13032TIP3    H160587   3.894   5.224   0.751  0.8553 -0.4542  0.0275
13032TIP3    H260588   3.968   5.316   0.656  0.8251 -0.4746 -0.0158
13033TIP3   OH260589   1.704   1.258  13.869  0.7943  0.3303  0.4074
13033TIP3    H160590   1.782   1.310  13.851  1.1404 -0.6360 -0.9163
13033TIP3    H260591   1.736   1.182  13.917  0.5532  0.3373  0.5826
13034TIP3   OH260592   1.923   1.043  12.380  0.2255  0.5208  0.1742
13034TIP3    H160593   1.914   1.113  12.315  1.5063  0.6893  0.1577
13034TIP3    H260594   1.941   1.089  12.462 -0.8300  0.2823  0.5508
13035TIP3   OH260595   0.327   1.231   1.074  0.1380  0.1467  0.2558
13035TIP3    H160596   0.333   1.276   0.989 -0.1041  1.3421  0.8649
13035TIP3    H260597   0.409   1.181   1.080 -0.4152 -0.9805 -1.2513
13036TIP3   OH260598   5.823   1.419   3.517 -0.7957 -0.2700 -0.1001
13036TIP3    H160599   5.800   1.457   3.602 -0.4043  1.2360 -0.6479
13036TIP3    H260600   5.919   1.424   3.514 -0.5183 -3.5236  0.8056
13037TIP3   OH260601   3.927   5.445  13.016 -0.3085  0.0832 -0.2469
13037TIP3    H160602   3.946   5.482  13.102 -0.8045 -0.5925  0.1561
13037TIP3    H260603   3.831   5.447  13.009 -0.1949  2.2502 -1.7217
13038TIP3   OH260604   3.112   4.305   4.703 -0.8317  0.3548 -0.1709
13038TIP3    H160605   3.059   4.366   4.652 -1.7222 -0.2591  0.0035
13038TIP3    H260606   3.061   4.224   4.704 -0.6259  0.2370  1.3465
13039TIP3   OH260607   0.338   0.767  14.859 -0.3722  0.3629  0.2146
13039TIP3    H160608   0.264   0.775  14.919 -2.8359 -2.4433 -2.2971
13039TIP3    H260609   0.303   0.795  14.775  1.2881 -1.5181 -1.1264
13040TIP3   OH260610   1.720   5.151  16.769 -0.1363  0.0905  0.5649
13040TIP3    H160611   1.719   5.091  16.695 -0.4121  1.1876 -0.3320
13040TIP3    H260612   1.739   5.237  16.731 -0.9165  0.7777  1.6690
13041TIP3   OH260613   0.517   6.734  15.730 -0.0639 -0.4250 -0.8128
13041TIP3    H160614   0.595   6.789  15.737  0.2385 -0.7954 -1.2271
13041TIP3    H260615   0.501   6.728  15.636 -1.8911  1.4652 -0.6449
13042TIP3   OH260616   6.222   0.234  14.442  0.0755  0.4021 -0.0768
13042TIP3    H160617   6.285   0.268  14.379  0.2710 -0.4777 -0.3633
13042TIP3    H260618   6.254   0.146  14.463 -1.0686 -0.0629 -0.2523
13043TIP3   OH260619   1.048   2.910  11.732 -0.2466  0.0130 -0.0623
13043TIP3    H160620   1.130   2.898  11.684 -0.8793 -0.1217 -1.1158
13043TIP3    H260621   0.992   2.838  11.703 -0.4605 -0.3603  1.2557
13044TIP3   OH260622   4.441   1.653  13.885  0.3300 -0.4289 -0.0532
13044TIP3    H160623   4.434   1.701  13.968 -3.4572 -0.6519 -0.1755
13044TIP3    H260624   4.453   1.721  13.819 -1.0121  0.0692  0.2075
13045TIP3   OH260625   4.814   2.855  12.261 -0.2506 -0.3032  0.4218
13045TIP3    H160626   4.893   2.908  12.262  0.2295 -0.9340 -1.5671
13045TIP3    H260627   4.742   2.918  12.264  0.3078  0.3081  1.2329
13046TIP3   OH260628   3.362   6.004   0.197  0.3216 -0.5793  0.0710
13046TIP3    H160629   3.410   6.021   0.116  1.3600 -1.3059  0.5210
13046TIP3    H260630   3.365   6.087   0.244  0.3483 -0.3648 -0.3057
13047TIP3   OH260631   2.849   0.446   1.779 -0.3359  0.8293 -0.2230
13047TIP3    H160632   2.854   0.465   1.873  1.1568  0.6615 -0.2591
13047TIP3    H260633   2.805   0.362   1.774 -2.2087  1.7461  0.2148
13048TIP3   OH260634   1.893   0.949   4.749  0.2855 -0.2543 -0.6241
13048TIP3    H160635   1.829   0.915   4.811  0.1121 -0.1607 -0.7529
13048TIP3    H260636   1.876   0.901   4.667  0.2067 -0.0418 -0.7331
13049TIP3   OH260637   5.917   6.755   4.630  0.0144  0.2222  0.2461
13049TIP3    H160638   5.900   6.848   4.644 -1.5809  0.2794 -1.8895
13049TIP3    H260639   5.857   6.730   4.561  0.3230 -2.4571  0.9101
13050TIP3   OH260640   6.656   5.042   5.389  0.0974  0.6417 -0.2720
13050TIP3    H160641   6.625   5.115   5.336 -1.3121  0.3608  0.1180
13050TIP3    H260642   6.576   5.005   5.428  0.9478 -0.0637  0.8636
13051TIP3   OH260643   2.305   2.779   3.613 -1.1224  0.1142 -0.1364
13051TIP3    H160644   2.384   2.746   3.656 -1.8522 -0.0380  1.1122
13051TIP3    H260645   2.336   2.850   3.557  0.0063 -0.4668 -0.2727
13052TIP3   OH260646   0.240   2.940  15.331 -0.3317  0.0019 -0.0203
13052TIP3    H160647   0.158   2.897  15.305 -1.2014  2.8114 -2.1476
13052TIP3    H260648   0.213   3.006  15.395  0.6223 -0.7175  1.1351
13053TIP3   OH260649   5.998   2.387   2.542 -0.1690  0.3616  0.1290
13053TIP3    H160650   6.017   2.470   2.586  0.2755  0.6243 -0.5543
13053TIP3    H260651   5.907   2.396   2.513 -0.6697 -0.0576  1.5289
13054TIP3   OH260652   4.615   0.500   4.048  0.6450  0.0290  0.2247
13054TIP3    H160653   4.682   0.561   4.016  0.0700  0.0333 -1.0022
13054TIP3    H260654   4.664   0.424   4.079  1.1886 -0.1827 -1.1412
13055TIP3   OH260655   0.260   3.089   1.380  0.1513 -0.6636  0.1769
13055TIP3    H160656   0.263   3.182   1.403 -2.3067 -0.3137 -0.7194
13055TIP3    H260657   0.300   3.084   1.294 -0.3496 -0.3050 -0.0816
13056TIP3   OH260658   6.424   1.928  14.819  0.6303 -0.5948 -0.8530
13056TIP3    H160659   6.510   1.913  14.779  1.2290 -1.3426  0.6561
13056TIP3    H260660   6.400   1.844  14.857 -0.7292 -0.3602 -1.1561
13057TIP3   OH260661   2.277   1.847  13.426  0.3537  0.0240  0.7607
13057TIP3    H160662   2.359   1.896  13.423  0.1619  0.3314  0.4670
13057TIP3    H260663   2.250   1.851  13.518  0.2630  0.5968  0.7100
13058TIP3   OH260664   6.300   4.238  15.182 -0.1150 -0.0022 -0.0487
13058TIP3    H160665   6.254   4.322  15.180  1.8474  1.1142  0.3248
13058TIP3    H260666   6.266   4.193  15.259 -0.7045  0.7177  0.1127
13059TIP3   OH260667   6.585   2.527  14.061 -0.6054 -0.5365  0.0901
13059TIP3    H160668   6.564   2.436  14.084 -1.2065 -0.8728 -1.7088
13059TIP3    H260669   6.675   2.539  14.091 -0.9642 -1.3033  1.5199
13060TIP3   OH260670   3.286   0.845   4.595  0.2283  0.1150 -0.0770
13060TIP3    H160671   3.261   0.860   4.504  0.0816  0.0410 -0.0496
13060TIP3    H260672   3.247   0.760   4.616  0.3641  0.0773  0.0164
13061TIP3   OH260673   3.344   4.873  16.937 -0.1382  0.8814  0.6176
13061TIP3    H160674   3.345   4.944  16.872 -0.6370  1.3816  1.1448
13061TIP3    H260675   3.277   4.812  16.905 -0.1464  0.9591  0.4855
13062TIP3   OH260676   1.441   5.725   0.291  0.2218 -0.5753  0.4098
13062TIP3    H160677   1.485   5.807   0.267  0.3623 -1.1996 -1.5596
13062TIP3    H260678   1.367   5.719   0.231 -0.3070 -1.4550  1.1370
13063TIP3   OH260679   1.614   5.335   5.210  0.2347 -0.2663 -0.4029
13063TIP3    H160680   1.618   5.427   5.234 -0.5037 -0.2949 -0.1470
13063TIP3    H260681   1.705   5.309   5.197  0.5304  0.1911  0.6965
13064TIP3   OH260682   3.024   2.228   2.569  0.2622 -0.4750 -0.2278
13064TIP3    H160683   3.037   2.136   2.593  1.3684  0.4482  2.9763
13064TIP3    H260684   2.949   2.256   2.622  0.6202  0.7596 -0.3679
13065TIP3   OH260685   1.745   5.562   0.310  0.0987  0.3839  0.0644
13065TIP3    H160686   1.688   5.544   0.236 -0.4355 -1.8031  0.9709
13065TIP3    H260687   1.687   5.598   0.378 -0.2911 -1.9643  1.0327
13066TIP3   OH260688   1.279   5.827  12.570  0.1247 -0.7824  0.3439
13066TIP3    H160689   1.246   5.917  12.571  1.5766 -0.2369  0.0727
13066TIP3    H260690   1.250   5.793  12.485 -0.1327 -0.4647  0.3025
13067TIP3   OH260691   2.702   1.049   3.514  0.3847  0.0106  0.0513
13067TIP3    H160692   2.735   0.963   3.539  1.9622  0.1874 -1.3513
13067TIP3    H260693   2.607   1.037   3.506  0.6092 -1.6332 -0.2753
13068TIP3   OH260694   0.952   1.036  15.021 -0.0592  0.0735 -0.2383
13068TIP3    H160695   1.042   1.038  14.989  0.5548  0.5732  1.4497
13068TIP3    H260696   0.931   0.943  15.029  0.3319 -0.0433 -0.5528
13069TIP3   OH260697   2.196   2.520   5.809  0.4411 -0.0877 -0.2225
13069TIP3    H160698   2.140   2.443   5.799  2.0687 -1.0671 -2.1975
13069TIP3    H260699   2.173   2.575   5.733 -0.8244  1.4696  1.2554
13070TIP3   OH260700   4.874   3.677   4.287 -0.5722  0.0804 -0.2522
13070TIP3    H160701   4.788   3.676   4.246 -2.1672 -1.8078  2.9790
13070TIP3    H260702   4.891   3.586   4.311  1.7916  0.6179  0.2536
13071TIP3   OH260703   6.412   5.059   4.217 -0.2924  0.3738  0.4399
13071TIP3    H160704   6.337   5.001   4.208 -0.0192 -0.1603  1.4392
13071TIP3    H260705   6.375   5.147   4.223 -0.8309  0.1240  0.7620
13072TIP3   OH260706   0.172   4.303  11.646 -0.2369  0.2376  0.3749
13072TIP3    H160707   0.181   4.371  11.712 -1.2277  0.6137  0.1269
13072TIP3    H260708   0.079   4.279  11.648  0.0307 -0.8459  0.2096
13073TIP3   OH260709   3.235   6.587  14.864  0.0601  0.5329  0.1452
13073TIP3    H160710   3.322   6.548  14.878 -0.4369 -0.9321 -0.7487
13073TIP3    H260711   3.227   6.592  14.769 -0.2732  1.9545  0.2505
13074TIP3   OH260712   0.147   2.397  14.295 -0.5379 -0.4659 -0.3890
13074TIP3    H160713   0.108   2.347  14.366 -1.5906  0.7237 -0.1221
13074TIP3    H260714   0.173   2.480  14.335 -1.3589  0.3067 -1.4446
13075TIP3   OH260715   4.474   3.407   6.049  0.2077  0.1482 -0.6079
13075TIP3    H160716   4.479   3.436   5.958  0.5476 -1.2124 -1.0389
13075TIP3    H260717   4.472   3.311   6.043 -0.8749  0.0663  0.7593
13076TIP3   OH260718   2.197   4.526   4.321 -0.4385  0.3975  0.3290
13076TIP3    H160719   2.205   4.613   4.358 -1.7210  1.0340 -0.8435
13076TIP3    H260720   2.170   4.541   4.230 -1.9175 -1.2457  0.4696
13077TIP3   OH260721   5.480   5.961   5.606 -0.3318 -0.1245  0.0772
13077TIP3    H160722   5.543   5.976   5.677  0.1524 -1.7653 -0.0010
13077TIP3    H260723   5.520   6.001   5.529 -0.6320  1.2175  0.5898
13078TIP3   OH260724   6.469   0.901   5.997 -0.0668 -0.0784  0.3876
13078TIP3    H160725   6.406   0.895   6.069 -1.1060 -1.1963 -0.5988
13078TIP3    H260726   6.421   0.868   5.921  1.8831 -1.3924 -0.2762
13079TIP3   OH260727   4.274   5.274  12.611  0.8435  0.0161 -0.3519
13079TIP3    H160728   4.248   5.197  12.661  2.0409  0.9942  1.8836
13079TIP3    H260729   4.235   5.348  12.658  1.5155  0.9329 -1.1987
13080TIP3   OH260730   5.343   5.220  14.019 -0.1992 -0.2120  0.6624
13080TIP3    H160731   5.395   5.290  13.981 -0.2608  0.2775  1.4717
13080TIP3    H260732   5.305   5.174  13.944 -2.4497  2.3469  0.1811
13081TIP3   OH260733   5.723   3.653   1.304 -0.5943  0.3772 -0.3567
13081TIP3    H160734   5.738   3.606   1.222 -1.4897 -0.4434 -0.0471
13081TIP3    H260735   5.640   3.699   1.290  0.0100  1.4610 -0.4624
13082TIP3   OH260736   3.046   6.256   1.479 -0.4522 -0.2061 -0.1048
13082TIP3    H160737   2.978   6.276   1.544 -1.2962 -0.3656 -0.9102
13082TIP3    H260738   3.029   6.319   1.408 -0.7913 -1.3305 -1.0344
13083TIP3   OH260739   1.762   1.238   4.362 -0.2113 -0.3193 -0.3271
13083TIP3    H160740   1.713   1.211   4.439  1.5932  1.5082  1.5208
13083TIP3    H260741   1.703   1.296   4.315 -0.9452 -0.6162  0.2201
13084TIP3   OH260742   4.790   5.941   4.419  0.0121  0.0162  0.0433
13084TIP3    H160743   4.854   5.993   4.467 -1.1549  1.2932  0.2597
13084TIP3    H260744   4.842   5.887   4.359  1.3488 -0.0125  1.2115
13085TIP3   OH260745   1.847   3.089   1.785  0.3505 -0.4623  0.0731
13085TIP3    H160746   1.868   3.007   1.741  0.1315  0.3959 -1.6787
13085TIP3    H260747   1.932   3.125   1.810  0.5619 -0.3200 -0.8366
13086TIP3   OH260748   2.104   2.815  15.624  0.7295  0.0989 -0.1148
13086TIP3    H160749   2.125   2.730  15.663 -0.0565 -0.9114 -1.8481
13086TIP3    H260750   2.096   2.874  15.699  0.4200 -1.5368  1.1694
13087TIP3   OH260751   3.851   2.678   0.940 -0.7258 -0.0177 -0.0224
13087TIP3    H160752   3.902   2.739   0.993 -2.1053 -1.4373  3.1109
13087TIP3    H260753   3.828   2.608   1.001 -2.5360 -1.6704 -2.5183
13088TIP3   OH260754   0.906   3.513   4.541 -0.6166 -0.3232 -0.1453
13088TIP3    H160755   0.978   3.466   4.498 -0.6025 -0.4716  0.0376
13088TIP3    H260756   0.916   3.492   4.634 -2.6018 -2.6645 -0.4214
13089TIP3   OH260757   2.211   0.429   1.177 -0.4055 -0.4250  0.0321
13089TIP3    H160758   2.226   0.340   1.211 -2.9419 -1.1132 -0.5363
13089TIP3    H260759   2.185   0.480   1.253  0.5420 -0.2768  0.2674
13090TIP3   OH260760   5.185   0.178   0.994 -0.0277  1.2234 -0.0452
13090TIP3    H160761   5.260   0.237   0.996  0.4530  0.7068 -1.6558
13090TIP3    H260762   5.166   0.159   1.086  2.8110  0.1547  0.3655
13091TIP3   OH260763   0.047   3.097   1.869  0.0625  0.2840 -0.0796
13091TIP3    H160764   0.060   3.073   1.777  1.1699 -0.4083  0.2441
13091TIP3    H260765  -0.042   3.068   1.889 -0.4014  0.9888 -1.1014
13092TIP3   OH260766   5.922   3.421  15.312  0.8753 -0.0194 -0.1418
13092TIP3    H160767   5.961   3.495  15.359  1.1191 -1.1537  1.4415
13092TIP3    H260768   5.993   3.358  15.303  0.3294 -0.6018 -0.3794
13093TIP3   OH260769   6.798   4.382  15.325  0.4286 -0.4159 -0.4135
13093TIP3    H160770   6.733   4.417  15.386  0.3524 -0.6910 -0.3341
13093TIP3    H260771   6.840   4.459  15.288 -0.1997 -0.2256 -0.7419
13094TIP3   OH260772   4.647   2.949   4.874  0.0821  0.5782 -0.8566
13094TIP3    H160773   4.628   3.032   4.918  1.2361  0.4102 -0.0000
13094TIP3    H260774   4.740   2.933   4.893  0.4561  0.1951 -2.8578
13095TIP3   OH260775   2.917   6.238   4.053  0.0125 -0.1469  0.8819
13095TIP3    H160776   2.823   6.259   4.051 -0.0121 -0.2660  0.6319
13095TIP3    H260777   2.942   6.248   4.144  0.1696  1.6339  0.6534
13096TIP3   OH260778   5.440   4.884  13.946  0.3772  0.4218  0.2878
13096TIP3    H160779   5.434   4.913  14.037  1.6671 -0.8981  0.8113
13096TIP3    H260780   5.533   4.883  13.927  0.2377 -1.1164 -0.4348
13097TIP3   OH260781   0.169   2.168  17.263  0.1126 -0.0122 -0.1437
13097TIP3    H160782   0.261   2.193  17.264  0.5611 -1.5866 -0.3473
13097TIP3    H260783   0.145   2.164  17.356  0.2370  0.4699 -0.0915
13098TIP3   OH260784   5.410   4.940   5.239  0.1629  0.4630  0.5483
13098TIP3    H160785   5.353   5.000   5.286  0.6059  0.1606  1.4699
13098TIP3    H260786   5.363   4.923   5.157 -0.3735  1.3719  0.6576
13099TIP3   OH260787   0.484   4.727  13.938 -0.1396  0.1308 -0.0934
13099TIP3    H160788   0.497   4.670  13.863 -0.9503 -1.8906  1.2822
13099TIP3    H260789   0.390   4.729  13.953 -0.0213  0.7827  0.6719
13100TIP3   OH260790   1.818   4.182  17.272  0.2091 -0.0841  0.0795
13100TIP3    H160791   1.773   4.154  17.351  0.7170 -0.9862  0.0493
13100TIP3    H260792   1.911   4.176  17.293  0.3880 -2.0400 -1.1503
13101TIP3   OH260793   4.058   2.297  11.375  0.1038  0.0310  0.6187
13101TIP3    H160794   3.982   2.253  11.412  0.3320  0.3586  1.5066
13101TIP3    H260795   4.052   2.282  11.281 -1.9648  1.4579  0.5033
13102TIP3   OH260796   2.818   2.957  16.782  0.2198  0.0874 -0.1999
13102TIP3    H160797   2.822   2.934  16.875 -1.2285 -0.8781 -0.3657
13102TIP3    H260798   2.790   3.048  16.781 -1.4296 -0.3945  0.2754
13103TIP3   OH260799   0.148   0.764   0.443 -0.0374 -0.0008  0.6742
13103TIP3    H160800   0.124   0.731   0.530  0.5395  1.2877  1.3326
13103TIP3    H260801   0.230   0.720   0.422 -0.6387 -1.0097  0.3629
13104TIP3   OH260802   2.977   1.262  17.094 -0.3203 -0.0985  0.0198
13104TIP3    H160803   3.031   1.212  17.033  2.7427  0.0580  2.4757
13104TIP3    H260804   2.956   1.343  17.047 -1.5116 -1.6959 -2.2889
13105TIP3   OH260805   4.568   1.874   4.840 -0.8899  0.1177  0.3461
13105TIP3    H160806   4.498   1.881   4.775 -0.3322  1.5857 -0.1050
13105TIP3    H260807   4.649   1.891   4.791 -0.3810  0.2727  1.2255
13106TIP3   OH260808   5.873   4.892   0.108 -0.3887  0.2474  0.0369
13106TIP3    H160809   5.820   4.915   0.184  0.2193  1.6085  0.0670
13106TIP3    H260810   5.924   4.817   0.136 -0.5862  0.3882  0.7867
13107TIP3   OH260811   6.704   1.807  14.176  0.4378  0.3085 -0.1703
13107TIP3    H160812   6.636   1.771  14.233  0.1736  0.7180 -0.2240
13107TIP3    H260813   6.702   1.752  14.098 -0.8451  1.2283 -0.7991
13108TIP3   OH260814   5.476   1.357  14.000 -0.4371 -0.0760  0.0241
13108TIP3    H160815   5.555   1.338  13.951  0.5323 -0.1579  1.5849
13108TIP3    H260816   5.500   1.428  14.059 -1.6472  0.1948  0.2208
13109TIP3   OH260817   1.611   4.266   3.889 -0.1257 -0.5166 -0.1270
13109TIP3    H160818   1.641   4.328   3.822  0.0411  0.4565  0.8266
13109TIP3    H260819   1.688   4.211   3.906  0.5490  0.7464  0.9439
13110TIP3   OH260820   0.019   3.616  13.168  0.1429  0.4138 -0.2272
13110TIP3    H160821   0.087   3.605  13.235  1.3294  1.3231 -1.2533
13110TIP3    H260822  -0.046   3.673  13.210  0.2129 -0.1127  0.6153
13111TIP3   OH260823   4.529   0.492   0.791  0.7515  0.1726 -0.3858
13111TIP3    H160824   4.550   0.586   0.789  2.8309 -0.2702 -0.5134
13111TIP3    H260825   4.492   0.474   0.705  0.8476  0.7637 -0.5553
13112TIP3   OH260826   3.416   1.394  13.025  0.3845 -0.1862  0.2331
13112TIP3    H160827   3.365   1.329  13.072 -0.3416 -0.4681 -0.9215
13112TIP3    H260828   3.443   1.350  12.944  0.7168  0.6216 -0.1020
13113TIP3   OH260829   5.115   2.884   1.404 -0.0051 -0.1351  0.5079
13113TIP3    H160830   5.072   2.831   1.337 -0.6898  0.0467  0.7935
13113TIP3    H260831   5.058   2.875   1.481  1.0430 -0.7533  1.2169
13114TIP3   OH260832   0.855   0.335   2.127 -0.2956 -0.0262 -0.2920
13114TIP3    H160833   0.830   0.417   2.084  0.2688  0.4832  0.3359
13114TIP3    H260834   0.946   0.322   2.102 -0.1464 -0.0455  0.2718
13115TIP3   OH260835   6.210   0.643   1.213  0.0130  0.3523  0.4356
13115TIP3    H160836   6.252   0.640   1.299  0.2894 -0.5860  0.2704
13115TIP3    H260837   6.253   0.575   1.162  0.7511  1.7659 -0.8746
13116TIP3   OH260838   4.393   3.531   6.280  0.5402 -0.7450  0.1650
13116TIP3    H160839   4.315   3.583   6.265  1.3728  0.4410 -0.1406
13116TIP3    H260840   4.403   3.479   6.200  0.7693  0.0372 -0.3180
13117TIP3   OH260841   5.192   6.332   3.567  0.3236  0.7282 -0.9629
13117TIP3    H160842   5.209   6.238   3.567 -0.3332  0.6055 -0.6590
13117TIP3    H260843   5.248   6.367   3.498  0.7656  0.1496 -0.8993
13118TIP3   OH260844   4.888   0.376   1.393  0.3106  0.1622 -0.5175
13118TIP3    H160845   4.963   0.391   1.336  0.9739 -2.5299 -0.4199
13118TIP3    H260846   4.921   0.393   1.482 -0.1235  2.2013 -0.7285
13119TIP3   OH260847   5.597   4.581   3.402  0.1066  0.2396 -0.6569
13119TIP3    H160848   5.574   4.673   3.394 -2.7649 -0.5139 -1.7694
13119TIP3    H260849   5.566   4.556   3.489 -1.4898 -0.2890 -1.3671
13120TIP3   OH260850   0.420   2.953   0.042 -0.2162  0.1010 -0.3180
13120TIP3    H160851   0.429   2.864   0.008 -1.2364  0.1057 -0.6033
13120TIP3    H260852   0.354   2.994  -0.014 -2.0618  0.0647  1.7636
13121TIP3   OH260853   6.432   2.222   1.920 -0.2972 -0.6731  0.2775
13121TIP3    H160854   6.442   2.250   2.011  0.1311  1.4884 -0.4213
13121TIP3    H260855   6.518   2.235   1.881 -1.0471  0.5385 -1.0157
13122TIP3   OH260856   1.490   0.131  17.216  0.5907  0.1032  0.3407
13122TIP3    H160857   1.424   0.065  17.197  0.6252 -0.1299  1.0167
13122TIP3    H260858   1.481   0.196  17.146  0.2004 -0.3474 -0.0214
13123TIP3   OH260859   3.483   0.271  15.971  0.3410 -0.1843  0.3988
13123TIP3    H160860   3.450   0.201  15.914  2.5434  0.9489 -2.3980
13123TIP3    H260861   3.541   0.226  16.032 -1.4059 -1.3031  1.3041
13124TIP3   OH260862   3.729   4.125  16.871 -0.0996  0.7580  0.0447
13124TIP3    H160863   3.814   4.126  16.915 -0.1036 -0.1310  0.0940
13124TIP3    H260864   3.694   4.037  16.888 -0.8587  0.9830 -0.2966
13125TIP3   OH260865   3.240   3.577  16.608 -0.6128 -0.8030  0.3357
13125TIP3    H160866   3.200   3.629  16.538  0.7602 -0.4259 -0.1847
13125TIP3    H260867   3.205   3.489  16.596 -0.6833 -0.6497 -0.5926
13126TIP3   OH260868   5.263   1.935  14.337  0.1212  0.1919  0.3536
13126TIP3    H160869   5.353   1.904  14.329 -0.9768 -2.4534 -2.3021
13126TIP3    H260870   5.230   1.936  14.248 -3.1772 -0.9581  1.5146
13127TIP3   OH260871   0.805   4.113  15.050 -0.2986 -0.1522 -0.1699
13127TIP3    H160872   0.870   4.165  15.097 -0.2466 -0.3504 -0.0227
13127TIP3    H260873   0.809   4.147  14.960 -0.7627  0.5716  0.0778
13128TIP3   OH260874   3.014   3.220   4.983  0.5215 -0.6488  0.6785
13128TIP3    H160875   2.979   3.167   5.055 -0.3450  0.9769  1.4752
13128TIP3    H260876   2.940   3.230   4.923  0.7665 -0.6112  0.3853
13129TIP3   OH260877   4.305   5.437  16.797  0.2930 -0.6549 -0.3241
13129TIP3    H160878   4.256   5.478  16.868 -0.9159 -0.7287 -1.1163
13129TIP3    H260879   4.351   5.510  16.755 -2.2620  0.0177 -2.0628
13130TIP3   OH260880   2.578   3.151  11.342  0.2631 -0.2254 -0.0762
13130TIP3    H160881   2.566   3.109  11.257  1.1619  0.6873 -0.6673
13130TIP3    H260882   2.661   3.197  11.334 -0.5101  1.3255  0.7099
13131TIP3   OH260883   5.701   5.085  15.215  0.4676  0.3482  0.2175
13131TIP3    H160884   5.672   5.132  15.293 -1.1831 -2.0300  1.0752
13131TIP3    H260885   5.637   5.109  15.147  0.3615  0.3195  0.3083
13132TIP3   OH260886   6.394   0.336   5.220 -0.2751  0.2709 -0.5144
13132TIP3    H160887   6.359   0.279   5.152  0.9573  0.3211 -1.2252
13132TIP3    H260888   6.414   0.278   5.294 -2.9627  0.4297  0.3625
13133TIP3   OH260889   4.429   0.017   6.037 -0.1502  0.2053 -0.0146
13133TIP3    H160890   4.505  -0.041   6.033 -0.4288 -0.2074  0.6195
13133TIP3    H260891   4.466   0.105   6.031  0.3361 -0.0125 -0.2338
13134TIP3   OH260892   0.895   1.149  13.986 -0.3853  0.1497 -0.4773
13134TIP3    H160893   0.831   1.187  14.046  2.1132  1.7804  1.2202
13134TIP3    H260894   0.927   1.071  14.031 -0.5807 -0.2205 -0.9727
13135TIP3   OH260895   6.134   5.961  16.158  0.6386 -0.3572 -0.4781
13135TIP3    H160896   6.147   6.007  16.076  0.5913  0.8346  0.1652
13135TIP3    H260897   6.219   5.921  16.177  0.3289 -1.5991 -1.6704
13136TIP3   OH260898   1.176   3.483   5.366 -0.2140  0.3794  0.0617
13136TIP3    H160899   1.121   3.492   5.288  1.5715 -1.0186 -1.3986
13136TIP3    H260900   1.247   3.546   5.352 -0.1065  0.4143  0.7547
13137TIP3   OH260901   2.485   5.641   1.395  0.1086  0.1278  0.2842
13137TIP3    H160902   2.548   5.633   1.323 -0.2660  2.6731 -0.3447
13137TIP3    H260903   2.523   5.706   1.453 -0.8558 -0.0176  1.0907
13138TIP3   OH260904   1.243   2.003   2.251  0.0144 -0.0400  0.1345
13138TIP3    H160905   1.165   1.959   2.285 -0.2689  0.8417  0.6402
13138TIP3    H260906   1.264   2.069   2.317  0.0087  1.0766 -0.9722
13139TIP3   OH260907   6.575   6.779   0.756 -0.2255 -0.1152 -0.6627
13139TIP3    H160908   6.557   6.733   0.838  1.0683  1.3876  0.5021
13139TIP3    H260909   6.504   6.844   0.749 -0.1918 -0.0718 -0.6046
13140TIP3   OH260910   5.576   2.545   2.639  0.0540 -0.7499  0.1562
13140TIP3    H160911   5.622   2.496   2.571 -0.7750  1.0255 -1.7348
13140TIP3    H260912   5.500   2.490   2.661  0.7921 -1.7311  0.2820
13141TIP3   OH260913   3.999   1.084  12.320  0.3518  0.0403  0.0052
13141TIP3    H160914   3.994   1.087  12.416  2.0606 -0.5203  0.1283
13141TIP3    H260915   3.938   1.151  12.291  1.3439  1.6711  1.5467
13142TIP3   OH260916   0.393   4.965  12.197  0.4157  0.0780  0.2059
13142TIP3    H160917   0.322   4.917  12.241 -2.3850  2.1601 -1.8266
13142TIP3    H260918   0.419   5.032  12.260 -0.0172 -0.1761  0.6647
13143TIP3   OH260919   6.146   5.288  12.175  0.5112  0.0149 -0.4803
13143TIP3    H160920   6.221   5.315  12.227  0.3638  1.3987 -0.9537
13143TIP3    H260921   6.076   5.274  12.239  1.1209 -1.1283 -0.0563
13144TIP3   OH260922   3.245   6.616   5.098 -0.3698 -0.1762  0.5214
13144TIP3    H160923   3.174   6.605   5.034 -0.3309 -2.0210  0.7586
13144TIP3    H260924   3.201   6.636   5.180 -0.6270 -1.1797  0.6377
13145TIP3   OH260925   3.624   4.178   2.487 -0.3861  0.1547 -0.1267
13145TIP3    H160926   3.669   4.193   2.570 -0.4831  0.0196 -0.0514
13145TIP3    H260927   3.531   4.190   2.507 -0.3092  1.5477 -0.5182
13146TIP3   OH260928   1.781   3.033   4.129 -0.3286  0.3738  0.1730
13146TIP3    H160929   1.787   2.963   4.193 -2.3008 -0.7121 -0.7641
13146TIP3    H260930   1.816   2.995   4.048 -0.3185  0.8330 -0.0403
13147TIP3   OH260931   1.729   0.852   3.440  0.0449 -0.3046 -0.1792
13147TIP3    H160932   1.648   0.864   3.490 -0.4532 -0.4036 -0.9425
13147TIP3    H260933   1.733   0.929   3.383  0.3698 -0.4163 -0.3065
13148TIP3   OH260934   6.641   6.170  11.588  0.7207 -0.2947 -0.6345
13148TIP3    H160935   6.611   6.098  11.644  0.4290  0.7651  0.5858
13148TIP3    H260936   6.628   6.249  11.641 -0.2501  0.8030 -2.4523
13149TIP3   OH260937   4.678   0.078   3.733 -0.0155 -0.0364 -0.8875
13149TIP3    H160938   4.598   0.084   3.785  0.6499 -1.3890  0.3528
13149TIP3    H260939   4.654   0.025   3.657  0.2275 -2.4003  0.6290
13150TIP3   OH260940   1.244   4.984  14.407  0.2760 -0.1660 -0.0860
13150TIP3    H160941   1.187   5.035  14.465  0.0709  1.4290 -1.6536
13150TIP3    H260942   1.306   5.048  14.371  1.1235 -1.3376 -0.7379
13151TIP3   OH260943   4.413   1.480   3.482  0.0533  0.1487  0.9462
13151TIP3    H160944   4.409   1.398   3.532  0.5790 -1.0250 -0.9041
13151TIP3    H260945   4.401   1.453   3.391  0.8131  2.0732  0.2574
13152TIP3   OH260946   4.237   3.017  15.894 -0.9530 -0.1297  0.0705
13152TIP3    H160947   4.309   3.077  15.912 -0.9164 -0.1036 -0.1567
13152TIP3    H260948   4.198   3.050  15.813 -1.6373  0.2463  0.5526
13153TIP3   OH260949   6.449   3.202   2.689 -0.3548  0.0705  0.0767
13153TIP3    H160950   6.482   3.121   2.649  0.4473  1.5519 -2.3946
13153TIP3    H260951   6.394   3.241   2.621  0.5177  2.3626  0.6456
13154TIP3   OH260952   4.770   1.588  15.462  0.1317 -0.1763 -0.0754
13154TIP3    H160953   4.747   1.593  15.369 -1.7224 -2.1012  0.2370
13154TIP3    H260954   4.698   1.632  15.507  1.1404  0.9583  0.4509
13155TIP3   OH260955   1.834   0.304   0.575  0.2202  0.4021  0.3347
13155TIP3    H160956   1.780   0.262   0.642  0.2395  0.0647  0.1370
13155TIP3    H260957   1.771   0.336   0.510  0.3494 -1.4920 -0.7638
13156TIP3   OH260958   4.084   3.184  11.079 -0.3479  0.0279  0.2626
13156TIP3    H160959   4.127   3.243  11.141 -0.7668 -0.5158  1.0894
13156TIP3    H260960   4.125   3.202  10.995 -0.4383  1.4466  0.5238
13157TIP3   OH260961   2.681   5.459   5.942 -0.5771  0.3093  0.2207
13157TIP3    H160962   2.614   5.419   5.998 -0.6923  0.7750  0.4116
13157TIP3    H260963   2.703   5.390   5.879 -0.9688  0.0317  0.3858
13158TIP3   OH260964   1.106   5.474  12.256  0.1238 -0.5007  0.1289
13158TIP3    H160965   1.019   5.506  12.233  0.0614 -0.5860  0.2438
13158TIP3    H260966   1.144   5.444  12.173  0.9212  1.6306 -0.3165
13159TIP3   OH260967   4.502   4.983   4.195  0.6239 -0.5113 -0.5788
13159TIP3    H160968   4.410   4.973   4.219  0.0364  0.2127 -2.4525
13159TIP3    H260969   4.531   4.895   4.175  0.0010 -0.5859 -1.1608
13160TIP3   OH260970   1.186   6.115   4.950  1.0493 -0.4648 -0.5255
13160TIP3    H160971   1.231   6.108   5.035 -1.1111 -0.6112  0.6281
13160TIP3    H260972   1.194   6.027   4.913 -0.9300 -1.3637  1.0738
13161TIP3   OH260973   2.240   0.069   4.002 -0.3161  0.0990 -0.7935
13161TIP3    H160974   2.211  -0.006   3.951  1.2874  0.7725 -2.7750
13161TIP3    H260975   2.335   0.064   4.001 -0.2338  0.6904  1.3452
13162TIP3   OH260976   3.333   5.551   4.972  0.5180 -0.1282 -0.2405
13162TIP3    H160977   3.375   5.472   4.937  1.1890 -0.5522  1.4678
13162TIP3    H260978   3.321   5.533   5.065 -1.5717  0.8297 -0.3054
13163TIP3   OH260979   2.686   3.100   6.743 -0.6087  0.2554  0.1375
13163TIP3    H160980   2.605   3.048   6.748 -1.1388  1.0586 -0.1132
13163TIP3    H260981   2.669   3.177   6.797 -0.0590  0.5066 -0.0451
13164TIP3   OH260982   0.591   0.390   5.102  0.9747  0.4097  0.0397
13164TIP3    H160983   0.531   0.317   5.088  0.5267  1.0257 -1.3324
13164TIP3    H260984   0.634   0.370   5.185 -0.9006 -0.2068  0.8855
13165TIP3   OH260985   2.300   1.105  14.318  0.5752 -0.4137  0.5020
13165TIP3    H160986   2.221   1.159  14.318 -0.3813 -1.7820  1.5198
13165TIP3    H260987   2.368   1.163  14.285 -0.6463  1.0980  0.5575
13166TIP3   OH260988   2.958   1.291   1.036  0.4300 -0.0416  0.3639
13166TIP3    H160989   2.871   1.251   1.040 -0.3513  1.5673  0.0094
13166TIP3    H260990   3.003   1.260   1.115 -0.6332 -0.5061  0.7928
13167TIP3   OH260991   0.862   2.690   2.556 -0.1157 -0.2704 -0.2021
13167TIP3    H160992   0.830   2.683   2.646 -0.3551  1.6317 -0.1176
13167TIP3    H260993   0.819   2.618   2.510  0.2591 -1.4616  1.2646
13168TIP3   OH260994   1.769   6.737   1.750 -0.7857  0.4022  0.1107
13168TIP3    H160995   1.700   6.781   1.799 -0.2330 -0.4578  1.6880
13168TIP3    H260996   1.723   6.667   1.703 -1.5214  2.0283 -1.6984
13169TIP3   OH260997   6.496   2.220  12.188 -0.5884  0.3298 -0.1741
13169TIP3    H160998   6.429   2.271  12.143 -1.1431  1.2623  1.6573
13169TIP3    H260999   6.451   2.180  12.261  0.3458 -0.9844 -0.2998
13170TIP3   OH261000   1.701   1.567  14.058  0.0841  1.4441  0.3065
13170TIP3    H161001   1.688   1.649  14.106 -0.2822  1.4242  0.2370
13170TIP3    H261002   1.615   1.546  14.022  0.3126  1.3440 -0.1809
13171TIP3   OH261003   0.382   2.043  13.588  0.2775  0.4131 -0.2444
13171TIP3    H161004   0.440   1.983  13.637 -0.9245 -0.2684  0.3685
13171TIP3    H261005   0.391   2.015  13.497  1.5306  0.8328 -0.2525
13172TIP3   OH261006   0.276   4.423  13.255  0.4339 -0.3385 -0.4565
13172TIP3    H161007   0.276   4.472  13.337 -4.4766 -1.2037  0.1636
13172TIP3    H261008   0.307   4.336  13.278  1.9249  0.2444 -0.1655
13173TIP3   OH261009   1.943   5.691   2.626 -0.1185 -0.1214  0.0473
13173TIP3    H161010   1.999   5.616   2.644 -1.9064 -1.3452  0.6545
13173TIP3    H261011   2.002   5.766   2.625  2.1762 -1.8847 -3.6174
13174TIP3   OH261012   6.356   2.577   3.058 -0.3503 -0.3137  0.1781
13174TIP3    H161013   6.418   2.627   3.111  0.3629  0.7861 -1.6256
13174TIP3    H261014   6.341   2.497   3.107  3.3868 -1.1284  0.1489
13175TIP3   OH261015   4.983   5.602  11.257 -0.3143 -0.0816 -0.3727
13175TIP3    H161016   4.992   5.675  11.196  1.9061  0.4460  0.5469
13175TIP3    H261017   5.013   5.526  11.208 -2.6115 -0.4315 -1.3261
13176TIP3   OH261018   5.493   2.788   2.896  0.0972 -0.0249 -0.8474
13176TIP3    H161019   5.534   2.849   2.958  0.5285 -1.1350 -0.0205
13176TIP3    H261020   5.403   2.779   2.927  0.3709 -0.7440 -0.2392
13177TIP3   OH261021   1.458   5.970   3.172  0.2933 -0.2351 -0.5131
13177TIP3    H161022   1.500   5.957   3.087  0.9790  1.7164 -0.5084
13177TIP3    H261023   1.531   5.978   3.234 -0.1731 -0.4291  0.0685
13178TIP3   OH261024   6.328   0.794  14.716  0.2950 -0.3522 -0.3228
13178TIP3    H161025   6.287   0.827  14.637 -0.7051 -0.0242  0.3338
13178TIP3    H261026   6.352   0.872  14.766 -1.0458 -0.5721  0.6997
13179TIP3   OH261027   2.339   4.884  11.710 -0.3382  0.6210 -0.2584
13179TIP3    H161028   2.351   4.925  11.625 -0.8138 -2.0502 -1.6847
13179TIP3    H261029   2.244   4.882  11.722 -0.3199 -0.0703 -0.2184
13180TIP3   OH261030   3.989   4.838  16.540  0.2355 -0.1065 -0.3104
13180TIP3    H161031   3.975   4.922  16.583 -0.3216  0.1207 -0.9447
13180TIP3    H261032   4.036   4.859  16.459  0.0136 -0.3983 -0.5157
13181TIP3   OH261033   1.004   2.135   0.752 -0.3816 -0.1415 -0.4648
13181TIP3    H161034   1.009   2.040   0.762 -0.3258 -0.3488 -2.3323
13181TIP3    H261035   0.918   2.151   0.714 -0.6664  0.6303  0.4717
13182TIP3   OH261036   0.673   5.351  14.869  0.2055 -0.6672 -0.3169
13182TIP3    H161037   0.701   5.415  14.934 -0.0667 -1.1988  0.3381
13182TIP3    H261038   0.671   5.399  14.786 -3.7979  1.2765  0.7395
13183TIP3   OH261039   6.388   1.820  14.256 -0.4777 -0.3820 -0.2964
13183TIP3    H161040   6.425   1.737  14.227 -1.9808 -0.4824 -2.0197
13183TIP3    H261041   6.357   1.862  14.175 -0.2714  1.5859  0.6215
13184TIP3   OH261042   5.529   6.023  10.950 -0.1660 -0.1178  0.1032
13184TIP3    H161043   5.561   5.942  10.989 -0.8530 -0.0910  0.7292
13184TIP3    H261044   5.468   6.059  11.015  0.7216  1.2939  0.1821
13185TIP3   OH261045   0.652   1.691  13.072 -0.4527  0.0382  0.9419
13185TIP3    H161046   0.742   1.719  13.091 -0.9330 -0.0304  3.5025
13185TIP3    H261047   0.617   1.759  13.014  0.6692  1.0267  1.4104
13186TIP3   OH261048   4.960   1.720  12.383 -0.2078  0.2123 -0.3038
13186TIP3    H161049   5.046   1.718  12.341  0.1361  1.7899  0.3125
13186TIP3    H261050   4.898   1.738  12.312 -0.0072 -0.6303 -0.6960
13187TIP3   OH261051   1.696   6.429  11.894  0.0585 -0.4470  0.4461
13187TIP3    H161052   1.716   6.354  11.839  0.3109  0.0493 -0.1434
13187TIP3    H261053   1.780   6.455  11.932 -0.1845 -1.0646  1.4301
13188TIP3   OH261054   0.668   3.619  13.157 -0.8100 -0.1610  0.2659
13188TIP3    H161055   0.673   3.712  13.181 -0.9503  0.2522 -1.2359
13188TIP3    H261056   0.660   3.620  13.062 -3.0291 -1.6360  0.3967
13189TIP3   OH261057   4.201   2.434   3.368  0.3343 -0.4394 -0.5039
13189TIP3    H161058   4.197   2.360   3.429  3.0149 -1.9242 -2.0101
13189TIP3    H261059   4.118   2.431   3.321  0.7659 -3.1672 -1.2040
13190TIP3   OH261060   2.621   0.045  11.012  0.0513  0.1492 -1.2301
13190TIP3    H161061   2.717   0.043  11.005  0.2752  1.0663  1.2316
13190TIP3    H261062   2.596  -0.047  11.025  0.7813  0.1302  0.1118
13191TIP3   OH261063   0.744   3.064  15.799 -0.3443  0.1713 -0.1006
13191TIP3    H161064   0.762   3.155  15.824  0.8484 -0.3994  1.1491
13191TIP3    H261065   0.830   3.022  15.796 -1.0676 -1.4457  1.4277
13192TIP3   OH261066   0.485   6.296  16.870  0.0747  0.0927 -0.7535
13192TIP3    H161067   0.415   6.327  16.811  0.1848 -0.1796 -1.0266
13192TIP3    H261068   0.454   6.211  16.901 -0.3030  0.5464  0.1271
13193TIP3   OH261069   1.221   5.889  11.589  0.3376 -0.1569  0.6520
13193TIP3    H161070   1.148   5.950  11.606 -0.0990 -0.6966  0.7391
13193TIP3    H261071   1.284   5.940  11.539 -0.0033  0.3870  0.7737
13194TIP3   OH261072   4.481   1.562  13.031 -0.4545  0.4228 -0.7019
13194TIP3    H161073   4.566   1.569  13.075 -0.9009 -2.2628  0.6817
13194TIP3    H261074   4.418   1.587  13.098 -0.8566  1.2267 -1.3674
13195TIP3   OH261075   4.901   3.961  14.814  0.1408 -0.2251  0.1996
13195TIP3    H161076   4.939   4.039  14.855  0.5940 -0.9807  1.2591
13195TIP3    H261077   4.807   3.970  14.830  0.3668 -0.8072  1.9792
13196TIP3   OH261078   4.990   1.503  12.080 -0.0978  0.2383 -0.3798
13196TIP3    H161079   5.076   1.545  12.077  0.0670 -0.1708 -1.3200
13196TIP3    H261080   5.002   1.432  12.143 -0.1056  0.9574  0.4585
13197TIP3   OH261081   6.388   2.931  15.644 -0.4858 -0.1065 -0.2147
13197TIP3    H161082   6.424   3.018  15.660  0.7812 -0.7788  0.6786
13197TIP3    H261083   6.414   2.880  15.721  0.3834 -1.7529 -1.5774
13198TIP3   OH261084   6.502   4.026  15.626 -0.3034 -0.4266  0.6370
13198TIP3    H161085   6.490   4.121  15.628 -1.8985 -0.6069  0.2532
13198TIP3    H261086   6.438   3.995  15.562  1.1380 -1.6384 -0.2675
13199TIP3   OH261087   4.751   5.212   3.480 -0.4381  0.1159 -0.0555
13199TIP3    H161088   4.752   5.302   3.511 -2.5773 -0.0519  0.6146
13199TIP3    H261089   4.717   5.162   3.555  0.4431 -1.2011 -0.5166
13200TIP3   OH261090   5.765   0.965   4.355  0.0790 -0.1709  0.2818
13200TIP3    H161091   5.703   1.030   4.322  2.3432  1.2318 -1.3527
13200TIP3    H261092   5.713   0.885   4.365 -2.1097  1.1147 -0.4514
13201TIP3   OH261093   3.657   0.247   0.215  0.3628 -0.3743  0.0788
13201TIP3    H161094   3.650   0.312   0.285 -0.9447 -1.9059  1.3871
13201TIP3    H261095   3.593   0.276   0.149 -1.3270 -1.1646  1.3501
13202TIP3   OH261096   2.758   3.595  14.479 -0.3979  0.1462 -0.4583
13202TIP3    H161097   2.851   3.574  14.491 -0.3451 -0.3615 -1.6395
13202TIP3    H261098   2.736   3.557  14.394 -1.1432  2.0929 -1.1668
13203TIP3   OH261099   5.093   4.759  12.879 -0.3356  0.2376  0.4295
13203TIP3    H161100   5.062   4.691  12.939  1.6461  0.8520  2.2408
13203TIP3    H261101   5.025   4.826  12.883 -1.1346 -0.5684  0.5331
13204TIP3   OH261102   6.282   2.486  11.846 -0.7836  0.2472  0.1729
13204TIP3    H161103   6.361   2.452  11.802  0.1410 -0.7891  2.5407
13204TIP3    H261104   6.316   2.546  11.912 -2.1003  1.1449  0.0423
13205TIP3   OH261105   0.634   2.482  14.331 -0.4009  0.3571  0.4220
13205TIP3    H161106   0.639   2.521  14.244 -2.0582  1.9813  0.9957
13205TIP3    H261107   0.670   2.394  14.321 -0.7084  0.4697 -1.9211
13206TIP3   OH261108   1.896   5.711  14.686  0.0634 -1.2222 -0.2583
13206TIP3    H161109   1.984   5.709  14.650  0.6055 -3.8447  1.0915
13206TIP3    H261110   1.863   5.621  14.674 -0.7309 -1.4645  3.2546
13207TIP3   OH261111   0.182   5.501  15.997 -0.7351 -0.5184  0.6236
13207TIP3    H161112   0.241   5.500  15.921  0.4342 -0.4404  1.5327
13207TIP3    H261113   0.140   5.587  15.994 -2.8609 -1.5361 -1.5726
13208TIP3   OH261114   0.802   5.899   1.566 -0.3226 -0.2949 -0.0658
13208TIP3    H161115   0.762   5.924   1.483 -0.4983 -0.8398 -0.1458
13208TIP3    H261116   0.846   5.817   1.548 -0.3100 -0.3823  0.3643
13209TIP3   OH261117   6.091   1.755   1.027  0.6703  0.3634 -0.3212
13209TIP3    H161118   6.069   1.747   1.120  2.6782  1.6002  0.2903
13209TIP3    H261119   6.106   1.666   0.998  0.4772  0.0029  0.6652
13210TIP3   OH261120   4.476   0.898  14.033 -0.0081 -0.4697 -0.0249
13210TIP3    H161121   4.425   0.942  14.101 -0.2441  0.8352 -1.0209
13210TIP3    H261122   4.564   0.933  14.043  0.1845 -1.0155  0.2278
13211TIP3   OH261123   5.835   0.170   0.136  0.0308 -0.0772  0.1955
13211TIP3    H161124   5.912   0.218   0.106  0.4131 -0.8593 -0.0972
13211TIP3    H261125   5.857   0.142   0.225  0.3248 -0.8028 -0.1021
13212TIP3   OH261126   5.707   0.004  14.151 -0.2634 -0.0768 -0.1831
13212TIP3    H161127   5.781   0.046  14.194  1.2801 -1.2120 -1.6807
13212TIP3    H261128   5.696  -0.080  14.196 -0.1661 -0.2323 -0.4471
13213TIP3   OH261129   5.385   5.948   1.305 -0.0121 -0.4288  0.0503
13213TIP3    H161130   5.472   5.966   1.342  0.2371  1.2499 -1.2942
13213TIP3    H261131   5.390   5.981   1.215 -1.2674 -2.5746 -0.8381
13214TIP3   OH261132   4.030   0.767   2.668 -0.5314  0.3705 -0.3667
13214TIP3    H161133   4.027   0.862   2.660  0.4881  0.2757 -2.1304
13214TIP3    H261134   4.120   0.747   2.693 -0.6902 -0.1574 -0.2006
13215TIP3   OH261135   5.706   1.591   1.093  0.2564 -0.2165  0.0467
13215TIP3    H161136   5.717   1.641   1.174 -0.8849  1.7919 -0.9941
13215TIP3    H261137   5.616   1.560   1.096  0.0428  0.3217 -0.6951
13216TIP3   OH261138   5.166   1.946   0.465 -0.1407 -0.4916  0.0565
13216TIP3    H161139   5.175   2.012   0.534 -0.4531 -0.5910  0.1941
13216TIP3    H261140   5.234   1.969   0.401 -1.3612  0.9997 -0.7453
13217TIP3   OH261141   0.284   3.703   4.532  0.2459 -0.8302 -0.1859
13217TIP3    H161142   0.302   3.620   4.488 -2.6017 -1.9690  0.6913
13217TIP3    H261143   0.191   3.720   4.516  0.3008  1.1816  1.3391
13218TIP3   OH261144   1.708   2.845   4.576  0.1445 -0.0822 -0.1767
13218TIP3    H161145   1.620   2.806   4.579  0.1466 -0.0372  0.5413
13218TIP3    H261146   1.753   2.809   4.653  1.2423 -1.2646 -1.3388
13219TIP3   OH261147   2.259   2.900  12.266 -0.6458  0.3914 -0.4840
13219TIP3    H161148   2.179   2.882  12.218 -0.3870  1.2458 -1.2464
13219TIP3    H261149   2.326   2.847  12.222 -0.0879  2.3749 -2.0950
13220TIP3   OH261150   6.145   6.807  13.031 -0.0193 -0.2245 -0.5456
13220TIP3    H161151   6.210   6.782  12.965  1.9056  0.0711  1.1808
13220TIP3    H261152   6.125   6.899  13.012  0.7864 -0.0417 -0.5091
13221TIP3   OH261153   3.944   0.032   3.207 -0.3335  0.0696  0.1890
13221TIP3    H161154   4.019   0.085   3.233 -0.7631  0.0103  1.5696
13221TIP3    H261155   3.868   0.089   3.220 -0.4377  0.7741 -2.9105
13222TIP3   OH261156   2.588   5.437   1.602  0.0282  0.2674 -0.2188
13222TIP3    H161157   2.678   5.405   1.597  0.3336  1.0980 -0.0513
13222TIP3    H261158   2.555   5.429   1.512  0.8032  1.4794 -0.6331
13223TIP3   OH261159   0.492   3.829  14.277  0.6483  0.3506 -0.4212
13223TIP3    H161160   0.582   3.859  14.265  0.4402  1.8429  1.5902
13223TIP3    H261161   0.484   3.814  14.371 -0.5150 -2.0768 -0.8506
13224TIP3   OH261162   2.400   3.984  15.035  0.4815  0.1183 -0.4067
13224TIP3    H161163   2.411   3.915  14.969  1.7383 -1.0239  0.9766
13224TIP3    H261164   2.329   3.953  15.091  1.1332 -0.1115  0.2960
13225TIP3   OH261165   1.234   3.215   1.790 -0.1329  0.1329  0.2845
13225TIP3    H161166   1.219   3.126   1.822 -1.2890  0.8397  1.7655
13225TIP3    H261167   1.328   3.220   1.777 -0.0141 -1.2032  0.4934
13226TIP3   OH261168   0.212   6.668  16.792 -0.1280  0.2415 -0.0935
13226TIP3    H161169   0.270   6.676  16.868 -2.8603  1.5979  1.9543
13226TIP3    H261170   0.261   6.708  16.721  2.1192 -0.1621  1.1720
13227TIP3   OH261171   3.746   4.777   1.048 -0.5547 -0.2380 -0.1539
13227TIP3    H161172   3.776   4.779   0.957 -0.6039 -0.2252 -0.1696
13227TIP3    H261173   3.792   4.850   1.090  0.8463 -1.3414  0.2561
13228TIP3   OH261174   3.463   1.428   1.541 -0.5112  0.3467  0.1218
13228TIP3    H161175   3.509   1.354   1.581 -2.4980 -0.7057  0.5269
13228TIP3    H261176   3.468   1.498   1.606  2.9463  1.2350 -0.9791
13229TIP3   OH261177   5.133   3.421  12.091 -0.6673  0.4943 -0.1429
13229TIP3    H161178   5.115   3.477  12.166 -1.2305  1.1734 -0.7669
13229TIP3    H261179   5.227   3.426  12.079 -0.8170  2.2158 -0.8603
13230TIP3   OH261180   6.561   2.855  13.917  0.4062 -0.6606 -0.5117
13230TIP3    H161181   6.519   2.835  14.001 -2.2513  1.1619 -1.3279
13230TIP3    H261182   6.628   2.919  13.939  0.4611 -1.0072  0.3676
13231TIP3   OH261183   1.884   5.916   3.933 -0.3242 -0.5956 -0.2521
13231TIP3    H161184   1.927   5.913   3.848  1.1509 -0.1721  0.4697
13231TIP3    H261185   1.791   5.927   3.912 -0.0664 -1.2190 -1.8143
13232TIP3   OH261186   3.567   0.583  16.153 -0.6859  0.0530  0.2580
13232TIP3    H161187   3.507   0.532  16.207 -0.0109 -0.8225  0.1886
13232TIP3    H261188   3.511   0.623  16.086 -0.9800 -2.1439 -0.8687
13233TIP3   OH261189   6.043   5.796   3.201 -0.2422  0.0103 -0.1666
13233TIP3    H161190   6.020   5.888   3.196 -0.1639 -0.0093 -1.0838
13233TIP3    H261191   6.126   5.794   3.248 -0.7607  0.3139  0.7592
13234TIP3   OH261192   2.958   0.731  15.716  0.1954  0.4973 -0.3413
13234TIP3    H161193   3.046   0.705  15.743  0.2587 -0.7308 -1.5956
13234TIP3    H261194   2.961   0.826  15.709  0.5041  0.7557  2.6575
13235TIP3   OH261195   4.543   2.495   0.973 -0.4343 -0.2619  0.1462
13235TIP3    H161196   4.540   2.541   0.889 -0.2408 -0.2431  0.1493
13235TIP3    H261197   4.541   2.566   1.038  0.3470 -0.2409  0.1436
13236TIP3   OH261198   2.216   5.478   1.002 -0.6130  0.1404  0.2029
13236TIP3    H161199   2.210   5.397   1.052  1.4884 -1.0982 -1.4263
13236TIP3    H261200   2.186   5.454   0.914  0.9696  0.8451 -0.5599
13237TIP3   OH261201   5.534   6.670   5.552 -0.1538 -0.1739 -0.0681
13237TIP3    H161202   5.447   6.668   5.511  0.3660 -0.6749 -1.1402
13237TIP3    H261203   5.527   6.740   5.617 -0.8547  0.9237 -1.2963
13238TIP3   OH261204   3.761   5.577  16.966  0.4777  0.7458  0.1549
13238TIP3    H161205   3.799   5.610  16.884  1.3344 -0.8999 -0.1222
13238TIP3    H261206   3.818   5.611  17.035 -0.3183  2.2448  0.1027
13239TIP3   OH261207   1.543   2.491  10.965 -0.4925  0.6752 -0.3678
13239TIP3    H161208   1.491   2.571  10.974 -0.6205  0.5787 -0.2372
13239TIP3    H261209   1.633   2.522  10.957 -0.6648  0.8791 -1.5218
13240TIP3   OH261210   2.974   1.749  11.182 -0.3495 -0.2874 -0.1345
13240TIP3    H161211   3.022   1.776  11.103  0.2786 -1.0957 -0.0324
13240TIP3    H261212   2.963   1.830  11.232  0.1104  0.0595 -0.5916
13241TIP3   OH261213   6.099   4.197  13.647 -0.2881 -0.1185  0.4043
13241TIP3    H161214   6.056   4.141  13.712 -0.5281 -0.4810 -0.0551
13241TIP3    H261215   6.030   4.218  13.584 -0.1548  0.5591  0.4804
13242TIP3   OH261216   4.791   0.708   5.043 -0.3604 -0.0895 -0.0640
13242TIP3    H161217   4.789   0.663   4.958  1.3171  0.5530 -0.4630
13242TIP3    H261218   4.799   0.637   5.107  0.8813 -0.4578 -0.6119
13243TIP3   OH261219   4.748   3.287  16.982 -0.4371 -0.1158  0.1156
13243TIP3    H161220   4.822   3.242  16.941 -1.2822  0.4611 -2.1141
13243TIP3    H261221   4.719   3.350  16.916 -0.8920  1.9277  2.2084
13244TIP3   OH261222   1.445   6.100   0.773  0.4725  0.2988  0.9788
13244TIP3    H161223   1.505   6.054   0.713  1.3639  1.5188  0.9152
13244TIP3    H261224   1.369   6.042   0.780  1.1480 -0.7135  0.1077
13245TIP3   OH261225   3.556   5.010   1.036  0.3258  0.3378  0.2307
13245TIP3    H161226   3.550   5.061   1.117 -1.5468  0.8568 -0.1909
13245TIP3    H261227   3.546   4.919   1.064 -1.3133  0.5844  0.4998
13246TIP3   OH261228   1.141   4.515  14.126 -0.0012 -0.1418  0.1225
13246TIP3    H161229   1.076   4.560  14.071  0.0799  1.3411  1.2119
13246TIP3    H261230   1.195   4.465  14.064  0.7262  2.3109 -1.2884
13247TIP3   OH261231   4.547   0.411   3.151 -0.1564 -0.0752  0.3559
13247TIP3    H161232   4.491   0.335   3.141 -1.1151  0.3920  1.8797
13247TIP3    H261233   4.635   0.379   3.134 -0.9837 -0.4950 -3.6151
13248TIP3   OH261234   5.766   1.901  16.873  0.1775  0.7194  0.6521
13248TIP3    H161235   5.717   1.880  16.953  0.1753  0.9046  0.6985
13248TIP3    H261236   5.698   1.929  16.811  0.1248  0.1086  0.4269
13249TIP3   OH261237   4.096   0.532   6.153  0.1676 -0.1057 -0.2941
13249TIP3    H161238   4.087   0.545   6.059  0.5232 -0.3328 -0.3623
13249TIP3    H261239   4.153   0.455   6.161 -0.5782 -0.6234  0.0983
13250TIP3   OH261240   1.746   6.706  14.307 -0.1965 -0.0901 -0.0573
13250TIP3    H161241   1.830   6.679  14.344 -0.8324 -1.0806  0.6880
13250TIP3    H261242   1.695   6.736  14.383 -0.3562  0.9319 -0.5654
13251TIP3   OH261243   3.891   5.303   2.727 -0.1230 -0.4142  0.5005
13251TIP3    H161244   3.867   5.230   2.671 -0.6062 -0.8398  1.2462
13251TIP3    H261245   3.822   5.305   2.794  0.5854 -0.0813  1.2247
13252TIP3   OH261246   3.398   1.300   0.576  0.8204  0.2314  0.3231
13252TIP3    H161247   3.359   1.331   0.494  0.3878 -0.4469  0.2649
13252TIP3    H261248   3.371   1.209   0.582  1.4260  0.0856  0.8831
13253TIP3   OH261249   5.952   0.842   0.130  0.0879  0.2822  0.2126
13253TIP3    H161250   5.873   0.824   0.181  0.2192 -0.4953  0.1476
13253TIP3    H261251   5.993   0.916   0.174 -0.1117 -0.0054  0.8784
13254TIP3   OH261252   6.123   1.465   3.523 -0.2968 -0.0123 -0.4382
13254TIP3    H161253   6.094   1.531   3.460 -4.4096  0.5668  1.8729
13254TIP3    H261254   6.190   1.510   3.575 -1.7843  1.7728 -0.0348
13255TIP3   OH261255   0.419   2.152   1.557  0.6559  0.0769 -0.2475
13255TIP3    H161256   0.410   2.105   1.640 -0.6224  2.1007  0.8073
13255TIP3    H261257   0.345   2.122   1.504  1.9512 -1.8637 -1.0433
13256TIP3   OH261258   4.780   6.334   2.093 -0.2442 -0.1933  0.2537
13256TIP3    H161259   4.843   6.370   2.156 -0.4871 -0.4247  0.6281
13256TIP3    H261260   4.834   6.283   2.033 -0.0249 -0.0650  0.3404
13257TIP3   OH261261   2.550   2.395  12.970  0.1714  0.1693 -0.1181
13257TIP3    H161262   2.506   2.330  13.025  0.1316 -0.2608 -0.6515
13257TIP3    H261263   2.491   2.407  12.896 -0.2479  1.4930  0.4262
13258TIP3   OH261264   3.681   3.516  16.352 -0.4179 -0.0072 -0.2449
13258TIP3    H161265   3.681   3.446  16.417 -1.5651 -0.1669 -0.4072
13258TIP3    H261266   3.727   3.479  16.277 -0.2289 -0.2774  0.0039
13259TIP3   OH261267   1.755   3.282  12.727  0.0833  0.2167  0.4580
13259TIP3    H161268   1.809   3.266  12.805  1.5474  0.3587 -0.5080
13259TIP3    H261269   1.683   3.335  12.759  0.8733  0.5867  1.6688
13260TIP3   OH261270   6.658   4.905  16.629  0.6021 -0.5001  0.3826
13260TIP3    H161271   6.744   4.866  16.647  0.6283 -0.8134 -0.4190
13260TIP3    H261272   6.665   4.938  16.539 -0.6686 -2.0025 -0.2858
13261TIP3   OH261273   2.522   5.846   1.068  0.2305  0.2408 -0.0840
13261TIP3    H161274   2.481   5.913   1.123 -2.1911  0.1217 -1.6946
13261TIP3    H261275   2.601   5.821   1.117  0.0356  2.6862  1.5904
13262TIP3   OH261276   3.259   3.564   5.580  0.4536 -0.2633  0.5527
13262TIP3    H161277   3.319   3.633   5.552  0.3771 -0.6241 -0.5501
13262TIP3    H261278   3.294   3.534   5.663  0.2580  1.3726  1.2483
13263TIP3   OH261279   2.192   0.574   0.186 -0.2963 -0.4810  0.3106
13263TIP3    H161280   2.204   0.498   0.130 -0.7992 -0.2102 -0.1729
13263TIP3    H261281   2.109   0.613   0.157  0.5913  0.9953 -0.3457
13264TIP3   OH261282   0.247   4.694  12.929  0.2547 -0.0403 -0.1064
13264TIP3    H161283   0.191   4.616  12.932  1.4717 -0.9112  0.3554
13264TIP3    H261284   0.272   4.702  12.837  0.3177 -0.3337 -0.1153
13265TIP3   OH261285   6.157   2.906   2.512  0.3922 -0.4616  0.5097
13265TIP3    H161286   6.231   2.913   2.573  0.0271  1.5775  0.7415
13265TIP3    H261287   6.079   2.911   2.567  0.0703 -0.6077  0.0718
13266TIP3   OH261288   3.072   4.478   1.995 -0.0099 -0.0401 -0.2251
13266TIP3    H161289   3.108   4.567   1.999  0.9376 -0.4731  1.2306
13266TIP3    H261290   3.149   4.421   2.003 -0.7344 -0.9845  0.0576
13267TIP3   OH261291   2.896   4.638   1.633  0.4926 -0.3695  0.0498
13267TIP3    H161292   2.930   4.697   1.701 -0.6135 -0.1792  0.4516
13267TIP3    H261293   2.892   4.552   1.675 -2.9974  0.3041  1.2009
13268TIP3   OH261294   6.010   1.299  14.053  0.1441 -0.2560 -0.0420
13268TIP3    H161295   6.011   1.394  14.053 -0.6236 -0.2435 -0.8255
13268TIP3    H261296   6.103   1.274  14.047  0.2523  0.4627 -1.8083
13269TIP3   OH261297   5.621   0.004   0.352 -0.4515  0.3549 -0.1941
13269TIP3    H161298   5.585  -0.080   0.381  1.2295 -0.4627 -0.4530
13269TIP3    H261299   5.615   0.061   0.429  0.2631 -0.6028  0.5736
13270TIP3   OH261300   1.594   1.346   4.130  0.7603  0.0560 -0.1340
13270TIP3    H161301   1.552   1.307   4.053  1.3096  0.0391 -0.4306
13270TIP3    H261302   1.544   1.313   4.204 -0.1226  0.5154 -0.5180
13271TIP3   OH261303   1.838   2.874  15.489  0.3499  0.3040 -0.3194
13271TIP3    H161304   1.863   2.931  15.416 -0.6577 -0.6816 -1.4695
13271TIP3    H261305   1.920   2.857  15.535  0.7738  2.0976 -0.3721
13272TIP3   OH261306   5.420   4.666   1.924 -0.5070 -0.4659  0.5182
13272TIP3    H161307   5.468   4.742   1.892  1.5517 -2.0697 -0.3361
13272TIP3    H261308   5.343   4.660   1.869 -0.5876  0.9023  0.4848
13273TIP3   OH261309   5.005   4.166   6.650  0.6309  0.1791 -0.2719
13273TIP3    H161310   5.043   4.160   6.562 -0.2452  0.3034 -0.6648
13273TIP3    H261311   4.973   4.256   6.656  1.4634  0.4270  0.5020
13274TIP3   OH261312   6.801   3.998   0.128 -0.3544 -0.2784 -0.1050
13274TIP3    H161313   6.809   3.930   0.195  0.2682 -1.8241 -1.7205
13274TIP3    H261314   6.786   3.950   0.047 -1.2068  1.5832 -1.0784
13275TIP3   OH261315   4.112   6.370   2.444  0.5518 -0.5677 -1.0769
13275TIP3    H161316   4.112   6.287   2.491  0.4724  0.2306  0.3588
13275TIP3    H261317   4.021   6.400   2.448  1.0431  0.7787  0.5856
13276TIP3   OH261318   6.310   3.102   0.335 -0.0263 -0.4943  0.1148
13276TIP3    H161319   6.378   3.121   0.270 -0.5153  0.4955 -0.1111
13276TIP3    H261320   6.250   3.176   0.329 -1.5249 -1.7200 -0.2016
13277TIP3   OH261321   3.925   6.340  13.057  0.7181  0.0534 -0.3524
13277TIP3    H161322   3.982   6.263  13.049  0.4699 -0.0892 -0.7793
13277TIP3    H261323   3.940   6.389  12.976 -1.9494 -1.4779 -1.8387
13278TIP3   OH261324   2.476   1.658  13.484 -0.4875 -0.0459  0.1382
13278TIP3    H161325   2.565   1.674  13.451  0.2051 -0.4870  1.7534
13278TIP3    H261326   2.421   1.718  13.433  0.4688 -1.0441 -2.1616
13279TIP3   OH261327   1.821   2.367  16.002  0.2095  1.0926  0.3747
13279TIP3    H161328   1.782   2.398  15.920  0.3121  0.0355 -0.0826
13279TIP3    H261329   1.767   2.292  16.027  1.3171  0.2436  0.2710
13280TIP3   OH261330   5.689   3.784   6.267  0.0385  0.0540  0.4062
13280TIP3    H161331   5.778   3.802   6.234  0.4257  1.6583  2.2075
13280TIP3    H261332   5.635   3.853   6.228  0.0715  0.5888  1.2913
13281TIP3   OH261333   1.426   1.219   0.650  0.0311  0.5363  0.0853
13281TIP3    H161334   1.357   1.286   0.658  0.5219  1.4314 -2.7068
13281TIP3    H261335   1.383   1.146   0.605  1.0833  1.3791 -2.3005
13282TIP3   OH261336   3.028   4.720  16.510  0.0558 -0.0172  0.4368
13282TIP3    H161337   3.032   4.806  16.553  2.9931  1.0961 -1.9140
13282TIP3    H261338   3.011   4.739  16.418 -1.3312 -2.1084  0.2153
13283TIP3   OH261339   2.852   3.262  13.526 -0.0922  0.4088 -0.0213
13283TIP3    H161340   2.861   3.279  13.433 -1.8170  2.0357  0.0648
13283TIP3    H261341   2.791   3.188  13.531 -0.9477  1.0860 -0.1852
13284TIP3   OH261342   4.025   5.178  16.361  0.6206  0.1398  0.0394
13284TIP3    H161343   4.085   5.182  16.435  1.8581  1.5334 -0.9879
13284TIP3    H261344   4.072   5.222  16.290 -2.2835  2.8539 -0.3334
13285TIP3   OH261345   0.768   6.781  10.269  0.3311  0.4607  0.0877
13285TIP3    H161346   0.815   6.853  10.311  0.6304  0.6106 -0.5007
13285TIP3    H261347   0.678   6.811  10.264  0.0545 -0.0399  1.6948
13286TIP3   OH261348   4.417   5.570   2.231  0.3728 -0.1717 -0.1004
13286TIP3    H161349   4.327   5.582   2.201 -0.0238 -2.4439  0.0970
13286TIP3    H261350   4.464   5.534   2.156  0.7421 -0.4471  0.2570
13287TIP3   OH261351   4.927   6.015  14.707 -0.1216 -0.5117 -0.7092
13287TIP3    H161352   4.939   5.994  14.799  1.4495  0.3019 -0.7146
13287TIP3    H261353   4.878   6.098  14.707  2.5502  1.1195 -0.5311
13288TIP3   OH261354   4.317   0.555  12.953 -0.0769 -0.1100 -0.4373
13288TIP3    H161355   4.314   0.463  12.980  0.4153 -0.0030 -0.0057
13288TIP3    H261356   4.283   0.604  13.028  0.6781  0.1393 -0.2542
13289TIP3   OH261357   2.557   0.452   2.884  0.0864  0.0406 -0.0600
13289TIP3    H161358   2.509   0.387   2.832 -1.6435  1.4454 -0.2726
13289TIP3    H261359   2.632   0.404   2.920 -0.6724 -1.8383 -0.9371
13290TIP3   OH261360   6.295   6.538  17.237 -0.3807 -0.2682 -0.2307
13290TIP3    H161361   6.364   6.577  17.183  0.9962 -0.1833  1.5283
13290TIP3    H261362   6.238   6.493  17.175  1.5895 -0.8059 -1.6909
13291TIP3   OH261363   3.912   1.599  11.904  0.6757 -0.2055 -0.0742
13291TIP3    H161364   3.885   1.507  11.905  1.1696 -0.3451  0.2484
13291TIP3    H261365   3.831   1.648  11.913  0.3929 -0.6062 -0.4057
13292TIP3   OH261366   0.333   1.050   5.298  0.1315 -0.2737  0.0708
13292TIP3    H161367   0.414   1.097   5.276 -0.7501  1.3151  0.0819
13292TIP3    H261368   0.301   1.094   5.376 -1.5781  0.1891 -0.8573
13293TIP3   OH261369   0.147   4.533  17.007  0.6837  0.0933 -0.5297
13293TIP3    H161370   0.188   4.523  17.093 -0.1876  0.1178 -0.1003
13293TIP3    H261371   0.217   4.563  16.950  0.7790  2.1979  0.6563
13294TIP3   OH261372   6.779   6.051  13.869 -0.4742 -0.0103 -0.0108
13294TIP3    H161373   6.775   6.061  13.964 -1.8516  0.0131 -0.0642
13294TIP3    H261374   6.726   6.124  13.836  0.7922  0.5584 -0.8368
13295TIP3   OH261375   5.407   2.933   4.481 -0.9246  0.0878 -0.0113
13295TIP3    H161376   5.343   2.937   4.409  0.8326  4.4463 -1.5150
13295TIP3    H261377   5.365   2.980   4.553 -1.2367 -1.1420  0.6264
13296TIP3   OH261378   5.146   2.551   0.056  0.1638 -0.2093  0.2924
13296TIP3    H161379   5.102   2.468   0.037  0.2286  0.0363 -0.9981
13296TIP3    H261380   5.133   2.603  -0.024 -0.4797  1.2799  1.3434
13297TIP3   OH261381   0.686   1.144  11.549 -0.1926  0.2134  0.2717
13297TIP3    H161382   0.681   1.198  11.628 -0.5430 -1.0966  1.1600
13297TIP3    H261383   0.739   1.069  11.575  2.7328  1.4942 -1.7676
13298TIP3   OH261384   6.161   4.373   1.346  0.3109 -0.1638  0.1107
13298TIP3    H161385   6.088   4.431   1.369  0.6565  0.8113 -1.1778
13298TIP3    H261386   6.226   4.388   1.415  0.4862  1.1656 -0.3267
13299TIP3   OH261387   4.520   1.574  17.235 -0.1135 -0.1873  0.0933
13299TIP3    H161388   4.463   1.610  17.304 -0.2965 -0.0608 -0.1248
13299TIP3    H261389   4.566   1.651  17.200  0.0415 -0.2632  0.1299
13300TIP3   OH261390   2.872   5.053  14.687 -0.0463 -0.0301  0.5125
13300TIP3    H161391   2.785   5.090  14.671 -0.9195 -1.5549  1.5484
13300TIP3    H261392   2.922   5.124  14.726 -0.8204  0.8609 -0.0872
13301TIP3   OH261393   1.371   3.195   2.909  0.2014  0.1616  0.5183
13301TIP3    H161394   1.417   3.128   2.859 -1.2418 -0.1924 -0.3629
13301TIP3    H261395   1.309   3.234   2.847 -0.9560  0.3682  1.7608
13302TIP3   OH261396   2.187   3.964   5.345 -0.4584 -0.2451 -0.0444
13302TIP3    H161397   2.270   3.917   5.346  0.5565  1.5036  1.1227
13302TIP3    H261398   2.196   4.028   5.274 -0.0567  1.1947  1.2674
13303TIP3   OH261399   1.769   4.048   2.765  0.1400  0.7662  0.5155
13303TIP3    H161400   1.711   3.972   2.764  0.2905  0.6609 -0.3688
13303TIP3    H261401   1.846   4.020   2.716  1.8088  0.2404  3.2851
13304TIP3   OH261402   5.675   1.253   0.540 -0.1120 -0.0020  0.3576
13304TIP3    H161403   5.769   1.272   0.550 -0.0637 -0.4586  0.8019
13304TIP3    H261404   5.646   1.230   0.628 -0.7760  0.7012  0.3286
13305TIP3   OH261405   1.004   0.439  12.478  0.3868  0.1196  0.0076
13305TIP3    H161406   0.987   0.382  12.403  2.4161  0.6140 -0.8488
13305TIP3    H261407   0.947   0.406  12.547 -1.1466 -0.6522 -1.5949
13306TIP3   OH261408   6.458   4.242  16.105  0.0358  0.5995  0.4256
13306TIP3    H161409   6.465   4.178  16.176  1.5208  0.6902  0.3773
13306TIP3    H261410   6.375   4.286  16.121 -1.8865 -2.5660 -0.5828
13307TIP3   OH261411   4.893   6.050  12.304  0.1624  0.0356 -0.0722
13307TIP3    H161412   4.975   6.044  12.353  0.4049  1.2883 -0.3249
13307TIP3    H261413   4.881   6.143  12.288 -0.1136 -0.3149 -2.0633
13308TIP3   OH261414   4.285   3.136   2.373 -0.6654  0.3661  0.5353
13308TIP3    H161415   4.243   3.123   2.457 -0.7714 -1.5203  0.2093
13308TIP3    H261416   4.375   3.162   2.394 -1.0155  1.0169  1.2205
13309TIP3   OH261417   5.625   1.207   0.797  0.3831 -0.1269  0.1973
13309TIP3    H161418   5.540   1.250   0.805 -0.4396 -1.3821 -1.4787
13309TIP3    H261419   5.615   1.123   0.842  0.4918 -0.5860 -0.6123
13310TIP3   OH261420   1.930   4.222  13.941  0.1818  0.2039 -0.5240
13310TIP3    H161421   2.011   4.272  13.932  0.2658  0.0118 -0.8300
13310TIP3    H261422   1.934   4.157  13.871  0.7196 -1.1129  0.7023
13311TIP3   OH261423   1.874   4.614  13.576  0.0248 -0.2829  0.2436
13311TIP3    H161424   1.801   4.625  13.636 -0.6555  0.9226 -0.7966
13311TIP3    H261425   1.854   4.671  13.502  2.5804  0.9897  0.4794
13312TIP3   OH261426   6.412   2.668   5.104  0.6091 -0.4572 -0.1924
13312TIP3    H161427   6.383   2.749   5.147  0.2571 -0.7968  0.2221
13312TIP3    H261428   6.508   2.672   5.107  0.5904 -0.1732  0.0618
13313TIP3   OH261429   3.079   2.058   5.264  0.2748  0.8505 -0.0586
13313TIP3    H161430   3.062   2.095   5.350  0.3794 -0.5653  0.5808
13313TIP3    H261431   3.164   2.014   5.272  0.4692  1.0345 -0.9839
13314TIP3   OH261432   1.904   3.354   0.616  0.2404 -0.7765 -0.0374
13314TIP3    H161433   1.890   3.268   0.657 -0.7382  0.2384  1.8373
13314TIP3    H261434   1.823   3.370   0.568  0.7018 -1.1940 -0.9722
13315TIP3   OH261435   0.512   0.644  14.511  0.0878  0.7226  0.7469
13315TIP3    H161436   0.467   0.728  14.520 -1.0858 -0.0247  2.0357
13315TIP3    H261437   0.605   0.667  14.511 -0.2424  2.2281 -1.2029
13316TIP3   OH261438   1.071   2.698  15.251 -0.4946 -0.5470  0.0967
13316TIP3    H161439   1.126   2.620  15.252 -2.0872 -1.6887  1.2745
13316TIP3    H261440   1.056   2.716  15.158  1.6110 -0.3611 -0.2376
13317TIP3   OH261441   1.699   0.622  14.608  0.0585 -0.0573 -0.2829
13317TIP3    H161442   1.726   0.598  14.697 -1.2839  1.8643  0.6872
13317TIP3    H261443   1.606   0.644  14.616  0.2465  1.4325 -1.8778
13318TIP3   OH261444   4.961   1.451   2.366  0.1505  0.2202  0.2376
13318TIP3    H161445   4.976   1.405   2.283  1.0225  2.0726 -0.6667
13318TIP3    H261446   5.049   1.464   2.401 -0.2216 -0.5997  1.4894
13319TIP3   OH261447   5.183   1.309  17.288 -0.1893 -0.4081  0.6765
13319TIP3    H161448   5.201   1.369  17.361  0.4946  1.2767 -0.8467
13319TIP3    H261449   5.252   1.244  17.293  0.8746  0.6861  0.5257
13320TIP3   OH261450   3.736   1.875   6.924 -0.9043  0.4083  0.3170
13320TIP3    H161451   3.660   1.830   6.960 -1.4503  0.9925 -0.0852
13320TIP3    H261452   3.703   1.918   6.845  0.0683 -0.1151 -0.3855
13321TIP3   OH261453   5.777   2.077   6.027  0.5339  0.1570  0.3137
13321TIP3    H161454   5.766   2.132   6.105 -2.5538 -1.0377  0.8247
13321TIP3    H261455   5.750   2.132   5.954 -1.1607 -0.1807  0.6624
13322TIP3   OH261456   3.835   2.598   0.512  0.3107  0.5978 -0.7068
13322TIP3    H161457   3.764   2.613   0.449  0.4084  0.7372 -0.7817
13322TIP3    H261458   3.914   2.596   0.459  0.2908 -0.2990 -0.7195
13323TIP3   OH261459   6.429   5.055   1.918  0.2494  0.1940  0.1631
13323TIP3    H161460   6.432   4.961   1.898  0.8038 -0.1322  1.7049
13323TIP3    H261461   6.337   5.079   1.904  0.4182 -0.2143 -1.7647
13324TIP3   OH261462   0.008   4.172  12.147 -0.2005 -0.2526  0.5357
13324TIP3    H161463   0.055   4.235  12.201 -0.8534 -0.0353  0.8554
13324TIP3    H261464   0.025   4.088  12.188  1.1269 -0.3604 -0.2092
13325TIP3   OH261465   2.450   0.537   1.077 -0.3873  0.2179  0.0343
13325TIP3    H161466   2.376   0.526   1.136  0.0857  0.5942  0.7083
13325TIP3    H261467   2.513   0.589   1.127 -0.0635  0.7178 -0.8754
13326TIP3   OH261468   5.950   6.708  11.079  0.3432  0.0665  0.0282
13326TIP3    H161469   5.963   6.712  11.174 -2.0393 -2.0635  0.5182
13326TIP3    H261470   5.955   6.614  11.059 -1.2823  0.3012 -1.5987
13327TIP3   OH261471   3.720   4.679   3.586  0.0891 -0.0210  0.3402
13327TIP3    H161472   3.782   4.646   3.521 -0.0172 -1.0404  0.7426
13327TIP3    H261473   3.773   4.736   3.642  0.9439 -1.7438  1.3466
13328TIP3   OH261474   1.606   1.410  15.448  0.3257 -0.5114 -0.6969
13328TIP3    H161475   1.584   1.480  15.510  2.8896  1.1537 -1.5842
13328TIP3    H261476   1.522   1.383  15.412 -1.0957 -0.6141  2.5045
13329TIP3   OH261477   2.969   2.236  16.788  0.1616  0.1787  0.5267
13329TIP3    H161478   3.015   2.203  16.711 -0.2638  0.1635  0.2775
13329TIP3    H261479   2.995   2.327  16.794  0.3872  0.1154  0.5056
13330TIP3   OH261480   3.197   0.301  11.244 -0.4632  0.0813  0.1924
13330TIP3    H161481   3.233   0.386  11.270 -0.7898  0.3878 -0.3460
13330TIP3    H261482   3.239   0.238  11.303 -0.7765  0.7011  1.0947
13331TIP3   OH261483   1.982   0.768   4.010 -0.1663 -0.4209 -0.2704
13331TIP3    H161484   1.991   0.768   4.106 -1.2749  0.8927 -0.1449
13331TIP3    H261485   1.914   0.703   3.993  0.8320 -1.4681 -0.2521
13332TIP3   OH261486   1.783   6.300  14.765 -0.2928  0.4496 -0.5989
13332TIP3    H161487   1.757   6.255  14.684 -0.6651 -1.4947  0.5715
13332TIP3    H261488   1.710   6.359  14.784 -0.9182 -0.2519 -0.8186
13333TIP3   OH261489   0.851   1.122   2.251  1.0656 -0.3155 -0.7478
13333TIP3    H161490   0.856   1.217   2.240 -2.1114 -0.0924 -0.5249
13333TIP3    H261491   0.923   1.101   2.312 -0.3853  2.4336  2.0290
13334TIP3   OH261492   3.657   0.864  12.679 -0.2341  0.1445  0.2750
13334TIP3    H161493   3.615   0.859  12.593 -0.0635  1.3366  0.1217
13334TIP3    H261494   3.606   0.804  12.734 -2.0691  1.4646  0.0587
13335TIP3   OH261495   5.830   1.834   0.067  0.2626  0.3377 -0.6335
13335TIP3    H161496   5.866   1.811   0.153 -1.8731  0.0055  0.2137
13335TIP3    H261497   5.877   1.913   0.041  1.4999 -0.0146  0.4688
13336TIP3   OH261498   1.389   5.007   1.902  0.5821 -0.4185  0.0988
13336TIP3    H161499   1.453   5.078   1.905 -1.3567  1.3514  1.0656
13336TIP3    H261500   1.406   4.955   1.981  0.9588 -0.0810  0.2404
13337TIP3   OH261501   4.129   1.839  16.591 -0.0012 -0.2645 -0.6020
13337TIP3    H161502   4.202   1.898  16.572 -0.0309 -0.3611 -1.0189
13337TIP3    H261503   4.117   1.845  16.686  0.5240 -0.2182 -0.5360
13338TIP3   OH261504   2.435   6.476   5.002 -0.7655  0.0375  0.2178
13338TIP3    H161505   2.430   6.557   4.951  0.6355  0.0478  0.0726
13338TIP3    H261506   2.371   6.417   4.962 -0.3863  0.3956 -0.9086
13339TIP3   OH261507   2.061   0.271   3.976  0.2526  0.4085  0.5470
13339TIP3    H161508   2.135   0.211   3.964 -0.2936 -0.5655  2.0274
13339TIP3    H261509   2.098   0.344   4.027  0.1570 -0.1322  1.3843
13340TIP3   OH261510   4.948   5.473   3.787 -0.8443  0.1476  0.1007
13340TIP3    H161511   4.960   5.513   3.874 -0.2901  0.5597 -0.1612
13340TIP3    H261512   4.966   5.380   3.801 -2.1806 -0.0204  0.7233
13341TIP3   OH261513   1.556   3.844  11.136 -0.2694 -0.0802 -0.7018
13341TIP3    H161514   1.573   3.790  11.213 -0.4156  0.0055 -0.6116
13341TIP3    H261515   1.498   3.791  11.081 -0.4337 -0.0028 -0.6015
13342TIP3   OH261516   0.905   6.152  13.833 -0.7288 -0.1433  0.5894
13342TIP3    H161517   0.857   6.100  13.769  1.0992 -0.1409 -0.8220
13342TIP3    H261518   0.968   6.092  13.872 -1.3343  0.0380  1.8665
13343TIP3   OH261519   0.379   4.662  11.556 -0.2992  0.8967 -0.6687
13343TIP3    H161520   0.345   4.749  11.578  0.0871  0.9001 -0.0579
13343TIP3    H261521   0.473   4.669  11.574 -0.4181  0.0747  0.2884
13344TIP3   OH261522   4.967   1.068   5.610  0.5773  0.7300 -0.4373
13344TIP3    H161523   4.951   1.047   5.702 -1.0295 -0.5787 -0.9967
13344TIP3    H261524   5.055   1.035   5.593  0.6942  0.5386  0.4876
13345TIP3   OH261525   4.119   5.580  14.395 -0.1102  0.1630  0.1368
13345TIP3    H161526   4.055   5.566  14.326 -0.2889 -0.0501  0.3479
13345TIP3    H261527   4.185   5.513  14.381  1.2556  1.7871 -1.4678
13346TIP3   OH261528   4.438   1.406  15.430 -0.0141 -0.4438  0.1108
13346TIP3    H161529   4.499   1.349  15.476 -0.6476 -1.6032 -0.4771
13346TIP3    H261530   4.356   1.357  15.427 -1.6242  1.8985  2.7222
13347TIP3   OH261531   6.556   1.315   3.776 -0.2828 -0.9067 -0.5403
13347TIP3    H161532   6.593   1.277   3.696 -0.8854  2.2051 -2.3903
13347TIP3    H261533   6.630   1.318   3.837  1.1767  0.1218 -2.3004
13348TIP3   OH261534   4.722   2.874  10.589  0.4210 -0.0821 -0.3958
13348TIP3    H161535   4.666   2.906  10.518  0.6220  0.1760 -0.4344
13348TIP3    H261536   4.809   2.908  10.569  0.7243 -1.0199 -0.6788
13349TIP3   OH261537   2.549   4.490   2.139 -0.1081  0.2922  0.1418
13349TIP3    H161538   2.625   4.524   2.092  0.4730 -0.6821  0.3842
13349TIP3    H261539   2.569   4.505   2.231 -0.5554  0.7395  0.1728
13350TIP3   OH261540   5.481   3.835   1.283  0.0261 -0.1044  0.5076
13350TIP3    H161541   5.397   3.789   1.293  1.6250 -3.9492 -2.2502
13350TIP3    H261542   5.462   3.905   1.221 -1.3799 -0.1683  0.8277
13351TIP3   OH261543   5.797   3.665  16.938  0.5128  0.1358 -0.4784
13351TIP3    H161544   5.817   3.716  17.016  0.8677 -2.7653  1.4271
13351TIP3    H261545   5.873   3.607  16.928 -0.6953 -1.3263 -1.4194
13352TIP3   OH261546   2.219   4.896  14.896  0.5615  0.1905 -0.5513
13352TIP3    H161547   2.291   4.849  14.852  1.0573 -1.5802  2.0672
13352TIP3    H261548   2.263   4.958  14.954 -0.0790  1.1093 -1.0331
13353TIP3   OH261549   0.508   2.757  16.446  0.3456  0.4802  0.3081
13353TIP3    H161550   0.566   2.682  16.445 -0.0609  0.1253  1.7273
13353TIP3    H261551   0.556   2.826  16.401  0.4150 -0.8357 -1.6635
13354TIP3   OH261552   1.933   4.309  16.054 -0.3258  0.1150 -0.0713
13354TIP3    H161553   1.944   4.273  15.966  0.4869  0.8607 -0.2769
13354TIP3    H261554   2.001   4.375  16.062 -0.9378  0.6531  0.8084
13355TIP3   OH261555   2.194   4.689   1.922  0.0761  0.0821 -0.0453
13355TIP3    H161556   2.286   4.715   1.926 -0.1243  1.0830 -1.5490
13355TIP3    H261557   2.145   4.771   1.937 -0.5689 -0.4142  0.6008
13356TIP3   OH261558   4.951   1.543  12.844  0.2429 -0.0351 -0.0833
13356TIP3    H161559   4.934   1.574  12.756 -0.0339 -1.5364 -0.5690
13356TIP3    H261560   4.882   1.582  12.898 -1.1252 -1.1815 -0.9822
13357TIP3   OH261561   5.960   2.050  17.023  0.5532 -0.1605  0.0773
13357TIP3    H161562   5.880   2.007  16.995 -0.1661  0.7562  0.7153
13357TIP3    H261563   5.988   2.101  16.946 -1.3954  2.3149  0.9443
13358TIP3   OH261564   3.675   5.103  12.986  0.2250  0.2442  0.2701
13358TIP3    H161565   3.672   5.195  12.958 -0.8208  0.1448  0.0424
13358TIP3    H261566   3.676   5.053  12.905  2.0912  0.0782  0.3846
13359TIP3   OH261567   6.311   5.768   2.538  0.0953  0.0244 -0.0126
13359TIP3    H161568   6.299   5.862   2.524 -1.6068 -0.2603 -0.6802
13359TIP3    H261569   6.222   5.732   2.533  0.7914 -1.6970 -0.3788
13360TIP3   OH261570   1.070   0.309  15.003 -0.2375 -0.0636 -0.0242
13360TIP3    H161571   1.007   0.289  14.935  0.4976 -0.5104 -0.5834
13360TIP3    H261572   1.029   0.379  15.054 -0.3802  0.9494 -1.4991
13361TIP3   OH261573   2.080   4.624  13.356 -0.0216 -0.4530 -0.1369
13361TIP3    H161574   2.092   4.718  13.366 -0.2876 -0.4295 -0.0462
13361TIP3    H261575   2.063   4.592  13.445  1.5256 -0.7905  0.0444
13362TIP3   OH261576   4.460   5.868   1.000  0.0379  0.2289 -0.2957
13362TIP3    H161577   4.480   5.951   0.957  0.7505  0.7220  0.9579
13362TIP3    H261578   4.470   5.886   1.093 -1.1521 -0.9100  0.0745
13363TIP3   OH261579   3.093   2.894   5.520  0.9276 -0.1870 -0.3353
13363TIP3    H161580   3.040   2.916   5.597 -0.1683 -0.5807 -0.9744
13363TIP3    H261581   3.183   2.888   5.555  0.5249  0.1648  0.8094
13364TIP3   OH261582   4.962   3.857  13.779  0.3673  0.1550 -0.0050
13364TIP3    H161583   5.022   3.796  13.820  0.8052  1.1482  0.8548
13364TIP3    H261584   5.017   3.911  13.723  0.5929  2.1815  2.0761
13365TIP3   OH261585   0.489   6.525   6.057 -0.3828 -0.4673 -0.5897
13365TIP3    H161586   0.499   6.608   6.009  0.7548 -1.2347 -1.7304
13365TIP3    H261587   0.424   6.477   6.007 -1.5638  0.0048  0.4728
13366TIP3   OH261588   0.513   1.776  15.814 -0.0859  0.4152 -0.0400
13366TIP3    H161589   0.457   1.728  15.874  1.3769  1.1918  2.0107
13366TIP3    H261590   0.489   1.744  15.727 -0.5126 -2.5358  1.1282
13367TIP3   OH261591   4.940   3.088   2.965 -0.0713  0.1886 -0.6153
13367TIP3    H161592   4.981   3.042   2.891 -1.5133 -0.4640 -1.0284
13367TIP3    H261593   4.984   3.173   2.968  0.8026 -0.2209 -1.5010
13368TIP3   OH261594   3.358   4.445   5.320 -0.1929 -0.0649 -0.1806
13368TIP3    H161595   3.408   4.363   5.313 -1.9147 -1.1088 -0.5979
13368TIP3    H261596   3.414   4.511   5.277  1.3643 -0.9367  0.4645
13369TIP3   OH261597   0.802   2.385   2.035 -0.3438  0.1710 -0.0467
13369TIP3    H161598   0.786   2.310   1.978 -0.2192  2.0383 -2.6415
13369TIP3    H261599   0.715   2.407   2.071 -0.8641  0.4194 -1.4168
13370TIP3   OH261600   1.778   6.530   2.261  0.1152 -0.6980  0.0774
13370TIP3    H161601   1.800   6.601   2.200 -0.7326 -1.0625 -0.6688
13370TIP3    H261602   1.848   6.466   2.249  0.4618 -0.3411  0.1832
13371TIP3   OH261603   3.607   2.203   6.046  0.6803 -0.7067  0.6236
13371TIP3    H161604   3.701   2.198   6.061  0.4117  0.3602  2.7298
13371TIP3    H261605   3.569   2.144   6.111 -0.2648  0.8649  1.5189
13372TIP3   OH261606   2.490   3.269   4.891  0.4595  0.5020 -0.4070
13372TIP3    H161607   2.470   3.362   4.900 -2.6261 -0.1097 -0.1430
13372TIP3    H261608   2.406   3.225   4.907  1.5552 -2.2523 -1.8671
13373TIP3   OH261609   4.238   0.767   1.898 -0.6410 -0.1452  0.6571
13373TIP3    H161610   4.152   0.791   1.930 -0.8621  1.4940 -1.0748
13373TIP3    H261611   4.232   0.778   1.803  1.8529  1.2840  0.6266
13374TIP3   OH261612   1.785   2.502  11.663 -0.5245 -0.2622 -0.1787
13374TIP3    H161613   1.717   2.567  11.651 -0.4717 -0.3450 -0.9457
13374TIP3    H261614   1.773   2.440  11.591  0.0203 -0.5741 -0.0103
13375TIP3   OH261615   4.713   2.119  11.959 -0.0509 -0.3670  0.3574
13375TIP3    H161616   4.728   2.196  11.903 -0.7585 -0.5478 -0.0956
13375TIP3    H261617   4.801   2.088  11.981  0.3003 -1.5654 -2.4225
13376TIP3   OH261618   4.489   2.907  14.146  0.4059 -0.2140 -0.1640
13376TIP3    H161619   4.539   2.834  14.112  0.5432  0.4566 -1.4212
13376TIP3    H261620   4.502   2.977  14.082  0.4387  0.9714  1.1094
13377TIP3   OH261621   3.919   2.495   0.745  0.0720  0.4090  0.2285
13377TIP3    H161622   3.894   2.533   0.661  0.6179 -0.3694 -0.2946
13377TIP3    H261623   3.909   2.567   0.808  0.5405  1.2495 -0.6463
13378TIP3   OH261624   2.634   2.350   4.562  0.5527  0.4340  0.0001
13378TIP3    H161625   2.578   2.414   4.606 -3.0050 -2.6540  0.2518
13378TIP3    H261626   2.661   2.290   4.631  0.1354 -0.8715 -0.9506
13379TIP3   OH261627   2.922   4.161   3.247 -0.4604  0.3365  0.7377
13379TIP3    H161628   2.840   4.168   3.295 -0.2808  0.4137  1.0306
13379TIP3    H261629   2.907   4.088   3.186 -0.5983  0.0743  1.0821
13380TIP3   OH261630   4.273   5.202   2.388  0.0699  0.2147  0.0366
13380TIP3    H161631   4.217   5.276   2.364 -0.0723 -0.2435 -1.0543
13380TIP3    H261632   4.223   5.155   2.455  0.2967  1.2703  0.9681
13381TIP3   OH261633   2.015   4.910  11.981  0.3061 -0.8846  0.0414
13381TIP3    H161634   2.011   4.874  11.892 -2.9711 -1.6707  0.4373
13381TIP3    H261635   1.993   4.835  12.037 -0.2292  0.2089  1.3131
13382TIP3   OH261636   6.649   4.191   4.246 -0.2909 -0.3172  0.6980
13382TIP3    H161637   6.686   4.123   4.189 -0.0813 -0.2570  0.7624
13382TIP3    H261638   6.558   4.165   4.258  0.1987 -1.4638  2.0439
13383TIP3   OH261639   2.414   2.470  17.157 -0.5793  0.5432  0.0903
13383TIP3    H161640   2.399   2.380  17.125 -3.6361  0.0278  2.7228
13383TIP3    H261641   2.490   2.500  17.107 -0.3906 -2.9594 -1.9574
13384TIP3   OH261642   0.331   2.280   1.914 -0.6956  0.2698 -1.1151
13384TIP3    H161643   0.406   2.235   1.953 -0.9086  1.0389  0.2123
13384TIP3    H261644   0.368   2.328   1.839  0.1202  0.5618 -0.5278
13385TIP3   OH261645   2.737   2.377   5.934 -0.1125  0.5578 -0.1034
13385TIP3    H161646   2.782   2.398   5.852  0.6356 -2.1926 -0.4595
13385TIP3    H261647   2.803   2.389   6.002  0.3046 -0.4816 -0.3052
13386TIP3   OH261648   3.470   5.588   3.001  0.2481  0.2044 -0.2159
13386TIP3    H161649   3.430   5.556   2.920  0.9234 -0.0940 -0.4367
13386TIP3    H261650   3.559   5.611   2.976  0.9189 -1.3062  0.7652
13387TIP3   OH261651   0.761   1.662   5.109 -0.5278 -0.3552 -0.3849
13387TIP3    H161652   0.847   1.621   5.099 -1.3736 -1.7100 -2.4233
13387TIP3    H261653   0.772   1.751   5.075  0.2490 -0.2784  0.0660
13388TIP3   OH261654   4.361   1.775   5.696 -0.0602 -0.6801 -0.0641
13388TIP3    H161655   4.411   1.850   5.665  0.0476 -0.4588  0.6256
13388TIP3    H261656   4.279   1.813   5.728  0.3461 -0.7453  1.0852
13389TIP3   OH261657   4.045   3.875  10.738  0.8851 -0.0548 -0.5967
13389TIP3    H161658   3.999   3.941  10.686  0.4877  0.2003  0.0777
13389TIP3    H261659   3.990   3.797  10.730  1.5002 -0.4029 -1.6270
13390TIP3   OH261660   4.970   3.017   0.661 -0.3729  0.1506 -0.3961
13390TIP3    H161661   4.920   2.989   0.583 -0.3969  1.3754 -0.8330
13390TIP3    H261662   4.993   3.108   0.643 -0.8076  0.6060  1.2572
13391TIP3   OH261663   5.529   6.395  13.809  0.1221  0.1893  0.2012
13391TIP3    H161664   5.457   6.439  13.763  1.8649  0.7647 -2.1141
13391TIP3    H261665   5.495   6.308  13.830 -0.9718  0.1166 -1.6896
13392TIP3   OH261666   0.973   3.595  15.973  0.7983 -0.3558  0.1480
13392TIP3    H161667   0.993   3.680  16.013  1.3524 -0.7677  0.7579
13392TIP3    H261668   0.898   3.563  16.022  1.8330 -1.1231  1.2753
13393TIP3   OH261669   3.889   0.573   0.143  0.8530 -0.1990 -0.1896
13393TIP3    H161670   3.915   0.488   0.108  1.6712  0.8536 -2.1833
13393TIP3    H261671   3.820   0.603   0.084  1.4136  1.0751 -0.2082
13394TIP3   OH261672   2.961   4.773   1.238 -0.0008 -0.3337 -0.2075
13394TIP3    H161673   3.043   4.795   1.194 -0.4983  0.3105 -0.8277
13394TIP3    H261674   2.894   4.817   1.187 -0.5997  0.4358  1.2019
13395TIP3   OH261675   3.321   3.570  11.098 -0.5228 -0.5183  0.3693
13395TIP3    H161676   3.262   3.604  11.165 -2.1731  0.2630 -1.4318
13395TIP3    H261677   3.340   3.645  11.041  1.7179 -0.9094  0.5384
13396TIP3   OH261678   4.799   2.186   6.972  0.0712  0.0673 -0.5495
13396TIP3    H161679   4.883   2.194   6.927  0.0012  0.6565 -0.5765
13396TIP3    H261680   4.811   2.234   7.054  0.1188 -0.7897 -0.0435
13397TIP3   OH261681   0.527   5.450   1.171 -0.0026  0.0312 -0.3862
13397TIP3    H161682   0.486   5.533   1.195  0.6291 -0.4167  2.4299
13397TIP3    H261683   0.564   5.466   1.084 -1.7981  1.9810 -0.8405
13398TIP3   OH261684   4.035   6.518  17.234 -0.0053  0.5484 -0.5263
13398TIP3    H161685   4.007   6.482  17.150 -1.0173  2.4386 -1.0199
13398TIP3    H261686   3.965   6.493  17.295 -1.7285  3.3140 -1.2863
13399TIP3   OH261687   5.903   6.052  13.158 -0.7187  0.1944  0.5094
13399TIP3    H161688   5.904   6.124  13.222 -2.1386  0.8965 -0.2315
13399TIP3    H261689   5.820   6.007  13.174 -0.9344  0.1880 -0.6239
13400TIP3   OH261690   5.444   5.466   4.808 -0.0304  0.4246 -0.9057
13400TIP3    H161691   5.488   5.409   4.744 -2.2433 -0.5893 -1.5747
13400TIP3    H261692   5.351   5.449   4.794 -0.5919  1.5106  1.4183
13401TIP3   OH261693   1.378   1.140   5.304  0.0822  0.0016 -0.2500
13401TIP3    H161694   1.465   1.142   5.342  0.3680 -1.3715 -0.7878
13401TIP3    H261695   1.340   1.058   5.335  0.1814 -0.9657 -2.5471
13402TIP3   OH261696   3.772   1.203  14.383  0.2022 -0.5637 -0.0605
13402TIP3    H161697   3.842   1.195  14.448  1.3923  1.4767 -1.0386
13402TIP3    H261698   3.692   1.184  14.431  0.9152  2.1320  2.3289
13403TIP3   OH261699   1.563   2.073   2.264  0.2718  0.6183  0.0921
13403TIP3    H161700   1.649   2.056   2.225 -0.0994  1.3767 -1.1238
13403TIP3    H261701   1.524   1.987   2.276  1.1844  0.2732  0.6005
13404TIP3   OH261702   0.321   6.152   3.209  0.3149  0.2025  0.8010
13404TIP3    H161703   0.384   6.205   3.162 -0.9051  0.7190 -0.3016
13404TIP3    H261704   0.333   6.063   3.175  0.3623  0.3245  0.5026
13405TIP3   OH261705   6.438   1.849   0.240  0.1385  0.0809 -1.1076
13405TIP3    H161706   6.498   1.872   0.169 -0.2275  1.5632 -0.9449
13405TIP3    H261707   6.356   1.890   0.216 -1.0721 -2.5657 -1.7092
13406TIP3   OH261708   3.981   4.183   5.289  0.4778 -0.1295  0.8258
13406TIP3    H161709   4.038   4.145   5.356 -1.9721 -1.2598  2.3586
13406TIP3    H261710   3.947   4.107   5.241 -0.8392  0.3921  0.8982
13407TIP3   OH261711   5.024   4.415  10.865 -0.3115 -0.2007 -0.0021
13407TIP3    H161712   4.978   4.432  10.782  1.1586  0.8575 -0.6269
13407TIP3    H261713   5.095   4.356  10.840 -1.5046 -2.0976  1.0176
13408TIP3   OH261714   1.686   0.804  16.272  0.0052  0.3047 -1.2645
13408TIP3    H161715   1.694   0.834  16.363 -1.8598 -0.8755 -0.6873
13408TIP3    H261716   1.598   0.829  16.246 -0.2978 -1.4071 -1.9770
13409TIP3   OH261717   4.077   1.599  13.824  0.0519  0.0161  0.6936
13409TIP3    H161718   3.994   1.572  13.785  0.1230 -0.9258  1.1732
13409TIP3    H261719   4.141   1.536  13.792  0.4383  0.2828  0.9280
13410TIP3   OH261720   2.160   3.443   0.605  0.0676 -0.5073  0.7931
13410TIP3    H161721   2.064   3.443   0.597 -0.1635  0.2090  3.2532
13410TIP3    H261722   2.184   3.350   0.605 -0.7336 -0.7200  1.1471
13411TIP3   OH261723   6.017   5.338   0.155  0.4355 -0.2290  0.3026
13411TIP3    H161724   6.056   5.270   0.211 -0.0901 -1.4728 -0.8220
13411TIP3    H261725   6.002   5.295   0.071 -1.0042  0.9548 -0.0742
13412TIP3   OH261726   0.481   3.173   2.065 -0.5859 -0.2549  0.0795
13412TIP3    H161727   0.566   3.215   2.051  1.0729 -3.3453  0.2869
13412TIP3    H261728   0.473   3.111   1.993 -2.3058 -0.5499  0.5093
13413TIP3   OH261729   5.431   6.571   6.105  0.1329 -0.0913 -0.1325
13413TIP3    H161730   5.446   6.632   6.177  2.0946  0.4407 -0.9795
13413TIP3    H261731   5.486   6.602   6.034  0.3249 -2.2044 -0.9544
13414TIP3   OH261732   5.017   4.657   4.899  0.7903 -0.1806 -0.7720
13414TIP3    H161733   4.936   4.610   4.878 -0.3015  0.4762  1.7919
13414TIP3    H261734   5.053   4.610   4.974  2.1457  0.2958 -1.1142
13415TIP3   OH261735   0.730   1.718   2.236  0.1496 -0.6005  0.2505
13415TIP3    H161736   0.664   1.720   2.167 -0.2347 -1.0617  0.6006
13415TIP3    H261737   0.813   1.734   2.190 -0.4583  2.5895  0.1912
13416TIP3   OH261738   2.078   2.893   6.043 -0.0037  0.2631  0.4275
13416TIP3    H161739   2.086   2.952   5.969  0.4043  0.2279  0.4426
13416TIP3    H261740   2.058   2.950   6.118  1.3699  0.4928  0.6313
13417TIP3   OH261741   0.196   2.464   1.316 -0.5810  0.3240 -0.2840
13417TIP3    H161742   0.148   2.511   1.248  0.1108  0.3199 -0.7805
13417TIP3    H261743   0.199   2.373   1.285 -2.6992 -0.2395  1.1055
13418TIP3   OH261744   2.885   0.592  15.279 -0.6554  0.1892  0.0321
13418TIP3    H161745   2.950   0.522  15.271 -0.8300 -0.0666  0.8474
13418TIP3    H261746   2.938   0.672  15.279 -0.2123 -0.0906  2.2359
13419TIP3   OH261747   5.546   1.752  16.588 -0.3525  0.4017  0.1116
13419TIP3    H161748   5.456   1.756  16.622 -1.7142 -2.5184 -2.8406
13419TIP3    H261749   5.548   1.820  16.520 -0.7825 -0.4202 -0.7368
13420TIP3   OH261750   4.377   6.252  16.752  0.1143  0.4963 -0.6038
13420TIP3    H161751   4.376   6.332  16.699  0.1836  0.0678 -1.2586
13420TIP3    H261752   4.292   6.210  16.734  0.5890 -0.2072 -1.2486
13421TIP3   OH261753   1.222   5.337   3.003 -0.2612 -0.5789 -0.4596
13421TIP3    H161754   1.305   5.335   2.955  0.4256  0.3134  0.6598
13421TIP3    H261755   1.245   5.371   3.089 -1.4512 -2.2771  0.5675
13422TIP3   OH261756   2.060   3.204   0.307  0.0563  0.1615 -0.3623
13422TIP3    H161757   2.152   3.195   0.333 -0.4894 -0.7456  1.3915
13422TIP3    H261758   2.050   3.146   0.232  0.8372 -0.0459 -0.3084
13423TIP3   OH261759   6.788   2.632   3.570 -0.3268 -0.3223 -0.0274
13423TIP3    H161760   6.816   2.563   3.629 -2.6243 -2.0569 -0.8885
13423TIP3    H261761   6.720   2.680   3.618  0.2413  0.4395  0.0269
13424TIP3   OH261762   0.518   1.500   3.022  0.0542  0.0521  0.1658
13424TIP3    H161763   0.441   1.537   3.065 -0.0329  0.0705 -0.0029
13424TIP3    H261764   0.592   1.538   3.068 -0.0267 -1.6080  1.7219
13425TIP3   OH261765   6.347   5.404  16.876  0.3461 -0.3104  0.0490
13425TIP3    H161766   6.336   5.418  16.970 -0.5222  0.7983 -0.1994
13425TIP3    H261767   6.379   5.488  16.843  0.9223 -0.7800 -0.6090
13426TIP3   OH261768   1.737   3.707  14.477 -0.2325 -0.0404 -0.2473
13426TIP3    H161769   1.697   3.690  14.562 -2.5419 -0.0591 -1.3109
13426TIP3    H261770   1.792   3.784  14.491 -1.3581  0.5477  1.0373
13427TIP3   OH261771   3.695   5.008  16.738 -0.1071  0.4453  0.0995
13427TIP3    H161772   3.629   5.071  16.712 -0.2459 -0.0667 -0.8038
13427TIP3    H261773   3.718   4.962  16.658  0.0239 -0.6170  0.7260
13428TIP3   OH261774   0.745   5.997   2.742 -0.3736  0.0183 -0.0331
13428TIP3    H161775   0.728   5.987   2.835  0.7882 -0.1331  0.1658
13428TIP3    H261776   0.788   5.915   2.716  0.2072  0.4519 -0.4821
13429TIP3   OH261777   1.338   2.471  17.006  0.0620 -0.0046 -0.1451
13429TIP3    H161778   1.428   2.498  17.025  0.2373  0.7887 -1.9873
13429TIP3    H261779   1.284   2.526  17.063  0.6928 -0.0139  0.4792
13430TIP3   OH261780   4.159   4.595  16.521  0.2598 -0.6896  0.3461
13430TIP3    H161781   4.191   4.579  16.610 -0.1047 -0.4949  0.5119
13430TIP3    H261782   4.098   4.668  16.530  0.9726 -0.0056 -0.2158
13431TIP3   OH261783   0.324   3.951  12.871 -0.1614 -0.6543  1.0494
13431TIP3    H161784   0.307   3.960  12.964 -1.4304 -0.0165  0.7714
13431TIP3    H261785   0.298   3.861  12.850 -1.5699 -0.2361  0.9723
13432TIP3   OH261786   0.348   5.421   3.682  0.5591  0.2369 -0.2555
13432TIP3    H161787   0.412   5.479   3.640  0.4767 -0.7518 -1.7934
13432TIP3    H261788   0.276   5.416   3.619  1.5084 -3.2451 -1.1541
13433TIP3   OH261789   5.463   1.489   1.948 -0.2131  0.0662  0.0878
13433TIP3    H161790   5.389   1.502   2.006 -0.5977  0.3292 -0.4566
13433TIP3    H261791   5.432   1.517   1.862  0.8883  1.3901  0.0841
13434TIP3   OH261792   0.694   5.071  16.556  0.0145  0.1456  0.1822
13434TIP3    H161793   0.735   5.113  16.632  0.3330  1.2515 -0.5813
13434TIP3    H261794   0.613   5.035  16.590  0.8940 -0.7497  1.4009
13435TIP3   OH261795   6.194   3.017   4.042 -0.6559  0.2924 -0.0877
13435TIP3    H161796   6.127   3.076   4.075 -0.2521  1.1974 -0.8584
13435TIP3    H261797   6.175   2.933   4.084 -1.0537  1.0321  1.2463
13436TIP3   OH261798   4.367   5.425  12.874 -0.1998  0.0140  0.0601
13436TIP3    H161799   4.296   5.490  12.879  1.0018  1.2695  1.3835
13436TIP3    H261800   4.420   5.454  12.800  0.6349  0.8783  0.9818
13437TIP3   OH261801   5.859   5.322   0.448 -0.3519  0.6270  0.1533
13437TIP3    H161802   5.813   5.362   0.374 -2.6144  2.1103  2.2674
13437TIP3    H261803   5.948   5.358   0.443 -1.0259  2.2538 -0.7122
13438TIP3   OH261804   4.908   0.279  15.367  0.0723 -0.3900  0.0565
13438TIP3    H161805   4.844   0.288  15.297  2.7813  1.0176 -2.3258
13438TIP3    H261806   4.868   0.324  15.441 -1.8352  0.1367 -1.2449
13439TIP3   OH261807   0.832   6.428   4.618 -0.5831  0.3387 -0.2564
13439TIP3    H161808   0.802   6.392   4.702 -0.5143 -0.0014 -0.3792
13439TIP3    H261809   0.879   6.508   4.642 -0.4476  0.1694  0.0397
13440TIP3   OH261810   5.026   2.809  13.912 -0.0739  0.3225  0.0733
13440TIP3    H161811   4.933   2.795  13.896  0.0643  0.2873 -0.6783
13440TIP3    H261812   5.034   2.807  14.008 -0.5699 -1.4532  0.0867
13441TIP3   OH261813   1.273   3.233   5.647  0.0311 -0.2314  0.2923
13441TIP3    H161814   1.283   3.148   5.689  1.1239 -0.1507  0.1919
13441TIP3    H261815   1.354   3.280   5.666 -0.5443  0.7831  0.3224
13442TIP3   OH261816   1.319   1.143  16.371 -0.4186 -0.2990  0.0356
13442TIP3    H161817   1.353   1.152  16.460  0.7215 -0.0171 -0.4192
13442TIP3    H261818   1.224   1.145  16.381 -0.3005 -0.5732  1.2756
13443TIP3   OH261819   3.704   2.351  10.996  0.2118 -0.0573 -0.0095
13443TIP3    H161820   3.723   2.288  11.066 -0.4005  0.0530  0.2587
13443TIP3    H261821   3.710   2.299  10.915  0.3629 -0.3127  0.1650
13444TIP3   OH261822   6.219   3.971  16.472  0.3014 -0.9516 -0.4031
13444TIP3    H161823   6.152   3.955  16.538  0.1341  0.2649 -0.2609
13444TIP3    H261824   6.218   3.893  16.416 -0.9727 -1.0896 -0.1823
13445TIP3   OH261825   0.954   0.035   0.834  0.1038 -0.1255  0.2097
13445TIP3    H161826   1.015   0.052   0.906 -0.7289  0.1540  0.8648
13445TIP3    H261827   0.928   0.121   0.802  0.2996 -0.2471 -0.2777
13446TIP3   OH261828   6.689   5.545  10.780 -0.3047 -0.0603  0.6571
13446TIP3    H161829   6.720   5.625  10.821 -1.2182 -0.0519  1.3599
13446TIP3    H261830   6.731   5.544  10.694 -0.4170  1.2592  0.5726
13447TIP3   OH261831   6.604   1.795   1.777 -0.3160  0.3073 -0.7608
13447TIP3    H161832   6.515   1.815   1.748 -0.5083  2.4637  1.2116
13447TIP3    H261833   6.660   1.821   1.703 -1.2008  0.4030 -1.4001
13448TIP3   OH261834   5.763   3.929   2.999  0.0244  0.2595  0.0687
13448TIP3    H161835   5.750   4.010   3.048  0.5086 -0.0404  0.7120
13448TIP3    H261836   5.779   3.957   2.909  2.4270  1.0192  0.6867
13449TIP3   OH261837   4.773   3.682   4.904 -0.1571  0.6201 -0.2936
13449TIP3    H161838   4.841   3.654   4.843  0.3986 -1.8284  1.3789
13449TIP3    H261839   4.691   3.674   4.854  0.4469  0.2301 -1.2293
13450TIP3   OH261840   0.853   6.347  13.448 -0.0637  0.5611  0.1599
13450TIP3    H161841   0.842   6.427  13.500  2.6399  0.1757  1.3955
13450TIP3    H261842   0.907   6.290  13.503 -0.4575 -1.4312 -1.4607
13451TIP3   OH261843   6.086   2.547  14.756  0.3613 -0.6872 -0.4793
13451TIP3    H161844   6.143   2.482  14.715  0.8584 -0.1482 -0.6457
13451TIP3    H261845   6.098   2.533  14.850  2.1871  0.6563 -0.5013
13452TIP3   OH261846   1.576   2.935  11.518  0.4623 -0.3000 -0.2423
13452TIP3    H161847   1.668   2.931  11.543  0.7314 -0.2261 -1.1925
13452TIP3    H261848   1.578   2.950  11.423 -0.5209 -0.9484 -0.3683
13453TIP3   OH261849   0.942   2.113  10.678 -0.5525  0.5703 -0.4138
13453TIP3    H161850   0.869   2.056  10.654  0.0265 -0.5705  0.4931
13453TIP3    H261851   0.911   2.201  10.655 -1.3503 -0.1014 -2.0902
13454TIP3   OH261852   1.326   6.137  12.061 -0.0495  1.1466  0.0173
13454TIP3    H161853   1.330   6.169  12.151 -0.0138  1.0320  0.0562
13454TIP3    H261854   1.302   6.045  12.069  1.5911  0.7037 -0.0096
13455TIP3   OH261855   3.266   0.264   0.463 -0.2696  0.3413 -0.5133
13455TIP3    H161856   3.306   0.331   0.519  1.3537  0.4785 -1.8133
13455TIP3    H261857   3.256   0.307   0.378  2.1996 -1.5094 -1.7992
13456TIP3   OH261858   3.895   3.247  13.583  0.4416 -0.2629 -0.3058
13456TIP3    H161859   3.834   3.235  13.511  0.6392 -1.8473 -0.2437
13456TIP3    H261860   3.844   3.227  13.661  0.4244  0.7127 -0.0625
13457TIP3   OH261861   5.794   5.236   3.857  0.1008  0.3258  0.2073
13457TIP3    H161862   5.807   5.142   3.843  1.4512  0.5743 -0.1861
13457TIP3    H261863   5.701   5.243   3.880  0.1539 -1.1925  0.9928
13458TIP3   OH261864   1.902   3.368  16.558  0.0996 -0.6163 -0.3553
13458TIP3    H161865   1.882   3.393  16.649  3.2025 -1.2339  0.5667
13458TIP3    H261866   1.877   3.276  16.553 -0.7776 -0.3791 -0.3460
13459TIP3   OH261867   5.593   2.301  14.231  0.1398 -0.1071  0.3524
13459TIP3    H161868   5.599   2.396  14.241  0.0051 -0.2193  1.5565
13459TIP3    H261869   5.656   2.266  14.295  0.9566 -0.8097 -0.8169
13460TIP3   OH261870   0.454   2.817  10.919 -0.4404  0.3741 -0.0008
13460TIP3    H161871   0.484   2.782  11.003  0.8985 -0.8124 -0.9384
13460TIP3    H261872   0.483   2.908  10.918  0.9529 -0.0602  0.1597
13461TIP3   OH261873   6.676   4.713  17.226 -0.6565 -0.0883  0.1482
13461TIP3    H161874   6.656   4.661  17.303 -0.9871 -0.9494 -0.5050
13461TIP3    H261875   6.700   4.648  17.159  3.5082  0.8285  0.6260
13462TIP3   OH261876   5.729   5.276  10.299  0.3950 -0.2425  0.3405
13462TIP3    H161877   5.800   5.323  10.342  1.3424 -2.4206  1.2066
13462TIP3    H261878   5.766   5.191  10.275 -0.3825  0.5191 -3.9911
13463TIP3   OH261879   2.485   5.858  16.981  0.5113  0.6478  0.1200
13463TIP3    H161880   2.473   5.931  16.920 -0.6411  1.5681  1.4309
13463TIP3    H261881   2.460   5.893  17.066  2.5918 -0.4735  1.2364
13464TIP3   OH261882   1.783   6.108   5.234  0.5019 -0.2660  1.2637
13464TIP3    H161883   1.850   6.055   5.277 -0.7183 -3.1645 -0.2954
13464TIP3    H261884   1.709   6.049   5.222  0.1373  0.8861 -3.2123
13465TIP3   OH261885   6.068   5.360  13.249  0.9194  0.3882  0.4388
13465TIP3    H161886   5.986   5.341  13.293  1.4758 -2.0874  0.4916
13465TIP3    H261887   6.135   5.353  13.317  1.4337 -0.0909 -0.1053
13466TIP3   OH261888   5.952   3.871  14.249 -0.1911 -0.4503  0.9389
13466TIP3    H161889   6.044   3.893  14.261 -0.3153  0.5662 -0.0118
13466TIP3    H261890   5.951   3.811  14.175 -0.6772  2.5971 -1.6199
13467TIP3   OH261891   1.122   2.158   5.474  0.2434  0.0203 -0.1423
13467TIP3    H161892   1.167   2.188   5.552 -1.1728 -1.8470  1.4469
13467TIP3    H261893   1.086   2.237   5.434  0.7422  0.9565  1.2532
13468TIP3   OH261894   0.340   3.760  11.121 -0.1517  0.1762  0.6749
13468TIP3    H161895   0.304   3.770  11.033  0.3077  0.3107  0.5013
13468TIP3    H261896   0.406   3.829  11.129  1.4165 -1.2291  0.2976
13469TIP3   OH261897   4.713   2.815  15.413  0.6466 -0.2679 -0.1085
13469TIP3    H161898   4.806   2.796  15.424  0.6400 -0.9411 -1.0846
13469TIP3    H261899   4.671   2.729  15.412  0.4762 -0.2314 -3.3555
13470TIP3   OH261900   2.551   1.371  13.202  0.1615  0.2279 -0.6680
13470TIP3    H161901   2.469   1.411  13.173 -0.0609  1.1259  1.1489
13470TIP3    H261902   2.597   1.441  13.249  0.7295 -1.0516  0.7161
13471TIP3   OH261903   0.030   1.277   1.637 -0.1233 -0.2786 -0.1855
13471TIP3    H161904   0.052   1.202   1.582 -2.0389 -1.3410  0.4774
13471TIP3    H261905   0.100   1.340   1.619  0.9590 -1.8021 -1.5135
13472TIP3   OH261906   2.150   1.119   3.575 -0.0845  0.3559 -0.6698
13472TIP3    H161907   2.218   1.183   3.554  0.0514  0.4946  0.1924
13472TIP3    H261908   2.142   1.066   3.495 -1.6115  2.6975 -2.1448
13473TIP3   OH261909   3.654   4.366  16.740  0.6393 -0.1715 -0.1589
13473TIP3    H161910   3.673   4.287  16.790 -0.5470 -0.4508 -0.1374
13473TIP3    H261911   3.673   4.438  16.801 -0.9648 -0.5124  0.7785
13474TIP3   OH261912   5.468   1.203   0.044  0.3103  0.0295 -0.3823
13474TIP3    H161913   5.525   1.147  -0.009 -1.0441 -3.0462  1.3051
13474TIP3    H261914   5.456   1.154   0.126 -1.7037  2.3596  0.7670
13475TIP3   OH261915   6.427   2.291   5.861 -0.2683  0.1243 -0.0074
13475TIP3    H161916   6.413   2.385   5.858  0.1787  0.1698 -0.9451
13475TIP3    H261917   6.522   2.281   5.857 -0.3837 -0.4242 -2.5781
13476TIP3   OH261918   4.220   0.074   0.639 -0.1939  0.0728  0.2818
13476TIP3    H161919   4.304   0.112   0.613 -0.4308  0.4872  0.1106
13476TIP3    H261920   4.201   0.112   0.724  0.7407 -1.5419  1.2292
13477TIP3   OH261921   6.557   5.300   3.418 -0.3250 -0.3097 -0.5916
13477TIP3    H161922   6.639   5.350   3.415  0.1546 -1.1361 -1.6954
13477TIP3    H261923   6.585   5.209   3.431 -1.1936 -0.3025  1.5557
13478TIP3   OH261924   1.869   0.185   1.194  0.1365  0.9332  0.3599
13478TIP3    H161925   1.877   0.255   1.131  0.9692  1.7566  1.3664
13478TIP3    H261926   1.788   0.205   1.242  0.7351  1.6119  1.1124
13479TIP3   OH261927   0.499   0.456  14.973 -0.4882  0.1480  0.5455
13479TIP3    H161928   0.407   0.478  14.962 -0.6474 -0.6317  0.3056
13479TIP3    H261929   0.521   0.406  14.894 -0.1186 -0.5137  1.0692
13480TIP3   OH261930   0.621   0.590  16.928  0.4019 -0.4670 -0.4491
13480TIP3    H161931   0.548   0.538  16.895 -0.4481  0.5235 -0.1429
13480TIP3    H261932   0.684   0.525  16.960 -0.5841 -1.3102 -0.1899
13481TIP3   OH261933   5.913   0.213  16.309  0.0569  0.1108  0.7521
13481TIP3    H161934   5.984   0.170  16.357  1.5636  0.7372 -0.8881
13481TIP3    H261935   5.841   0.217  16.372  1.2849 -1.0147  2.2646
13482TIP3   OH261936   2.136   2.187  15.920  0.0016  0.0351 -0.0490
13482TIP3    H161937   2.141   2.233  16.003 -1.2221 -1.7405  1.0385
13482TIP3    H261938   2.105   2.253  15.858  1.2688  1.4540  0.8090
13483TIP3   OH261939   1.311   1.541  15.919 -0.2032 -0.3534  0.0749
13483TIP3    H161940   1.240   1.598  15.947 -0.0766  0.1604 -0.6196
13483TIP3    H261941   1.294   1.527  15.825 -0.0131 -1.1341  0.1538
13484TIP3   OH261942   5.934   6.407   3.752  0.0295  0.1848  0.0742
13484TIP3    H161943   6.027   6.383   3.751  0.6182  2.3122 -2.3149
13484TIP3    H261944   5.888   6.328   3.725  1.3342 -0.2603 -0.8610
13485TIP3   OH261945   3.255   3.659  17.058  0.4033 -0.2970 -0.3074
13485TIP3    H161946   3.161   3.678  17.058  0.3579 -0.4894  0.2979
13485TIP3    H261947   3.282   3.672  16.968 -0.0846  0.3731 -0.3616
13486TIP3   OH261948   5.833   1.891  16.374 -0.2380 -0.2973  0.3247
13486TIP3    H161949   5.743   1.887  16.342  0.3372  1.3122 -1.6091
13486TIP3    H261950   5.887   1.884  16.295  1.2858  1.0934  1.2161
13487TIP3   OH261951   0.246   2.343  13.482 -0.0432 -0.7242  0.1053
13487TIP3    H161952   0.337   2.339  13.452 -0.3662 -0.5187 -0.9334
13487TIP3    H261953   0.251   2.323  13.576  1.2877  1.2467  0.4865
13488TIP3   OH261954   5.600   3.384  13.385  0.9518  0.6763 -0.0739
13488TIP3    H161955   5.687   3.348  13.369  0.4295 -0.7305  0.2128
13488TIP3    H261956   5.606   3.424  13.471  0.0233 -3.6586  2.1287
13489TIP3   OH261957   0.465   4.944  15.832 -0.2759 -0.3202  0.1628
13489TIP3    H161958   0.521   5.019  15.814  0.6822 -0.5851  1.8830
13489TIP3    H261959   0.385   4.981  15.870 -1.2410  0.0508 -2.1861
13490TIP3   OH261960   0.029   3.699   3.099  0.3557 -1.0086  0.2686
13490TIP3    H161961   0.123   3.685   3.111  0.1810 -1.5770  1.0058
13490TIP3    H261962   0.006   3.767   3.163 -0.1078 -2.2747  1.4516
13491TIP3   OH261963   5.800   0.514   0.952 -0.1360 -0.2921  0.0714
13491TIP3    H161964   5.759   0.597   0.927  2.3894  0.4353 -1.8060
13491TIP3    H261965   5.785   0.457   0.877  0.1079 -0.8200  0.4275
13492TIP3   OH261966   5.396   2.878   3.611  0.1591  0.0811 -0.7132
13492TIP3    H161967   5.383   2.847   3.521 -0.5321 -1.0337 -0.2358
13492TIP3    H261968   5.311   2.913   3.636 -0.6494 -2.8023  0.7221
13493TIP3   OH261969   0.116   3.534  14.145 -0.0498 -0.8984 -0.0128
13493TIP3    H161970   0.101   3.569  14.233 -0.1733  1.4916 -0.9418
13493TIP3    H261971   0.182   3.592  14.107  1.0828 -2.7828 -0.9933
13494TIP3   OH261972   0.542   6.086   1.771  0.3328  0.4967 -0.1622
13494TIP3    H161973   0.499   6.134   1.842  1.0222  0.5811  0.2055
13494TIP3    H261974   0.595   6.152   1.727 -0.1386  0.4532 -0.7871
13495TIP3   OH261975   0.387   1.082  16.840  0.5702 -0.3905 -0.4931
13495TIP3    H161976   0.482   1.090  16.836  0.5968  0.0607  0.7836
13495TIP3    H261977   0.371   1.034  16.922 -0.3882  1.4843  0.4454
13496TIP3   OH261978   2.517   1.817  16.609  0.0986 -0.1919  0.3218
13496TIP3    H161979   2.454   1.869  16.658 -0.9836 -1.6052  0.4386
13496TIP3    H261980   2.553   1.878  16.544 -4.0531 -0.2783 -2.1858
13497TIP3   OH261981   0.701   3.010  14.644 -0.3345 -0.0576  0.2367
13497TIP3    H161982   0.621   2.958  14.645 -1.3495  1.4656 -0.1196
13497TIP3    H261983   0.673   3.097  14.618  1.7365  0.0388 -1.8216
13498TIP3   OH261984   6.048   2.575  13.107 -0.2354  0.4002 -0.1221
13498TIP3    H161985   6.005   2.518  13.171  0.1459  0.2133 -0.0284
13498TIP3    H261986   6.077   2.515  13.038 -0.0565  0.5141 -0.1448
13499TIP3   OH261987   1.279   3.682  16.181 -0.5427  0.6557 -0.3030
13499TIP3    H161988   1.198   3.733  16.182 -1.3121 -0.5584 -0.0045
13499TIP3    H261989   1.346   3.745  16.154 -1.8621  1.2557 -2.2857
13500TIP3   OH261990   3.660   5.772   2.209  0.5984  0.0766 -0.4912
13500TIP3    H161991   3.654   5.865   2.229  0.6581  0.2414 -1.2343
13500TIP3    H261992   3.633   5.728   2.290  1.1013  0.7329  0.0315
13501TIP3   OH261993   6.617   0.941  16.658  0.0455  0.1519 -0.0015
13501TIP3    H161994   6.688   0.989  16.613 -0.3571  1.2001  0.4702
13501TIP3    H261995   6.539   0.963  16.607 -0.0409 -0.5308 -0.1633
13502TIP3   OH261996   4.788   1.157  14.913  0.0059 -0.0486  0.5196
13502TIP3    H161997   4.805   1.064  14.929  0.3558 -0.3044 -1.1939
13502TIP3    H261998   4.736   1.185  14.988 -1.6512 -2.0809  0.1961
13503TIP3   OH261999   2.906   3.751   6.448 -0.2032 -0.3092 -0.5485
13503TIP3    H162000   2.947   3.696   6.514  1.8881  0.0969 -1.4583
13503TIP3    H262001   2.832   3.700   6.416 -1.6163 -0.2599  2.5022
13504TIP3   OH262002   1.442   5.850  16.730 -0.4739  0.0976 -0.0723
13504TIP3    H162003   1.427   5.944  16.726 -0.1325  0.1077 -1.7592
13504TIP3    H262004   1.475   5.828  16.643 -2.1352 -1.8489 -0.2498
13505TIP3   OH262005   2.874   2.704  11.357  0.5007 -0.1481 -0.5548
13505TIP3    H162006   2.849   2.668  11.272  0.9676 -1.0184 -0.3332
13505TIP3    H262007   2.911   2.790  11.337  0.8808 -0.4718 -1.2729
13506TIP3   OH262008   5.502   3.436  11.655  0.2754 -0.3359  0.4422
13506TIP3    H162009   5.516   3.415  11.562  0.7400 -0.8112  0.6206
13506TIP3    H262010   5.495   3.351  11.698 -2.6785 -0.1382  0.4338
13507TIP3   OH262011   3.589   5.303  16.728 -0.8449  0.1265 -0.0143
13507TIP3    H162012   3.521   5.328  16.790  0.2323  2.1920  0.3666
13507TIP3    H262013   3.657   5.261  16.781  0.0578  1.8560  0.2250
13508TIP3   OH262014   4.837   3.003  15.090 -0.5744 -0.0589 -0.1991
13508TIP3    H162015   4.830   2.908  15.095 -0.7422 -0.0015  0.7498
13508TIP3    H262016   4.768   3.035  15.148  0.0988  0.6273  0.2327
13509TIP3   OH262017   3.308   5.741   6.018  0.2399 -0.2127  0.0381
13509TIP3    H162018   3.349   5.763   6.102  2.4891 -0.0772 -1.0584
13509TIP3    H262019   3.346   5.656   5.994 -1.4608 -0.9316 -0.1759
13510TIP3   OH262020   5.384   5.785  13.959  0.4536 -0.3478  0.4402
13510TIP3    H162021   5.446   5.779  14.032  0.8414 -0.7262  0.0857
13510TIP3    H262022   5.438   5.768  13.881  0.1006  0.3636  0.0423
13511TIP3   OH262023   6.723   0.318   1.293  0.5589 -0.0057  0.1338
13511TIP3    H162024   6.702   0.248   1.354 -0.0960 -1.4824 -1.7278
13511TIP3    H262025   6.695   0.285   1.207 -0.8069  2.9871 -0.6495
13512TIP3   OH262026   2.242   3.391   0.987  0.0216 -0.5809 -0.2122
13512TIP3    H162027   2.261   3.440   0.907 -1.0707 -0.9473 -0.7037
13512TIP3    H262028   2.206   3.456   1.046  0.7620 -0.3238 -0.0324
13513TIP3   OH262029   6.085   3.056   6.505 -0.0677 -0.5980 -0.1228
13513TIP3    H162030   6.175   3.023   6.496 -0.8482 -3.0659  0.8265
13513TIP3    H262031   6.030   2.979   6.494 -2.2383  1.2448 -2.9832
13514TIP3   OH262032   2.168   2.422   0.780 -0.2410 -0.0254 -0.0823
13514TIP3    H162033   2.084   2.422   0.827  0.5795 -0.4194  1.3982
13514TIP3    H262034   2.205   2.336   0.796  0.7717  0.3911 -0.1530
13515TIP3   OH262035   3.541   2.550   0.124  0.0910  0.6999  0.2802
13515TIP3    H162036   3.481   2.615   0.087 -0.4178  0.2854  0.3624
13515TIP3    H262037   3.589   2.516   0.048 -0.5509  0.2569  0.0625
13516TIP3   OH262038   6.697   5.667  16.281  0.0445 -0.6543  0.3917
13516TIP3    H162039   6.755   5.652  16.356 -0.2070 -1.9885  0.3305
13516TIP3    H262040   6.611   5.638  16.311 -0.1167 -0.9106 -0.3141
13517TIP3   OH262041   2.854   2.922   0.147 -0.7360 -0.0473  0.0308
13517TIP3    H162042   2.941   2.885   0.166  0.6527  2.5119 -1.0913
13517TIP3    H262043   2.810   2.854   0.096  0.3522 -1.6377  1.1568
13518TIP3   OH262044   1.541   0.892   3.634 -0.1472 -0.6310 -0.1324
13518TIP3    H162045   1.524   0.986   3.643  1.4384 -0.3952  0.6626
13518TIP3    H262046   1.536   0.858   3.723 -0.2068 -1.2126 -0.3542
13519TIP3   OH262047   6.634   2.542   5.533  0.0203  0.1623  0.2990
13519TIP3    H162048   6.710   2.568   5.585 -1.4362 -0.2821  2.7254
13519TIP3    H262049   6.565   2.602   5.562 -0.8431 -0.1247 -1.1295
13520TIP3   OH262050   5.255   0.832  14.389  0.0240 -0.3413  0.4501
13520TIP3    H162051   5.345   0.808  14.410 -0.4836 -1.6203  1.2133
13520TIP3    H262052   5.247   0.923  14.418  1.2198 -0.0538 -0.1074
13521TIP3   OH262053   6.308   0.992  12.222 -0.5036  0.0269 -0.2241
13521TIP3    H162054   6.305   1.072  12.170  1.4724  0.8236  0.8202
13521TIP3    H262055   6.354   0.929  12.167  2.6811  1.2325  0.9407
13522TIP3   OH262056   2.824   5.240   0.799 -0.1643  0.7458  0.1532
13522TIP3    H162057   2.900   5.194   0.835  1.5877  1.2537 -2.7363
13522TIP3    H262058   2.761   5.241   0.871  0.9934 -3.2219  1.3677
13523TIP3   OH262059   6.290   0.236  11.953  0.3647 -0.6064 -0.7790
13523TIP3    H162060   6.294   0.291  11.875  3.2416  1.1116  0.4771
13523TIP3    H262061   6.356   0.168  11.938  0.6656 -0.4881 -0.0369
13524TIP3   OH262062   1.204   4.433  13.867 -0.8172  0.0503 -0.2471
13524TIP3    H162063   1.109   4.427  13.858 -0.6842 -1.1184 -0.9557
13524TIP3    H262064   1.237   4.435  13.778 -0.1350 -0.4082 -0.0151
13525TIP3   OH262065   0.806   2.555  12.361  0.4079  0.5317 -0.5700
13525TIP3    H162066   0.892   2.578  12.325  1.2308 -1.5160  0.0054
13525TIP3    H262067   0.814   2.463  12.383 -1.7348  0.5058  0.1631
13526TIP3   OH262068   2.499   0.760   0.403  0.2239  0.3646 -0.5143
13526TIP3    H162069   2.416   0.773   0.358 -1.2684 -1.9293  1.4542
13526TIP3    H262070   2.500   0.827   0.472  0.5009  1.0502 -1.1777
13527TIP3   OH262071   5.703   3.872  14.041 -0.2800  0.4338  0.4839
13527TIP3    H162072   5.631   3.823  14.081  0.5297 -0.4252  0.9352
13527TIP3    H262073   5.726   3.938  14.106  1.3748 -1.2896  1.7310
13528TIP3   OH262074   4.207   5.602  11.881  0.0202  0.0576  0.4415
13528TIP3    H162075   4.233   5.552  11.958 -0.1015 -1.6817 -0.6304
13528TIP3    H262076   4.255   5.562  11.809  1.5576  2.8249 -0.1562
13529TIP3   OH262077   4.829   2.590   5.709 -0.0668  0.1513 -0.5697
13529TIP3    H162078   4.881   2.650   5.762  1.5288  0.1677 -2.1262
13529TIP3    H262079   4.892   2.526   5.675 -1.5386 -1.7115  0.0518
13530TIP3   OH262080   5.724   1.095  16.061  0.2369  0.3391  0.2908
13530TIP3    H162081   5.686   1.056  16.140 -2.8797  3.8921  0.6677
13530TIP3    H262082   5.796   1.148  16.094  2.1683 -2.0699  0.1340
13531TIP3   OH262083   0.349   0.104  16.882  0.1675 -0.3538  0.4704
13531TIP3    H162084   0.268   0.078  16.926  0.4899 -0.0715  1.2321
13531TIP3    H262085   0.320   0.145  16.801 -0.4198 -1.0879  0.3046
13532TIP3   OH262086   1.119   4.738   3.583 -0.4280  0.2441 -0.6742
13532TIP3    H162087   1.140   4.831   3.582 -2.8314  0.8599  0.8992
13532TIP3    H262088   1.030   4.734   3.618  0.0876 -2.7313  0.4602
13533TIP3   OH262089   0.173   5.397   5.342  0.6893 -0.7282  0.0798
13533TIP3    H162090   0.268   5.394   5.333  0.5968 -0.7837 -0.9237
13533TIP3    H262091   0.152   5.329   5.406  1.1995 -1.6125 -0.6918
13534TIP3   OH262092   0.017   0.317  13.685 -0.3515 -0.0549 -0.3250
13534TIP3    H162093  -0.053   0.296  13.622  0.3925  3.1124 -2.2890
13534TIP3    H262094   0.097   0.294  13.639  0.1425  1.2008 -0.0952
13535TIP3   OH262095   6.629   3.608  16.661  0.3375 -0.0459  0.4407
13535TIP3    H162096   6.617   3.515  16.681 -1.1338 -0.3079 -1.5018
13535TIP3    H262097   6.540   3.645  16.666  0.7641  1.0400  0.1536
13536TIP3   OH262098   4.471   6.105  11.993  0.1427 -0.6205  0.0337
13536TIP3    H162099   4.461   6.200  11.993 -1.5820 -0.7762  0.7349
13536TIP3    H262100   4.482   6.082  11.901 -1.4337  0.0807 -0.3463
13537TIP3   OH262101   6.633   0.975  16.281  1.4628  0.1368  0.0928
13537TIP3    H162102   6.721   0.993  16.247  2.0626 -0.2138  1.4204
13537TIP3    H262103   6.626   0.879  16.279  1.2803  0.1433  0.3864
13538TIP3   OH262104   1.681   3.661   0.751 -0.2734 -0.0492  0.1503
13538TIP3    H162105   1.721   3.589   0.798 -2.0189 -0.2620  1.3220
13538TIP3    H262106   1.587   3.652   0.766 -0.5466  2.3595  0.2036
13539TIP3   OH262107   4.267   3.101  15.480  0.0390 -0.3551 -0.5399
13539TIP3    H162108   4.224   3.103  15.566  0.9022 -1.6559 -0.0662
13539TIP3    H262109   4.299   3.011  15.471 -0.2699 -0.2991 -2.3433
13540TIP3   OH262110   0.574   3.565  14.749  0.2349  0.0192 -0.0493
13540TIP3    H162111   0.593   3.524  14.665 -0.2665 -2.9602  1.2171
13540TIP3    H262112   0.658   3.600  14.779  0.5526  0.4812 -1.4510
13541TIP3   OH262113   1.222   4.286   1.304 -0.1482  0.1739 -0.1078
13541TIP3    H162114   1.311   4.298   1.337 -1.0129  0.1158  2.4302
13541TIP3    H262115   1.202   4.368   1.258  1.1147  0.2856 -0.4726
13542TIP3   OH262116   3.397   3.995   3.428 -0.5287 -0.6199  0.3523
13542TIP3    H162117   3.484   3.963   3.451 -0.4249  0.2267  1.1333
13542TIP3    H262118   3.357   4.019   3.511 -0.0784  2.6612 -0.3204
13543TIP3   OH262119   3.755   4.332  12.891  0.2399  0.5376 -0.3151
13543TIP3    H162120   3.818   4.334  12.963 -0.9632 -3.0557  0.8848
13543TIP3    H262121   3.798   4.279  12.824 -1.1923 -1.3193  0.2245
13544TIP3   OH262122   6.459   5.926   0.479  0.7984  0.0425 -0.6119
13544TIP3    H162123   6.450   5.835   0.508 -0.7282  0.4831  0.3256
13544TIP3    H262124   6.552   5.946   0.494  0.3501 -0.1425  2.9625
13545TIP3   OH262125   6.030   5.626  12.169  0.2353  0.0896  0.6311
13545TIP3    H162126   6.016   5.585  12.254  0.5926 -1.3576  0.0079
13545TIP3    H262127   6.046   5.552  12.109 -2.9311  0.8204 -1.2698
13546TIP3   OH262128   3.543   6.482  15.815  0.1921  0.1746  0.0190
13546TIP3    H162129   3.570   6.488  15.723 -0.0941  0.4433 -0.0485
13546TIP3    H262130   3.450   6.504  15.814 -0.1491 -1.2425  0.1798
13547TIP3   OH262131   4.456   4.620   3.968  0.1259  0.3771  0.5745
13547TIP3    H162132   4.383   4.629   4.028  1.1553  1.8855  1.6392
13547TIP3    H262133   4.439   4.684   3.898  0.3193  0.5864  0.7175
13548TIP3   OH262134   2.834   2.523  11.116  0.3079  0.2406 -0.2005
13548TIP3    H162135   2.842   2.518  11.021  1.7791 -1.4446 -0.0178
13548TIP3    H262136   2.746   2.489  11.134 -0.0034  0.6323 -0.9621
13549TIP3   OH262137   5.621   1.367  16.704  0.0168 -0.1357  0.2342
13549TIP3    H162138   5.615   1.272  16.710 -1.1820 -0.0441  0.7614
13549TIP3    H262139   5.661   1.394  16.787 -1.6940 -0.0394  1.0586
13550TIP3   OH262140   4.700   2.840   2.719  0.6283  1.1832 -0.2619
13550TIP3    H162141   4.671   2.751   2.699  1.8434  0.8104 -0.3679
13550TIP3    H262142   4.719   2.838   2.813 -1.7340  2.0128  0.2906
13551TIP3   OH262143   5.573   4.354  13.473  0.5247 -0.0637  0.1904
13551TIP3    H162144   5.509   4.288  13.501  0.6569 -0.1151  0.3771
13551TIP3    H262145   5.586   4.337  13.380 -0.0258  0.1977  0.0699
13552TIP3   OH262146   1.336   4.473  11.110 -0.5154 -0.1610 -0.8471
13552TIP3    H162147   1.387   4.392  11.114  1.6571  1.1969 -0.5212
13552TIP3    H262148   1.264   4.459  11.172 -0.5538 -2.0837 -1.2913
13553TIP3   OH262149   1.718   3.940  16.399 -0.4112 -0.0286  0.6679
13553TIP3    H162150   1.741   4.022  16.442 -0.7187  1.4320 -1.8421
13553TIP3    H262151   1.639   3.911  16.445 -0.4881  1.2472  1.3846
13554TIP3   OH262152   1.010   5.064  16.922  0.1961  0.6673 -0.0052
13554TIP3    H162153   1.096   5.022  16.922 -0.4243 -0.6347  1.7448
13554TIP3    H262154   0.993   5.084  17.014 -1.0466  1.5964 -0.4304
13555TIP3   OH262155   3.797   5.518  12.062  0.6035  0.0790 -0.0690
13555TIP3    H162156   3.881   5.505  12.107  0.5923 -0.1523 -0.1146
13555TIP3    H262157   3.802   5.607  12.027  0.9334 -0.0261 -0.2923
13556TIP3   OH262158   2.963   6.459   3.850 -0.4477 -0.4499 -0.7136
13556TIP3    H162159   2.945   6.367   3.866  1.2740 -1.1333 -2.4174
13556TIP3    H262160   3.005   6.490   3.930 -0.6478 -1.2566 -0.2994
13557TIP3   OH262161   5.432   1.028   2.087  0.1901 -0.3272 -0.3547
13557TIP3    H162162   5.490   1.044   2.013 -2.0895  0.6422 -1.9419
13557TIP3    H262163   5.365   1.095   2.081 -1.1018 -1.4085  1.4911
13558TIP3   OH262164   4.937   6.201  15.735 -0.9227 -0.1651 -0.0185
13558TIP3    H162165   4.860   6.157  15.772 -0.6077 -0.7292 -0.0394
13558TIP3    H262166   4.987   6.230  15.812 -1.4757  0.7792  0.0039
13559TIP3   OH262167   6.132   0.990  13.826  1.1371 -0.4927 -0.3305
13559TIP3    H162168   6.063   1.001  13.762 -0.1053  0.3212  1.1024
13559TIP3    H262169   6.210   0.967  13.775  0.3265  0.7472 -2.1622
13560TIP3   OH262170   4.591   6.792  14.458  0.0285  0.5011 -0.5283
13560TIP3    H162171   4.522   6.728  14.442  1.0093 -0.5411 -0.6591
13560TIP3    H262172   4.642   6.754  14.530  1.6584  0.2860 -1.7876
13561TIP3   OH262173   1.778   5.608   1.321  0.3743  0.1906  0.1880
13561TIP3    H162174   1.728   5.529   1.344 -1.3258  1.4671  0.9815
13561TIP3    H262175   1.728   5.648   1.251  1.5224  0.2969 -0.5708
13562TIP3   OH262176   6.687   1.108  10.478 -0.7863 -0.3914 -0.4301
13562TIP3    H162177   6.628   1.096  10.552 -0.2690  0.8041  0.1938
13562TIP3    H262178   6.740   1.029  10.476 -1.7660 -1.0578 -0.4086
13563TIP3   OH262179   4.388   3.237  13.132  0.0456 -0.1809  0.0657
13563TIP3    H162180   4.413   3.321  13.169  0.6050 -0.8291  1.1809
13563TIP3    H262181   4.445   3.227  13.056 -0.4564  0.7247 -0.4409
13564TIP3   OH262182   1.385   3.007   4.859  0.1573  0.4551 -0.4788
13564TIP3    H162183   1.316   3.057   4.816  0.1818  0.6420 -0.3002
13564TIP3    H262184   1.387   3.040   4.949  0.2641  0.2277 -0.3972
13565TIP3   OH262185   1.373   3.692   2.066  0.1149  0.4233 -0.4073
13565TIP3    H162186   1.304   3.654   2.120  0.5532  0.1248 -0.0576
13565TIP3    H262187   1.401   3.770   2.114  2.2370 -1.2038  1.0621
13566TIP3   OH262188   0.922   4.743  13.252  0.3602 -0.5430  0.6838
13566TIP3    H162189   0.983   4.733  13.179 -0.5141 -1.5176  0.0518
13566TIP3    H262190   0.896   4.835  13.250  0.2544 -0.5895 -0.3244
13567TIP3   OH262191   2.543   5.700  13.956 -0.2734 -0.6525 -0.1632
13567TIP3    H162192   2.460   5.656  13.973 -1.2569  1.1808 -0.1118
13567TIP3    H262193   2.550   5.701  13.860 -0.9767  0.4050 -0.2045
13568TIP3   OH262194   5.935   1.544   5.201  0.5502  0.8617 -0.2919
13568TIP3    H162195   5.929   1.556   5.296  0.9616  1.6186 -0.3494
13568TIP3    H262196   6.028   1.529   5.185  0.2664 -0.8132 -0.4178
13569TIP3   OH262197   2.233   1.817  12.535  0.0092 -0.0544 -0.1413
13569TIP3    H162198   2.279   1.841  12.455 -1.0631  0.5126 -0.6020
13569TIP3    H262199   2.264   1.880  12.600  1.2516 -0.8278  0.0203
13570TIP3   OH262200   0.767   5.178  13.701 -0.7306  0.3371 -0.0536
13570TIP3    H162201   0.837   5.200  13.639 -2.1074  1.6586 -1.1979
13570TIP3    H262202   0.777   5.085  13.717  1.2487  0.4903 -0.2492
13571TIP3   OH262203   5.377   5.509   0.205  0.2268  0.3486  0.1460
13571TIP3    H162204   5.417   5.502   0.118  0.5362 -1.0837  0.3839
13571TIP3    H262205   5.287   5.536   0.188  0.1785 -0.2866 -0.6557
13572TIP3   OH262206   4.721   2.789  14.834 -0.3283 -0.0547  0.3072
13572TIP3    H162207   4.627   2.798  14.821 -0.1199 -0.1017 -1.3143
13572TIP3    H262208   4.730   2.766  14.927 -1.8747  0.3392  0.5743
13573TIP3   OH262209   4.758   5.438   4.390 -0.2444 -0.2774  0.1273
13573TIP3    H162210   4.722   5.436   4.478  0.6808  3.3357  0.6657
13573TIP3    H262211   4.688   5.477   4.337  0.3479  0.5195 -0.0884
13574TIP3   OH262212   4.211   0.992  16.772  0.2049  0.2003 -0.3887
13574TIP3    H162213   4.270   1.041  16.715  1.3956  0.0986  0.7190
13574TIP3    H262214   4.257   0.909  16.788 -0.4956 -0.1126  0.0268
13575TIP3   OH262215   1.855   3.742   2.876 -0.1833 -0.0341  0.0772
13575TIP3    H162216   1.809   3.755   2.793  0.1858 -0.9427 -0.2716
13575TIP3    H262217   1.911   3.820   2.885 -0.3788  0.1662 -0.4148
13576TIP3   OH262218   5.113   1.033  12.188  0.5605  0.8333 -0.2016
13576TIP3    H162219   5.153   0.991  12.264 -1.5260 -0.6168  0.1299
13576TIP3    H262220   5.137   0.977  12.114 -0.3145  0.2984 -0.0881
13577TIP3   OH262221   4.945   3.156  10.787  0.3795 -0.0844 -0.2415
13577TIP3    H162222   4.959   3.091  10.718  1.8168 -0.9003  0.7801
13577TIP3    H262223   5.014   3.221  10.773 -0.8661  1.0739 -1.0759
13578TIP3   OH262224   3.390   0.755   0.727 -0.2152  0.2508 -0.5498
13578TIP3    H162225   3.421   0.832   0.774  0.4800  0.2887 -1.0671
13578TIP3    H262226   3.300   0.742   0.758 -0.2206  1.0726 -0.2251
13579TIP3   OH262227   1.740   6.656   1.430  0.3777 -0.1809  0.0833
13579TIP3    H162228   1.679   6.709   1.481  0.3241 -0.2455  0.0864
13579TIP3    H262229   1.787   6.604   1.494  0.7319  0.1764  0.1153
13580TIP3   OH262230   5.695   2.865  14.903  0.3255  0.9645 -0.0363
13580TIP3    H162231   5.706   2.926  14.976  1.4812  0.9044 -0.1415
13580TIP3    H262232   5.643   2.914  14.839 -0.1063  1.2666  0.5367
13581TIP3   OH262233   4.020   4.180  13.151  0.0939  0.1063 -0.2248
13581TIP3    H162234   4.034   4.214  13.239  1.4576  2.6064 -1.3453
13581TIP3    H262235   4.031   4.256  13.094 -1.6033 -1.2913 -2.5085
13582TIP3   OH262236   4.045   2.941  10.641 -0.0540 -0.0374 -0.4045
13582TIP3    H162237   3.950   2.929  10.642  0.0039 -0.4797  1.2139
13582TIP3    H262238   4.079   2.874  10.702  1.2681  0.2915 -0.7523
13583TIP3   OH262239   1.556   2.486  11.898  0.2462 -0.2644  0.3525
13583TIP3    H162240   1.530   2.572  11.931 -1.0099 -0.4039 -0.2228
13583TIP3    H262241   1.624   2.505  11.834 -0.3825  0.3515 -0.1464
13584TIP3   OH262242   0.358   4.595   2.522 -0.9412  0.0273  0.4840
13584TIP3    H162243   0.277   4.641   2.503 -1.2356 -0.7008 -0.0535
13584TIP3    H262244   0.385   4.628   2.607 -0.2797  2.4083 -0.6041
13585TIP3   OH262245   1.205   4.598   6.458 -0.1058  0.4720 -0.2252
13585TIP3    H162246   1.193   4.539   6.384  0.3897  0.8061 -0.5746
13585TIP3    H262247   1.217   4.685   6.419  0.1298  0.6579  0.2412
13586TIP3   OH262248   1.994   6.603  13.134 -0.1124  0.5360 -0.2836
13586TIP3    H162249   1.973   6.651  13.214  1.2012 -1.5008  1.3551
13586TIP3    H262250   2.045   6.664  13.081 -0.8739  1.8561  0.4793
13587TIP3   OH262251   5.323   0.965   3.541  0.3189 -0.3221 -0.4255
13587TIP3    H162252   5.272   0.961   3.621 -1.4799  0.4618 -1.4859
13587TIP3    H262253   5.308   0.880   3.499  0.4943 -0.3771 -0.3764
13588TIP3   OH262254   5.404   4.651  12.395  0.1516  0.4323 -0.0931
13588TIP3    H162255   5.431   4.578  12.340 -0.4621 -0.3804  0.6726
13588TIP3    H262256   5.368   4.715  12.333 -0.9740 -0.6737 -0.5986
13589TIP3   OH262257   3.615   3.545   5.350 -0.1468 -0.1699  0.0973
13589TIP3    H162258   3.659   3.467   5.316  1.0918 -0.9503  3.3470
13589TIP3    H262259   3.523   3.520   5.355  0.1162 -1.1240  0.2802
13590TIP3   OH262260   4.883   0.106   5.765  0.0706 -0.1418  0.0406
13590TIP3    H162261   4.913   0.081   5.853  1.7118  1.1239 -0.1380
13590TIP3    H262262   4.849   0.194   5.776 -0.5060 -0.3103 -0.4281
13591TIP3   OH262263   1.932   1.573  14.289  0.1429  0.4397  0.2578
13591TIP3    H162264   1.934   1.525  14.206  0.7424 -0.4006  0.7505
13591TIP3    H262265   1.839   1.585  14.308 -0.0648 -2.3341  1.1510
13592TIP3   OH262266   4.543   4.356   2.094  0.3666  0.3625  0.5156
13592TIP3    H162267   4.458   4.314   2.104  0.3991  0.3661  0.8019
13592TIP3    H262268   4.526   4.433   2.039  0.4248 -0.4085 -0.5942
13593TIP3   OH262269   3.550   5.850   1.184  0.3614 -0.1029 -0.5929
13593TIP3    H162270   3.544   5.945   1.189  1.8950  0.1309 -2.4366
13593TIP3    H262271   3.544   5.820   1.275  1.7794  1.8927  0.1936
13594TIP3   OH262272   6.546   6.515  16.747  0.2498 -0.2217 -0.0297
13594TIP3    H162273   6.595   6.435  16.766  0.1155 -0.9390 -2.5427
13594TIP3    H262274   6.610   6.585  16.752  1.1548 -0.9318 -1.3800
13595TIP3   OH262275   4.503   3.469   1.120 -0.0225 -0.1247 -0.0505
13595TIP3    H162276   4.440   3.506   1.182 -0.1016  2.2156 -1.4669
13595TIP3    H262277   4.461   3.389   1.087 -0.7387 -0.4304  1.5743
13596TIP3   OH262278   3.786   1.178  11.176  0.3709  0.3405  1.0099
13596TIP3    H162279   3.849   1.234  11.128 -0.3836  1.0028  0.7834
13596TIP3    H262280   3.837   1.142  11.248  0.6585  2.0182  1.6764
13597TIP3   OH262281   4.910   2.335   0.431 -0.6739 -0.2305  0.2019
13597TIP3    H162282   4.986   2.291   0.392 -0.7771  0.5238 -0.8727
13597TIP3    H262283   4.947   2.414   0.471 -0.5989 -0.9023  1.4643
13598TIP3   OH262284   5.861   1.740   4.637  0.0240  0.1731  0.4595
13598TIP3    H162285   5.903   1.662   4.600  0.0144 -0.1546  1.1248
13598TIP3    H262286   5.900   1.813   4.589  1.6078 -0.1110  1.2752
13599TIP3   OH262287   4.153   4.897  16.343  0.1674  0.0608 -0.0329
13599TIP3    H162288   4.193   4.983  16.349  2.1899 -0.7533 -1.2279
13599TIP3    H262289   4.213   4.846  16.287 -0.5947 -2.3311  1.2396
13600TIP3   OH262290   3.542   5.002  13.657 -0.5798 -0.0873  0.2547
13600TIP3    H162291   3.610   4.940  13.630 -1.7635 -1.4202  0.2479
13600TIP3    H262292   3.463   4.949  13.664 -1.5045  1.3288  0.8254
13601TIP3   OH262293   5.804   1.715  15.842  0.5678  0.2294  0.1277
13601TIP3    H162294   5.814   1.800  15.885  2.0145 -0.2466  0.7445
13601TIP3    H262295   5.772   1.737  15.754 -0.7083  1.2999  0.8295
13602TIP3   OH262296   6.129   4.577   5.538 -0.6550  0.3632 -0.4362
13602TIP3    H162297   6.185   4.557   5.613 -0.6146 -0.1012 -0.5876
13602TIP3    H262298   6.099   4.666   5.553 -1.0771  0.0817  0.4020
13603TIP3   OH262299   1.522   3.389  14.669 -0.3964 -0.1707  0.3168
13603TIP3    H162300   1.570   3.343  14.600  1.4653  3.3255 -0.8682
13603TIP3    H262301   1.433   3.399  14.633 -0.0732 -0.4482 -0.5853
13604TIP3   OH262302   6.810   5.388   2.756 -0.2234  0.6204 -0.2477
13604TIP3    H162303   6.847   5.344   2.680  1.8298  0.8006  0.6198
13604TIP3    H262304   6.845   5.477   2.752 -0.6108  0.8165  0.5600
13605TIP3   OH262305   1.512   1.148  15.516 -0.3314  0.2340 -0.1298
13605TIP3    H162306   1.566   1.227  15.523 -0.6725  0.6250 -1.7777
13605TIP3    H262307   1.422   1.180  15.522 -0.4973  0.0813 -1.5841
13606TIP3   OH262308   1.227   0.851   3.026  0.2699 -0.3089 -0.3164
13606TIP3    H162309   1.214   0.917   3.095 -0.3341 -0.8168  0.0622
13606TIP3    H262310   1.259   0.774   3.073  2.2983  0.1246 -0.9238
13607TIP3   OH262311   5.881   2.561   1.496 -0.6858 -0.1155  0.2820
13607TIP3    H162312   5.840   2.508   1.564  1.4653 -0.7247  1.1478
13607TIP3    H262313   5.959   2.512   1.471 -0.2021  1.2464 -0.9426
13608TIP3   OH262314   0.685   4.602  13.164 -0.0538 -0.3833 -0.7504
13608TIP3    H162315   0.761   4.627  13.111  1.0742 -0.9956  0.5662
13608TIP3    H262316   0.612   4.647  13.122  0.7927 -0.9595 -2.9202
13609TIP3   OH262317   6.416   2.239   4.601 -0.8517 -0.4957  0.5344
13609TIP3    H162318   6.489   2.183   4.572  0.2652  1.9495 -1.6201
13609TIP3    H262319   6.345   2.217   4.542 -0.0929  1.0533 -0.9762
13610TIP3   OH262320   6.702   5.427   2.296  0.3225  0.1799 -0.3161
13610TIP3    H162321   6.781   5.433   2.349 -0.3534 -0.7228  0.8202
13610TIP3    H262322   6.723   5.474   2.216  0.6056  3.5607  1.6722
13611TIP3   OH262323   0.042   5.909   2.295 -0.1055 -0.3330 -0.1557
13611TIP3    H162324   0.044   5.813   2.288 -1.1190 -0.3529 -0.2931
13611TIP3    H262325   0.093   5.928   2.373  0.1065 -0.9909 -0.1273
13612TIP3   OH262326   1.745   2.666  14.210 -0.1057 -0.3785 -0.3908
13612TIP3    H162327   1.794   2.586  14.189  2.0784  0.7808  0.1826
13612TIP3    H262328   1.717   2.699  14.125 -2.0727 -2.3496 -0.5737
13613TIP3   OH262329   6.521   3.918   3.126  0.6761 -0.0284  0.0819
13613TIP3    H162330   6.477   3.972   3.192  0.5456  0.0371 -0.0584
13613TIP3    H262331   6.462   3.843   3.114  1.0084 -0.3612  0.5062
13614TIP3   OH262332   6.786   5.114   0.300 -0.4510  0.2850 -0.3151
13614TIP3    H162333   6.769   5.134   0.208  1.4825  1.9952 -0.3341
13614TIP3    H262334   6.881   5.120   0.308 -0.3938 -2.1847  1.2868
13615TIP3   OH262335   4.569   2.720   5.220 -0.2212 -0.3674  0.4028
13615TIP3    H162336   4.501   2.771   5.174  0.1213 -0.6455 -0.4167
13615TIP3    H262337   4.521   2.669   5.285 -0.6434  0.5163  0.7905
13616TIP3   OH262338   4.636   0.438  11.663  0.1631 -0.0665  0.0346
13616TIP3    H162339   4.695   0.372  11.627 -1.7709 -0.9196 -1.6758
13616TIP3    H262340   4.578   0.390  11.722 -0.2087  0.3637  0.0244
13617TIP3   OH262341   3.833   2.507  16.514  0.3841  0.1051  0.0734
13617TIP3    H162342   3.751   2.554  16.529  0.0766 -0.3002 -0.3009
13617TIP3    H262343   3.824   2.473  16.425  1.5855  1.3113 -0.5321
13618TIP3   OH262344   1.152   5.720  11.064  0.2527  0.0760 -0.7000
13618TIP3    H162345   1.062   5.698  11.040  0.3187 -1.2515  0.2804
13618TIP3    H262346   1.205   5.648  11.029  0.7764  0.1045  0.0330
13619TIP3   OH262347   5.542   3.330   5.318 -0.3851 -0.4632  0.1608
13619TIP3    H162348   5.458   3.297   5.286 -1.1344 -0.5389  2.1392
13619TIP3    H262349   5.561   3.277   5.395  0.8730  0.3666  0.4347
13620TIP3   OH262350   0.099   6.602  15.559  0.0155  0.5464  0.5393
13620TIP3    H162351   0.064   6.608  15.470 -0.4646  1.0874  0.7591
13620TIP3    H262352   0.032   6.554  15.608 -0.9801  2.5596  1.2288
13621TIP3   OH262353   4.734   1.797   5.613  0.0500  0.3455 -0.0438
13621TIP3    H162354   4.757   1.728   5.675 -2.7339  0.5024  1.2320
13621TIP3    H262355   4.724   1.752   5.529  0.6659 -0.4041  0.2885
13622TIP3   OH262356   1.460   1.170   1.010 -0.6518  0.3716  0.0337
13622TIP3    H162357   1.441   1.076   1.018  0.5905  0.2132  1.4253
13622TIP3    H262358   1.383   1.213   1.046 -0.5611 -0.1630  0.8912
13623TIP3   OH262359   3.947   5.719  11.908 -0.4746  0.0317 -0.1751
13623TIP3    H162360   3.932   5.743  11.816 -2.8822 -0.4328  0.0626
13623TIP3    H262361   4.025   5.663  11.905  0.3885  1.2707 -1.7285
13624TIP3   OH262362   5.902   2.200   3.856  0.2611 -0.0469 -0.0105
13624TIP3    H162363   5.972   2.231   3.798  1.6937  0.2752  1.8538
13624TIP3    H262364   5.823   2.243   3.822  1.6999  3.3238  0.6465
13625TIP3   OH262365   0.163   0.734   0.054 -0.2642 -0.0510 -0.1025
13625TIP3    H162366   0.145   0.701  -0.034 -0.0455 -1.2586  0.2886
13625TIP3    H262367   0.102   0.806   0.066 -1.5800 -1.0712 -0.5478
13626TIP3   OH262368   1.356   6.768  10.658 -1.1639  0.2525 -0.0736
13626TIP3    H162369   1.388   6.719  10.583 -0.6803  0.8072 -0.2254
13626TIP3    H262370   1.435   6.800  10.702 -1.4422 -0.0761  0.6737
13627TIP3   OH262371   2.704   1.544  14.327 -0.7889  0.0403  0.3274
13627TIP3    H162372   2.640   1.486  14.287 -1.1730 -1.5173  3.0828
13627TIP3    H262373   2.788   1.515  14.292 -1.1447 -1.0527  0.3622
13628TIP3   OH262374   6.654   1.729   0.547  0.2767 -0.0280  0.4210
13628TIP3    H162375   6.702   1.653   0.580  0.1463  0.7317  2.4801
13628TIP3    H262376   6.562   1.701   0.546  0.3139 -0.1495  0.4452
13629TIP3   OH262377   1.685   1.123   0.378 -0.0409 -0.6109 -0.1730
13629TIP3    H162378   1.739   1.194   0.414  0.2249 -1.2049  0.6314
13629TIP3    H262379   1.603   1.165   0.354 -0.4900 -0.2861  1.7917
13630TIP3   OH262380   2.442   3.591  14.677  0.3352  0.2916 -0.1542
13630TIP3    H162381   2.412   3.641  14.600 -1.7505 -1.3712 -0.4588
13630TIP3    H262382   2.461   3.504  14.643 -0.4097 -0.4029  1.1972
13631TIP3   OH262383   2.529   6.080  12.756  0.1313  0.1115  0.3663
13631TIP3    H162384   2.515   5.985  12.750  1.8210 -0.1055 -0.2806
13631TIP3    H262385   2.623   6.091  12.741 -0.5076  2.1460 -2.4985
13632TIP3   OH262386   1.004   0.325  15.945 -0.3484 -0.5294 -0.8868
13632TIP3    H162387   0.934   0.389  15.963 -0.7819 -1.5852  1.4766
13632TIP3    H262388   0.966   0.266  15.880 -2.2050 -1.8355  1.3001
13633TIP3   OH262389   1.493   6.461  15.845  0.1197 -0.4669 -0.0150
13633TIP3    H162390   1.554   6.521  15.802  0.3502 -1.2602 -0.8324
13633TIP3    H262391   1.435   6.517  15.896 -0.1573  0.5227 -1.3827
13634TIP3   OH262392   4.821   4.015  16.280  0.0598 -0.5317 -0.1383
13634TIP3    H162393   4.834   4.093  16.226 -1.5741 -0.9353 -1.1505
13634TIP3    H262394   4.774   4.047  16.357  2.0520 -0.0213  0.9040
13635TIP3   OH262395   3.225   2.416   3.664 -0.1535 -0.3437  0.6180
13635TIP3    H162396   3.219   2.454   3.576  1.4048 -0.6389  0.3804
13635TIP3    H262397   3.280   2.338   3.653 -1.0349 -1.1175  1.6175
13636TIP3   OH262398   1.878   4.279   5.759  0.5942 -0.0690  0.1949
13636TIP3    H162399   1.797   4.328   5.749  1.6029  1.6496  0.1783
13636TIP3    H262400   1.878   4.250   5.850  0.1216  0.2247  0.2892
13637TIP3   OH262401   3.205   0.631  14.353  0.6235 -0.3548 -0.5121
13637TIP3    H162402   3.296   0.650  14.373  0.0665  0.8762  0.9220
13637TIP3    H262403   3.195   0.655  14.261  1.3811  0.9047 -0.2725
13638TIP3   OH262404   1.789   3.043   5.899 -0.3496 -0.3552 -0.0407
13638TIP3    H162405   1.884   3.038   5.887 -0.3185 -2.2744  0.8480
13638TIP3    H262406   1.762   3.120   5.848  1.7410  0.5460  0.1702
13639TIP3   OH262407   1.929   6.454  16.040  0.2372  0.5151  0.5988
13639TIP3    H162408   1.883   6.372  16.023 -1.4056  1.5063  0.1045
13639TIP3    H262409   2.014   6.444  15.997 -1.1087  0.2286 -2.1172
13640TIP3   OH262410   1.344   1.392   3.048 -0.6259  0.2011  0.8386
13640TIP3    H162411   1.306   1.423   2.965 -1.5008 -0.4216  0.9965
13640TIP3    H262412   1.273   1.402   3.111  0.1746  1.0578  1.6066
13641TIP3   OH262413   3.384   1.022   4.766  0.1393 -0.1828  0.3448
13641TIP3    H162414   3.350   0.944   4.722 -0.6608  0.2498  0.1877
13641TIP3    H262415   3.307   1.060   4.809  0.5075  0.5871  0.3153
13642TIP3   OH262416   2.122   0.267  12.560  0.2160 -0.1267 -0.1713
13642TIP3    H162417   2.126   0.266  12.655  2.5013 -0.3045 -0.2482
13642TIP3    H262418   2.143   0.357  12.536 -0.7185  0.0079 -0.5008
13643TIP3   OH262419   2.115   4.472   2.160  0.0685  1.0081 -0.1361
13643TIP3    H162420   2.126   4.392   2.109  0.6765  0.9206  0.1260
13643TIP3    H262421   2.142   4.542   2.101  0.2226  0.9555 -0.1286
13644TIP3   OH262422   2.452   5.059   4.984 -0.0053 -0.2079 -0.1147
13644TIP3    H162423   2.364   5.049   4.949  0.0119 -0.5769 -0.0527
13644TIP3    H262424   2.497   4.977   4.962  0.1999 -0.1837  0.2025
13645TIP3   OH262425   4.403   6.162   4.770  0.7232  0.0249 -0.2354
13645TIP3    H162426   4.383   6.246   4.811 -0.4530  0.1092 -0.9459
13645TIP3    H262427   4.487   6.136   4.807  0.5476  0.9686  0.8495
13646TIP3   OH262428   3.194   1.071  17.005  0.9082 -0.0573 -0.1102
13646TIP3    H162429   3.269   1.099  17.057  1.2343  0.1248 -0.6885
13646TIP3    H262430   3.181   0.979  17.030  0.2041  0.4084  1.3337
13647TIP3   OH262431   5.182   1.039  12.973 -0.5994  0.1749  0.1908
13647TIP3    H162432   5.179   1.072  13.063  0.2601  0.3754  0.1435
13647TIP3    H262433   5.146   1.111  12.920 -2.3880 -0.4513  0.5087
13648TIP3   OH262434   4.361   6.614   1.223 -0.1445  0.1758  0.2225
13648TIP3    H162435   4.360   6.642   1.131 -3.0049  0.1882  0.2188
13648TIP3    H262436   4.374   6.695   1.272 -0.1867  0.3848 -0.1074
13649TIP3   OH262437   2.483   2.025   1.111  0.6506 -0.4342  0.2879
13649TIP3    H162438   2.410   2.084   1.125  0.7289  0.1718 -1.7105
13649TIP3    H262439   2.470   1.954   1.174 -2.4476 -1.0824 -1.0009
13650TIP3   OH262440   4.945   4.021   4.124 -0.4210  0.1374 -0.6526
13650TIP3    H162441   5.034   3.986   4.125 -0.2083  0.7156  0.8975
13650TIP3    H262442   4.893   3.950   4.086  0.4199 -0.8785  0.0653
13651TIP3   OH262443   2.354   0.393   0.362  0.2769  0.1133  0.0441
13651TIP3    H162444   2.378   0.485   0.373 -1.1228  0.3389  1.3335
13651TIP3    H262445   2.262   0.388   0.387  0.1743 -1.5447 -0.5503
13652TIP3   OH262446   6.162   4.286   5.837  0.4705  0.1221  0.0295
13652TIP3    H162447   6.103   4.286   5.912 -0.5485 -0.1437 -0.7566
13652TIP3    H262448   6.161   4.377   5.805  0.2234  0.0497 -0.1759
13653TIP3   OH262449   4.258   5.260  14.326 -0.7071  0.0983  0.0945
13653TIP3    H162450   4.346   5.261  14.364  0.0963  1.2549 -1.7526
13653TIP3    H262451   4.262   5.192  14.259 -1.1567  0.2926 -0.1309
13654TIP3   OH262452   5.115   2.768  14.293  0.4657  0.1107  0.0965
13654TIP3    H162453   5.164   2.834  14.243  0.9908  0.3537  0.9253
13654TIP3    H262454   5.140   2.685  14.253  0.2160  0.3666 -0.6065
13655TIP3   OH262455   3.613   3.566   5.640 -0.2059 -0.2372  0.3186
13655TIP3    H162456   3.667   3.491   5.664  0.0473 -1.2145 -3.1564
13655TIP3    H262457   3.620   3.573   5.545 -2.1971  2.7026  0.2956
13656TIP3   OH262458   2.810   3.751   2.666  0.1353 -0.3337 -0.1364
13656TIP3    H162459   2.845   3.718   2.749 -1.7952  1.2271  1.3431
13656TIP3    H262460   2.715   3.740   2.674 -0.2164  1.6134 -1.3494
13657TIP3   OH262461   4.371   1.946  11.383 -0.3620 -0.4949  0.3547
13657TIP3    H162462   4.377   2.023  11.440  0.1133  0.3089 -0.7441
13657TIP3    H262463   4.294   1.963  11.328 -0.6440 -1.1199  0.5568
13658TIP3   OH262464   3.987   5.844   1.817  0.0099 -0.0418 -0.4984
13658TIP3    H162465   3.982   5.790   1.738 -2.3613  0.4564 -0.7187
13658TIP3    H262466   3.970   5.783   1.889 -2.6851  0.3803 -0.7479
13659TIP3   OH262467   5.477   4.731   2.316  0.2299 -0.2730  0.1978
13659TIP3    H162468   5.558   4.740   2.366  0.9131 -0.5436 -0.8348
13659TIP3    H262469   5.500   4.760   2.228 -0.4863 -1.4520 -0.3906
13660TIP3   OH262470   1.329   2.705  10.622  0.9843  0.2925 -0.0262
13660TIP3    H162471   1.300   2.614  10.611  0.5983  0.6270 -1.8477
13660TIP3    H262472   1.394   2.718  10.553  1.6000  1.1737  0.7090
13661TIP3   OH262473   3.080   4.207  13.754  0.3768  0.3453  0.7897
13661TIP3    H162474   3.145   4.144  13.785  0.5476 -0.1987 -0.6562
13661TIP3    H262475   3.114   4.292  13.783  0.3216 -0.1691  2.4327
13662TIP3   OH262476   3.997   2.142  14.389  0.4761 -0.0710 -1.0778
13662TIP3    H162477   4.001   2.120  14.296 -3.8709 -1.2231 -1.0798
13662TIP3    H262478   3.962   2.063  14.431  0.7847  1.0215  1.3351
13663TIP3   OH262479   1.050   2.775  13.213 -0.2188 -0.1468  0.0606
13663TIP3    H162480   1.043   2.804  13.303 -3.4268  0.6711 -0.3859
13663TIP3    H262481   1.033   2.853  13.160  1.7577 -0.5758 -1.2900
13664TIP3   OH262482   0.952   5.494  16.256 -0.1265  0.4216  0.6406
13664TIP3    H162483   1.019   5.505  16.324  0.7439  0.8358 -0.2830
13664TIP3    H262484   0.870   5.521  16.299  0.7106  2.5761  0.9503
13665TIP3   OH262485   0.268   4.970  13.820 -0.1963 -0.0862 -0.4087
13665TIP3    H162486   0.273   5.033  13.749  0.7622 -2.1991 -2.2584
13665TIP3    H262487   0.355   4.971  13.859  0.1435 -1.0612 -1.1403
13666TIP3   OH262488   6.522   0.056  15.299 -0.1781 -0.0793 -0.1319
13666TIP3    H162489   6.467   0.134  15.299  1.2286  0.9280  0.0467
13666TIP3    H262490   6.571   0.061  15.216  0.2999 -0.4889  0.1244
13667TIP3   OH262491   6.035   4.777   3.497  0.0026  0.3232  0.4135
13667TIP3    H162492   6.114   4.791   3.445 -0.6736  0.8653 -0.4889
13667TIP3    H262493   6.054   4.699   3.550  0.0816 -1.2621 -1.8745
13668TIP3   OH262494   6.812   0.752   3.691 -0.0077  0.3211 -0.1019
13668TIP3    H162495   6.803   0.725   3.600 -1.4979  0.9418 -0.1477
13668TIP3    H262496   6.857   0.679   3.733 -2.1192 -1.3564 -0.6542
13669TIP3   OH262497   1.012   5.437   5.638 -0.2237 -0.0163 -0.2026
13669TIP3    H162498   0.987   5.382   5.712  0.4433  1.8692  1.4643
13669TIP3    H262499   0.930   5.470   5.603 -0.6434 -2.0878 -1.2851
13670TIP3   OH262500   1.990   5.183  16.213 -0.1063 -0.0347  0.4540
13670TIP3    H162501   2.075   5.211  16.246  1.0963  2.3789 -4.3699
13670TIP3    H262502   2.004   5.093  16.183  0.2959 -0.1982  1.1280
13671TIP3   OH262503   4.383   5.504   3.438 -0.0050  0.1368 -0.4826
13671TIP3    H162504   4.418   5.415   3.441  1.1582  0.4854 -2.7444
13671TIP3    H262505   4.327   5.510   3.515  1.3043 -1.9645  0.6799
13672TIP3   OH262506   6.538   2.909   2.987 -0.3955 -0.2902 -0.3778
13672TIP3    H162507   6.573   2.994   2.957  0.0987 -0.1356  0.6216
13672TIP3    H262508   6.459   2.932   3.034 -1.0274 -0.5129 -1.3165
13673TIP3   OH262509   1.218   5.899   4.770 -0.0514 -0.2413 -0.2198
13673TIP3    H162510   1.210   5.907   4.675 -0.8170 -0.1292 -0.1497
13673TIP3    H262511   1.291   5.838   4.782 -0.5491 -0.9755 -0.8907
13674TIP3   OH262512   0.267   2.568   2.441 -0.4788 -0.4381  0.2483
13674TIP3    H162513   0.329   2.570   2.514  0.0203 -0.0140 -0.1847
13674TIP3    H262514   0.268   2.477   2.410 -0.6669 -0.6110  0.7477
13675TIP3   OH262515   4.206   1.729  14.950 -0.2961  0.2248  0.0914
13675TIP3    H162516   4.158   1.647  14.962 -0.9757  0.6934  0.5987
13675TIP3    H262517   4.288   1.703  14.908 -0.5794 -0.6953  0.1036
13676TIP3   OH262518   0.382   5.855   5.760 -0.1909 -0.1128 -0.1402
13676TIP3    H162519   0.356   5.937   5.803 -0.3560  0.6214 -1.6016
13676TIP3    H262520   0.316   5.792   5.786 -0.1972  0.2783  0.8086
13677TIP3   OH262521   1.378   2.319   1.895 -0.3957 -0.0684 -0.5559
13677TIP3    H162522   1.337   2.301   1.810 -1.0467  2.0202 -0.6986
13677TIP3    H262523   1.367   2.238   1.944 -0.0011 -1.3153 -2.4719
13678TIP3   OH262524   4.767   3.476  14.653  0.4741  0.4482 -0.1573
13678TIP3    H162525   4.848   3.473  14.704  0.5027 -1.4770 -0.2477
13678TIP3    H262526   4.712   3.540  14.697  1.3234  0.3491  1.0497
13679TIP3   OH262527   1.042   6.458   5.256 -0.0548 -0.2618 -0.2206
13679TIP3    H162528   1.063   6.414   5.339  1.9298 -3.7297 -2.4482
13679TIP3    H262529   1.126   6.488   5.223 -0.7053  0.1785 -1.5042
13680TIP3   OH262530   4.784   2.672  15.831 -0.7305  0.4082 -0.2238
13680TIP3    H162531   4.794   2.603  15.766  0.4563 -0.1189  0.4854
13680TIP3    H262532   4.706   2.721  15.804 -0.5395 -0.1095 -1.7347
13681TIP3   OH262533   0.841   2.036  17.271  0.0217  0.1184  0.0603
13681TIP3    H162534   0.875   2.110  17.222 -1.6956  1.3386  0.6573
13681TIP3    H262535   0.794   1.984  17.206 -0.8468  0.8517  0.0993
13682TIP3   OH262536   4.325   6.046  12.208  0.0400  0.5247 -0.0212
13682TIP3    H162537   4.398   6.054  12.146  0.1157  1.3684  0.1767
13682TIP3    H262538   4.360   5.995  12.280  0.5731  1.2931  0.2726
13683TIP3   OH262539   5.285   5.085  12.185  0.3530 -0.0113  0.3228
13683TIP3    H162540   5.277   5.145  12.111 -0.1536  0.0956  0.4600
13683TIP3    H262541   5.338   5.132  12.249 -2.2739  1.3885  1.5355
13684TIP3   OH262542   0.062   1.960  11.899 -0.2339 -0.6626  0.0251
13684TIP3    H162543   0.059   1.874  11.858 -1.4756 -0.0214 -1.2897
13684TIP3    H262544  -0.014   1.963  11.957 -0.6895 -0.1633 -0.5801
13685TIP3   OH262545   4.682   1.877  11.842 -0.2196  0.1566 -0.2498
13685TIP3    H162546   4.748   1.829  11.891 -0.9207 -0.4397  0.1225
13685TIP3    H262547   4.662   1.953  11.896  1.9211  1.6696 -1.4939
13686TIP3   OH262548   5.484   2.480   5.270  0.1790 -0.1288 -0.2008
13686TIP3    H162549   5.425   2.555   5.282  0.5811  0.6118 -2.5973
13686TIP3    H262550   5.438   2.407   5.310 -2.8395  0.2383 -2.8268
13687TIP3   OH262551   4.863   6.432   5.635 -0.3094  0.4361  0.3200
13687TIP3    H162552   4.871   6.500   5.703  0.0318  0.2009  0.5188
13687TIP3    H262553   4.940   6.445   5.580 -0.2645  0.2351  0.3367
13688TIP3   OH262554   5.951   2.680   3.868 -0.3565  0.0546  0.1004
13688TIP3    H162555   5.955   2.752   3.932 -0.8436  0.2253 -0.0593
13688TIP3    H262556   5.860   2.679   3.840 -0.6113 -1.3461  0.9294
13689TIP3   OH262557   5.268   4.050  12.114  0.2790  0.2427  0.6515
13689TIP3    H162558   5.250   4.085  12.027  0.0511  1.2107  1.0822
13689TIP3    H262559   5.181   4.039  12.154  0.4136  0.5845  1.0510
13690TIP3   OH262560   1.118   5.273   4.508 -0.4042 -0.2728  0.0611
13690TIP3    H162561   1.178   5.294   4.579  0.3163 -2.9723  0.2884
13690TIP3    H262562   1.031   5.292   4.543  0.0498 -0.0453  1.0772
13691TIP3   OH262563   6.430   5.570  13.628  0.4061 -0.0438 -0.4472
13691TIP3    H162564   6.412   5.484  13.590 -0.5206 -0.0350 -0.0499
13691TIP3    H262565   6.459   5.623  13.555 -1.5602  0.0351 -1.1895
13692TIP3   OH262566   5.526   4.204  14.090 -0.0880  0.1185  0.2152
13692TIP3    H162567   5.455   4.158  14.134  0.5084 -0.6003  0.4353
13692TIP3    H262568   5.492   4.293  14.076 -0.9712 -0.1750  0.4419
13693TIP3   OH262569   1.052   4.902   3.171 -0.0306  0.1479  0.1683
13693TIP3    H162570   0.979   4.894   3.233 -1.4576 -1.2240 -1.6120
13693TIP3    H262571   1.112   4.963   3.213 -1.5765  0.2988  2.2918
13694TIP3   OH262572   5.302   4.421   4.637 -0.6475 -0.1236  0.8079
13694TIP3    H162573   5.272   4.460   4.555  0.6199 -0.7255  0.0447
13694TIP3    H262574   5.335   4.334   4.612  1.3962  0.3809  1.6451
13695TIP3   OH262575   3.610   4.362   3.906 -0.3289 -0.2994  0.3285
13695TIP3    H162576   3.611   4.403   3.819  1.4507 -0.4913  0.2445
13695TIP3    H262577   3.572   4.275   3.891 -1.7561  0.3416  0.0838
13696TIP3   OH262578   0.411   4.030  14.080 -0.3299  0.3345 -0.3965
13696TIP3    H162579   0.329   4.079  14.088 -0.5955 -0.4302  1.8682
13696TIP3    H262580   0.456   4.044  14.163  0.2695 -2.0348 -0.2684
13697TIP3   OH262581   4.589   2.186   3.494 -0.6807 -0.5612 -0.3292
13697TIP3    H162582   4.680   2.209   3.475 -0.5898 -0.5731  0.0911
13697TIP3    H262583   4.592   2.094   3.518 -0.2031  0.4088  3.6897
13698TIP3   OH262584   4.810   1.189   1.532 -0.5159  0.1306  0.1470
13698TIP3    H162585   4.722   1.152   1.528 -1.2027  1.7420  0.0002
13698TIP3    H262586   4.823   1.209   1.624 -0.8706  1.1973 -0.0262
13699TIP3   OH262587   1.973   1.186   0.056 -0.2084 -0.2002 -0.1669
13699TIP3    H162588   2.057   1.224   0.032  0.7823 -0.6946  2.3436
13699TIP3    H262589   1.989   1.145   0.141 -3.1017  0.1437  0.5925
13700TIP3   OH262590   2.059   3.444  15.229  0.8526 -0.1785  0.4077
13700TIP3    H162591   2.061   3.513  15.295  0.3812  0.2797 -0.0552
13700TIP3    H262592   1.976   3.400  15.243  0.4877  0.2884 -0.2507
13701TIP3   OH262593   3.982   3.552   3.506 -0.4056 -0.5132  0.0221
13701TIP3    H162594   3.949   3.642   3.517  0.0746 -0.1080 -1.6697
13701TIP3    H262595   4.075   3.558   3.528  0.0696 -0.1629 -2.0353
13702TIP3   OH262596   4.730   3.886  16.977  0.1029  0.0638  0.0787
13702TIP3    H162597   4.660   3.850  17.032 -1.8526  0.6289 -1.9611
13702TIP3    H262598   4.689   3.958  16.929  1.6018 -0.6571 -2.4273
13703TIP3   OH262599   2.752   2.131  13.168 -0.0968  0.1631 -0.2272
13703TIP3    H162600   2.710   2.092  13.091 -1.4680  2.4676 -0.6839
13703TIP3    H262601   2.700   2.100  13.242 -0.7476  0.5283 -0.5260
13704TIP3   OH262602   5.848   0.077  15.774 -0.4210 -0.0073 -0.1989
13704TIP3    H162603   5.756   0.088  15.797 -0.5720 -2.2283  0.3444
13704TIP3    H262604   5.893   0.064  15.858  0.2820  0.2064 -0.5315
13705TIP3   OH262605   5.420   1.223   1.741 -0.1520  0.1879 -0.4276
13705TIP3    H162606   5.491   1.242   1.679  0.5493 -0.3799  0.1845
13705TIP3    H262607   5.457   1.249   1.826 -0.7965  0.1686 -0.1414
13706TIP3   OH262608   2.639   4.082  10.555 -0.6260 -0.1621 -0.5710
13706TIP3    H162609   2.704   4.027  10.511 -1.4920 -0.8104 -1.0406
13706TIP3    H262610   2.687   4.120  10.629  1.0241  1.4753 -2.4370
13707TIP3   OH262611   1.977   2.324   1.297 -0.1454  0.3069 -0.1311
13707TIP3    H162612   2.058   2.346   1.344  0.3373 -0.0721 -0.7907
13707TIP3    H262613   1.911   2.317   1.366  0.4289  0.3906  0.4334
13708TIP3   OH262614   2.312   1.408  12.805 -0.5693  0.5383  0.1716
13708TIP3    H162615   2.368   1.464  12.751 -0.1558  0.2294  0.2774
13708TIP3    H262616   2.332   1.319  12.777 -0.1967  0.3657  0.9812
13709TIP3   OH262617   5.936   4.777  16.232 -0.0321 -0.0074 -0.5410
13709TIP3    H162618   5.960   4.780  16.324  0.3181 -0.8989 -0.5961
13709TIP3    H262619   5.841   4.792  16.231  0.0239  0.3779 -0.0698
13710TIP3   OH262620   6.652   2.769  11.223 -0.1142 -0.5987  0.1061
13710TIP3    H162621   6.729   2.733  11.266 -0.2444 -1.1059 -0.0853
13710TIP3    H262622   6.590   2.696  11.218 -0.0819 -0.5609 -0.9810
13711TIP3   OH262623   5.358   2.552  13.759  0.1072  0.5315  0.0810
13711TIP3    H162624   5.349   2.486  13.828 -2.2728  1.2450  0.5034
13711TIP3    H262625   5.451   2.549  13.734 -0.0086 -3.2057 -0.1587
13712TIP3   OH262626   0.350   2.208   4.807 -0.0186 -0.5747  0.1807
13712TIP3    H162627   0.340   2.115   4.784 -0.4512 -1.0565  2.2410
13712TIP3    H262628   0.268   2.231   4.851 -0.8160  1.3925 -2.1933
13713TIP3   OH262629   5.579   1.963   0.919  0.3165 -0.2491  0.7908
13713TIP3    H162630   5.661   1.914   0.920  1.3103  1.3675  2.0298
13713TIP3    H262631   5.602   2.048   0.883 -0.8666  0.1537  0.9634
13714TIP3   OH262632   4.175   2.401  13.733  0.3445 -0.2983  0.2417
13714TIP3    H162633   4.099   2.373  13.782 -0.0434 -2.1408 -1.3487
13714TIP3    H262634   4.146   2.480  13.687  0.1792  0.4162  1.5474
13715TIP3   OH262635   2.032   0.999   0.340 -0.1422 -0.3646 -0.4012
13715TIP3    H162636   1.949   0.965   0.307  0.2820 -0.5946 -1.2671
13715TIP3    H262637   2.045   0.956   0.424  0.5295 -2.5917 -1.6015
13716TIP3   OH262638   0.914   1.742   4.520 -0.3304  0.4537  0.2365
13716TIP3    H162639   0.894   1.831   4.550  1.6942  1.3429 -0.9581
13716TIP3    H262640   0.914   1.748   4.425  1.5375 -0.4212  0.1704
13717TIP3   OH262641   5.527   3.636   6.064 -0.0239  0.4232 -0.2261
13717TIP3    H162642   5.578   3.659   6.142 -0.8098 -0.0558  0.4420
13717TIP3    H262643   5.534   3.541   6.057 -0.1751  0.4355 -0.5844
13718TIP3   OH262644   1.966   4.592   3.790 -0.0055 -0.4485 -0.1606
13718TIP3    H162645   2.003   4.609   3.876 -1.5014 -2.1368  0.8405
13718TIP3    H262646   2.039   4.607   3.729  1.1842  0.2839  1.4129
13719TIP3   OH262647   1.238   5.252   1.152 -0.3366 -0.4089 -0.4474
13719TIP3    H162648   1.249   5.344   1.129 -1.9329 -0.6072 -2.1696
13719TIP3    H262649   1.303   5.206   1.099 -1.5306 -0.5253 -1.8372
13720TIP3   OH262650   5.327   5.032  17.194  0.2535  0.0793 -0.5519
13720TIP3    H162651   5.392   4.997  17.256 -0.7929 -1.4762 -0.3005
13720TIP3    H262652   5.319   4.965  17.127 -0.7762  0.4467 -0.8066
13721TIP3   OH262653   2.540   0.144   2.066 -0.0091  0.0807  0.4049
13721TIP3    H162654   2.608   0.087   2.031 -0.1694 -0.4967  1.0225
13721TIP3    H262655   2.539   0.219   2.007  0.5829 -0.2984 -0.0941
13722TIP3   OH262656   2.862   4.341   5.369  0.1688  0.0279  0.0803
13722TIP3    H162657   2.855   4.334   5.464 -0.4176 -1.5959 -0.0805
13722TIP3    H262658   2.781   4.303   5.336 -0.3921  2.1126 -1.0230
13723TIP3   OH262659   5.768   3.445  11.499  0.1158 -0.1046  0.1640
13723TIP3    H162660   5.819   3.509  11.550 -0.2063  0.1004  0.2265
13723TIP3    H262661   5.820   3.432  11.419 -0.2543  0.9185 -0.2641
13724TIP3   OH262662   0.418   5.867   0.629  0.1801 -0.1925 -0.0446
13724TIP3    H162663   0.461   5.827   0.554  0.3704 -1.0500  0.5229
13724TIP3    H262664   0.359   5.933   0.591 -0.4741 -1.3226 -0.9956
13725TIP3   OH262665   4.731   4.571   5.636  0.1674  0.0522 -0.6042
13725TIP3    H162666   4.778   4.490   5.655 -0.0974 -0.4668 -2.1400
13725TIP3    H262667   4.690   4.594   5.719  1.1826 -0.7610  0.1429
13726TIP3   OH262668   1.238   3.885   3.456 -0.6730  0.4055  0.4643
13726TIP3    H162669   1.310   3.831   3.490 -0.9071  1.4475  2.6284
13726TIP3    H262670   1.266   3.906   3.366 -0.0336 -2.3110 -0.0412
13727TIP3   OH262671   1.051   0.751  10.838  0.2518  0.4433  0.6126
13727TIP3    H162672   1.086   0.670  10.876  1.3454  1.0795  0.9975
13727TIP3    H262673   0.997   0.788  10.907  0.0201  0.2054  0.5578
13728TIP3   OH262674   0.816   0.714   4.631 -0.8611 -0.3844  0.3686
13728TIP3    H162675   0.838   0.729   4.723  0.0835 -1.8657  0.4029
13728TIP3    H262676   0.888   0.660   4.598 -1.2214  0.1012 -1.2276
13729TIP3   OH262677   1.317   0.219  14.480 -0.0636 -0.2283  0.1898
13729TIP3    H162678   1.274   0.280  14.539  0.5025 -1.6525  2.0954
13729TIP3    H262679   1.410   0.222  14.506  0.6632  1.1004 -2.3649
13730TIP3   OH262680   4.381   5.781  15.594 -0.8600 -0.7808 -0.2052
13730TIP3    H162681   4.458   5.773  15.651  1.1568  0.0499 -2.7444
13730TIP3    H262682   4.338   5.861  15.623 -0.3907 -0.8780  0.7861
13731TIP3   OH262683   5.894   4.919  14.158  0.1071 -0.4565  0.3301
13731TIP3    H162684   5.887   4.830  14.194  1.2655 -0.3209  0.9052
13731TIP3    H262685   5.980   4.922  14.117  0.4511  0.6975  1.1287
13732TIP3   OH262686   4.033   0.739   6.715  0.2093  0.0327  0.2789
13732TIP3    H162687   4.053   0.833   6.715  1.1146 -0.1526  0.9550
13732TIP3    H262688   4.106   0.699   6.668 -0.9053 -0.1966 -1.2930
13733TIP3   OH262689   4.307   5.662  12.190 -0.7019 -0.3317 -0.1357
13733TIP3    H162690   4.353   5.729  12.140 -0.1923 -0.0287  0.7181
13733TIP3    H262691   4.366   5.587  12.190 -0.8642 -0.4585 -0.3036
13734TIP3   OH262692   1.442   2.968   2.508 -0.0538 -0.0657  0.6083
13734TIP3    H162693   1.365   3.019   2.533 -0.7890 -0.4931 -0.7258
13734TIP3    H262694   1.508   3.034   2.485 -0.5784  0.2978  0.1294
13735TIP3   OH262695   1.001   2.138  11.019  0.0044 -0.0231  0.1270
13735TIP3    H162696   0.925   2.187  11.050  0.1969  0.4606 -0.1628
13735TIP3    H262697   1.026   2.181  10.938  0.0376 -0.7496 -0.2510
13736TIP3   OH262698   4.685   0.655   0.504  0.6665  0.0064 -0.3213
13736TIP3    H162699   4.694   0.561   0.521 -0.6011  0.2226  1.6060
13736TIP3    H262700   4.766   0.678   0.458  1.3181 -1.8806 -0.1763
13737TIP3   OH262701   1.808   5.655  15.925  1.1200 -0.1912  0.1097
13737TIP3    H162702   1.749   5.728  15.904  1.1951  0.1283  0.9823
13737TIP3    H262703   1.786   5.632  16.015  1.8044 -0.5794  0.1832
13738TIP3   OH262704   5.766   4.195   3.476  0.3276 -0.2991  0.3406
13738TIP3    H162705   5.763   4.291   3.476 -1.8716 -0.3112 -2.1378
13738TIP3    H262706   5.693   4.169   3.533  0.6763 -0.5079  0.6911
13739TIP3   OH262707   4.451   0.954  13.063  0.8421 -0.1227 -0.2306
13739TIP3    H162708   4.501   0.902  13.000  1.8040 -2.5512  2.4552
13739TIP3    H262709   4.414   0.890  13.124 -5.3241  1.6032 -1.7986
13740TIP3   OH262710   1.588   3.045  12.702  0.3827  0.7218 -0.0907
13740TIP3    H162711   1.646   3.118  12.724  1.3625 -0.1470  0.2080
13740TIP3    H262712   1.569   3.003  12.785 -0.7587  1.0563 -0.1755
13741TIP3   OH262713   6.494   0.147  12.758 -0.4560 -0.1191 -0.4207
13741TIP3    H162714   6.564   0.175  12.817 -1.6878  0.3530  0.8688
13741TIP3    H262715   6.512   0.193  12.676  0.9078 -0.2429 -0.2014
13742TIP3   OH262716   1.196   4.247   1.829 -0.1301 -0.0174  0.1906
13742TIP3    H162717   1.280   4.267   1.788  0.6549 -0.5030  1.5113
13742TIP3    H262718   1.220   4.211   1.915 -1.6855 -0.2582  0.5325
13743TIP3   OH262719   1.909   2.632  14.472 -0.2300 -0.8353  0.0649
13743TIP3    H162720   1.980   2.572  14.493 -0.9720 -1.6028  0.4107
13743TIP3    H262721   1.951   2.702  14.421  1.0205 -0.5607  1.4206
13744TIP3   OH262722   5.190   2.522   4.017  0.2511 -0.1691  0.1904
13744TIP3    H162723   5.246   2.444   4.015  0.4313 -0.0527  0.7405
13744TIP3    H262724   5.245   2.591   4.052 -0.4829 -0.2621  1.5615
13745TIP3   OH262725   0.222   4.169  13.458 -0.2781 -0.1162 -0.4761
13745TIP3    H162726   0.219   4.187  13.552  0.7720 -0.1847 -0.4260
13745TIP3    H262727   0.151   4.107  13.444 -0.3851 -0.1769  0.2938
13746TIP3   OH262728   5.601   3.482  14.042 -0.1165  0.3994  0.1697
13746TIP3    H162729   5.612   3.532  14.122 -1.7706 -0.7082  1.1142
13746TIP3    H262730   5.628   3.393  14.065 -1.4760 -0.1267 -0.2508
13747TIP3   OH262731   3.978   0.497   2.036  0.1711  0.4294  0.1220
13747TIP3    H162732   3.937   0.444   2.104 -0.5306 -0.0959 -0.7020
13747TIP3    H262733   4.036   0.436   1.990 -0.6033  0.3742 -0.7992
13748TIP3   OH262734   4.375   2.535   5.634  0.1716 -0.8949 -0.1642
13748TIP3    H162735   4.348   2.464   5.692 -1.5298  0.3169  0.5897
13748TIP3    H262736   4.443   2.582   5.684 -0.6902 -0.3535  0.5179
13749TIP3   OH262737   5.117   5.286   2.021  0.2432 -0.1403  0.2149
13749TIP3    H162738   5.078   5.309   1.937 -1.9914  1.3807  1.6042
13749TIP3    H262739   5.206   5.321   2.018 -0.4056  1.4466 -0.8582
13750TIP3   OH262740   1.876   2.636   2.924 -0.4094  0.5805 -0.1907
13750TIP3    H162741   1.852   2.553   2.964  0.4587  0.8956  1.0085
13750TIP3    H262742   1.856   2.702   2.990  1.1897  1.0829 -0.1721
13751TIP3   OH262743   5.754   6.666  13.811 -0.4304 -0.3219  0.2079
13751TIP3    H162744   5.747   6.598  13.878  0.6946  0.5901  1.2638
13751TIP3    H262745   5.759   6.748  13.860 -0.5686  0.4364 -1.0177
13752TIP3   OH262746   3.022   1.075   1.702  0.0618  0.2238 -0.1202
13752TIP3    H162747   2.952   1.028   1.747  0.1757 -1.1192 -1.2890
13752TIP3    H262748   3.072   1.006   1.657  0.5940  1.4011 -1.3791
13753TIP3   OH262749   0.693   1.863  14.561 -0.2369 -0.0998 -0.5222
13753TIP3    H162750   0.705   1.860  14.656 -0.2226 -1.8377 -0.5581
13753TIP3    H262751   0.605   1.828  14.547  0.8596 -2.6330 -1.3181
13754TIP3   OH262752   3.815   5.190  11.925  0.2948 -0.3219  0.7039
13754TIP3    H162753   3.895   5.167  11.972  0.3645  0.1375  0.8099
13754TIP3    H262754   3.834   5.273  11.883 -0.6783  0.6292  2.1046
13755TIP3   OH262755   1.438   0.322  15.328  0.5416  0.5455  0.9382
13755TIP3    H162756   1.354   0.349  15.364 -0.8048 -1.2459 -0.7451
13755TIP3    H262757   1.467   0.250  15.384 -0.1836 -0.3533  0.1858
13756TIP3   OH262758   2.699   2.551   0.182 -0.1857  0.4246  0.2083
13756TIP3    H162759   2.746   2.508   0.110  0.2521  2.2830 -0.6406
13756TIP3    H262760   2.617   2.580   0.143  0.1304  1.5964  0.4053
13757TIP3   OH262761   3.715   0.913   0.204  0.3728  0.0650 -0.5580
13757TIP3    H162762   3.705   0.933   0.111  2.0402 -1.5325 -1.1179
13757TIP3    H262763   3.750   0.993   0.243  0.1705  0.5652 -1.4018
13758TIP3   OH262764   5.596   1.466  12.753 -0.5143  0.2931 -0.3219
13758TIP3    H162765   5.589   1.450  12.847  0.5680 -0.0204 -0.2922
13758TIP3    H262766   5.690   1.468  12.736 -0.6497  2.4913 -1.0267
13759TIP3   OH262767   0.435   5.321   0.801 -0.6876  0.1790 -0.2672
13759TIP3    H162768   0.475   5.407   0.813  0.4402 -0.6215  1.9839
13759TIP3    H262769   0.358   5.323   0.858 -0.0768 -0.6508  0.6038
13760TIP3   OH262770   3.447   2.135   4.964 -0.0172 -0.0913 -0.1319
13760TIP3    H162771   3.401   2.054   4.987  0.4448 -0.0327  0.9959
13760TIP3    H262772   3.466   2.125   4.870 -1.0781 -0.7323 -0.2825
13761TIP3   OH262773   6.161   1.614   0.166  0.5478  0.3613  0.0428
13761TIP3    H162774   6.212   1.678   0.116 -0.3260  0.1857 -1.1001
13761TIP3    H262775   6.223   1.543   0.186  1.2833  1.1354  0.5278
13762TIP3   OH262776   2.268   2.368   1.112  0.4536  0.4945 -0.1066
13762TIP3    H162777   2.334   2.412   1.166  1.1456  0.5231 -0.9650
13762TIP3    H262778   2.220   2.439   1.070 -2.5877  0.6364  3.3010
13763TIP3   OH262779   3.195   2.921   0.629  0.2803 -0.2899  0.0263
13763TIP3    H162780   3.268   2.952   0.575 -1.0835  1.3234 -0.9403
13763TIP3    H262781   3.142   2.868   0.569 -0.1915 -0.1271  0.2977
13764TIP3   OH262782   5.020   2.298   2.608 -0.0015  0.1905  0.3915
13764TIP3    H162783   4.990   2.279   2.697 -1.5109 -0.8387 -0.3118
13764TIP3    H262784   4.952   2.260   2.552  0.1736  2.1391 -1.1811
13765TIP3   OH262785   6.599   3.696   4.955  1.0546  0.1100 -0.6344
13765TIP3    H162786   6.567   3.653   5.035 -1.4798  2.3693 -0.3913
13765TIP3    H262787   6.655   3.630   4.914  0.3479 -2.0253  1.6989
13766TIP3   OH262788   3.250   0.351  17.273  0.5703  0.5290  0.3266
13766TIP3    H162789   3.193   0.413  17.228  1.9414 -0.5122 -3.0439
13766TIP3    H262790   3.192   0.281  17.304 -0.1805  0.0948 -1.9739
13767TIP3   OH262791   3.066   1.507   2.598 -0.3072  0.1777 -0.0437
13767TIP3    H162792   3.116   1.516   2.679 -0.2230  0.9666 -0.1808
13767TIP3    H262793   3.130   1.478   2.533 -0.2982 -0.0911  0.0847
13768TIP3   OH262794   0.691   4.164  15.691 -0.3737  0.4526  0.6007
13768TIP3    H162795   0.619   4.202  15.640  0.1250 -0.7709 -1.0253
13768TIP3    H262796   0.651   4.090  15.736 -0.8496  1.6183  2.1666
13769TIP3   OH262797   4.041   6.003   0.549  0.3360  0.5604  0.6351
13769TIP3    H162798   4.007   6.022   0.462  0.6133  1.5089  0.7312
13769TIP3    H262799   4.002   6.070   0.606  0.0175 -0.1540  1.2743
13770TIP3   OH262800   6.352   5.860   5.179  0.0995 -0.0692  0.4796
13770TIP3    H162801   6.311   5.919   5.242 -0.6785  0.5135 -0.5768
13770TIP3    H262802   6.430   5.827   5.225 -0.9229 -0.3232  2.0629
13771TIP3   OH262803   3.194   0.222  10.504  0.3699  0.1135  0.4794
13771TIP3    H162804   3.210   0.129  10.486  0.8570  0.0782  1.0451
13771TIP3    H262805   3.100   0.233  10.495  0.5073 -0.0377 -1.3714
13772TIP3   OH262806   2.863   3.637   5.989  0.0697 -0.5825 -0.2403
13772TIP3    H162807   2.959   3.635   5.991  0.0362 -0.9537  2.9481
13772TIP3    H262808   2.837   3.545   5.983 -0.0843 -0.6173  0.8442
13773TIP3   OH262809   5.819   5.699   0.495  0.1980  0.2503  0.2215
13773TIP3    H162810   5.861   5.717   0.411 -0.3185  4.2596  0.6942
13773TIP3    H262811   5.885   5.652   0.546  1.4567  0.1095 -1.5086
13774TIP3   OH262812   0.914   3.361  11.952 -0.2313 -0.1323 -0.2107
13774TIP3    H162813   0.996   3.406  11.937  0.2288  0.0137  2.4639
13774TIP3    H262814   0.889   3.325  11.866  2.8811 -0.6586 -0.9329
13775TIP3   OH262815   1.633   2.434  14.359  0.6082  0.1320 -0.7304
13775TIP3    H162816   1.637   2.341  14.381  2.2076  0.1845 -0.7552
13775TIP3    H262817   1.540   2.454  14.359  0.2907 -1.2201  0.3375
13776TIP3   OH262818   4.946   1.611   0.881  0.0595 -0.0901  0.1490
13776TIP3    H162819   4.952   1.660   0.963 -0.4348 -1.7078  1.1784
13776TIP3    H262820   4.901   1.671   0.821  0.6524  1.2043  0.9744
13777TIP3   OH262821   5.633   2.397  13.799 -0.5416  0.5103  0.8448
13777TIP3    H162822   5.646   2.446  13.880 -0.8913  0.1582  1.1119
13777TIP3    H262823   5.627   2.305  13.827  0.9098  0.2262  0.2771
13778TIP3   OH262824   3.060   5.948   5.749  0.2136 -0.3264  0.1567
13778TIP3    H162825   3.076   5.981   5.837  0.5351  4.1242 -1.4387
13778TIP3    H262826   3.148   5.933   5.713  0.2189  0.8981 -0.3995
13779TIP3   OH262827   3.494   0.310  16.600  0.0994  0.7583 -0.2456
13779TIP3    H162828   3.514   0.292  16.509 -0.9612 -0.7534 -0.2027
13779TIP3    H262829   3.465   0.226  16.636  1.2557  1.1387  1.6885
13780TIP3   OH262830   4.997   0.422   6.453 -0.5373 -0.1868  0.0989
13780TIP3    H162831   4.997   0.497   6.394 -0.4614  0.2785  0.6894
13780TIP3    H262832   4.940   0.358   6.410  1.7062 -0.9528 -1.8626
13781TIP3   OH262833   6.255   2.096   5.810 -0.3880  0.5774  0.0648
13781TIP3    H162834   6.265   2.014   5.859  2.3012 -1.0978 -3.1198
13781TIP3    H262835   6.322   2.153   5.847  1.0739 -0.3920 -1.0387
13782TIP3   OH262836   1.800   0.575  13.016  0.1990  0.4547 -0.3552
13782TIP3    H162837   1.769   0.508  12.956  2.6728 -0.5943 -0.5419
13782TIP3    H262838   1.721   0.618  13.048 -1.2440  0.0678 -3.2210
13783TIP3   OH262839   2.165   4.580  12.525 -0.2607 -0.2509 -0.2019
13783TIP3    H162840   2.256   4.610  12.529  0.0339 -1.1738  0.0530
13783TIP3    H262841   2.131   4.597  12.613 -0.5661  0.7922 -0.5118
13784TIP3   OH262842   0.111   2.255  13.047 -0.1017  0.0049 -0.7131
13784TIP3    H162843   0.109   2.221  12.957 -1.7261  0.4130 -0.8458
13784TIP3    H262844   0.094   2.348  13.037  1.4677  0.3704 -0.1045
13785TIP3   OH262845   3.720   6.273   2.336  0.2351  0.1535  0.8213
13785TIP3    H162846   3.685   6.356   2.305 -0.1804 -0.2330  0.2506
13785TIP3    H262847   3.795   6.297   2.390  0.4222  0.8805  0.2418
13786TIP3   OH262848   5.103   5.986   5.960 -0.0126 -0.3798 -0.4815
13786TIP3    H162849   5.068   5.897   5.964 -0.9474  0.0328  0.7125
13786TIP3    H262850   5.146   5.991   5.875 -1.5661 -1.3759 -1.3363
13787TIP3   OH262851   1.494   5.724   3.388  0.2649  0.0050 -0.0426
13787TIP3    H162852   1.550   5.800   3.370  1.0316 -0.1936  1.4182
13787TIP3    H262853   1.406   5.761   3.392  0.5406  0.6905 -0.1159
13788TIP3   OH262854   5.182   5.192  14.838 -0.1136  0.6450 -0.4187
13788TIP3    H162855   5.154   5.223  14.752 -1.2663  2.0742  0.4554
13788TIP3    H262856   5.249   5.255  14.865 -1.6414  1.7461  0.8623
13789TIP3   OH262857   2.850   2.073  11.210  0.0262  0.2752  0.4849
13789TIP3    H162858   2.906   2.071  11.132 -0.2872  0.1511  0.2615
13789TIP3    H262859   2.864   2.160  11.247  0.0982  0.3715  0.2316
13790TIP3   OH262860   4.841   6.445  11.794  0.5397  0.2048  0.4066
13790TIP3    H162861   4.810   6.357  11.815  0.6147  0.3027  0.9319
13790TIP3    H262862   4.765   6.489  11.759  0.9234 -0.6057 -1.5198
13791TIP3   OH262863   6.486   6.241  11.220  0.1443 -0.4313 -0.1866
13791TIP3    H162864   6.444   6.271  11.139  1.8917 -2.1514 -1.7820
13791TIP3    H262865   6.579   6.235  11.198  0.9697  1.2400  2.6462
13792TIP3   OH262866   3.903   4.994   1.156 -0.1992  0.1610 -0.2036
13792TIP3    H162867   3.974   5.048   1.122  0.9995 -0.4232  1.3047
13792TIP3    H262868   3.877   5.036   1.238 -1.2660  0.0739 -0.4769
13793TIP3   OH262869   5.377   0.111  17.136  0.5788 -0.0696 -0.0972
13793TIP3    H162870   5.448   0.076  17.082  0.4490  1.2996 -1.1623
13793TIP3    H262871   5.421   0.160  17.205  0.6627  1.5649 -1.2949
13794TIP3   OH262872   0.495   0.283  13.826 -0.2656 -0.0780  0.7632
13794TIP3    H162873   0.470   0.358  13.772 -1.8470 -0.0758  1.4592
13794TIP3    H262874   0.590   0.289  13.832 -0.3714  2.0149  0.9790
13795TIP3   OH262875   0.194   5.378  15.039 -0.1474 -0.8416  0.1559
13795TIP3    H162876   0.124   5.343  14.984 -0.0804 -0.8471  0.0747
13795TIP3    H262877   0.274   5.345  15.000 -0.1637 -1.9254  1.0292
13796TIP3   OH262878   4.191   1.092   1.734 -0.4008 -0.4575  0.4676
13796TIP3    H162879   4.194   1.042   1.653 -1.5298  0.2844 -0.0390
13796TIP3    H262880   4.242   1.171   1.716  0.3905 -0.8673  0.8868
13797TIP3   OH262881   2.352   6.799   2.197  0.4943  0.3639  0.7701
13797TIP3    H162882   2.353   6.731   2.130 -1.4791  2.1105 -1.1034
13797TIP3    H262883   2.410   6.867   2.164  0.2079  0.8406  1.2446
13798TIP3   OH262884   2.544   0.296  11.723  0.1568 -0.0410  0.1687
13798TIP3    H162885   2.626   0.257  11.752  0.0035 -0.6703 -0.2176
13798TIP3    H262886   2.486   0.221  11.708 -1.0864  0.4739  2.2239
13799TIP3   OH262887   1.858   5.386  14.186  0.2356 -0.1281 -0.2482
13799TIP3    H162888   1.774   5.394  14.140  0.6332 -0.3984 -1.0415
13799TIP3    H262889   1.876   5.291  14.186  0.2934 -0.1156  0.3632
13800TIP3   OH262890   1.483   6.723  13.691 -0.0549 -0.1076  0.2144
13800TIP3    H162891   1.514   6.777  13.618 -0.9146  0.5006  0.2909
13800TIP3    H262892   1.421   6.662  13.651 -0.8138  0.4761  0.4916
13801TIP3   OH262893   3.276   0.750  15.219  0.1831  0.0619  0.3338
13801TIP3    H162894   3.355   0.792  15.187 -0.3701  1.7015  1.0699
13801TIP3    H262895   3.290   0.742  15.314 -0.5098  0.3256  0.4619
13802TIP3   OH262896   1.748   4.070   0.559  0.3269 -0.2308  0.5297
13802TIP3    H162897   1.769   3.978   0.578  1.0893  0.4684  3.2867
13802TIP3    H262898   1.652   4.074   0.565  0.3156 -0.7494  0.7361
13803TIP3   OH262899   4.208   6.388  13.298 -0.2808  0.6638  0.1402
13803TIP3    H162900   4.200   6.296  13.271  0.8239  0.8788 -0.9658
13803TIP3    H262901   4.126   6.406  13.344 -0.0782 -1.1629  1.2863
13804TIP3   OH262902   4.539   5.317  11.360  0.7292 -0.0921 -0.4111
13804TIP3    H162903   4.566   5.409  11.352  2.0046 -0.2707  1.6437
13804TIP3    H262904   4.446   5.321  11.380  0.8108  0.7608 -0.1797
13805TIP3   OH262905   5.003   0.333  14.915  0.3551  0.1995 -0.2767
13805TIP3    H162906   5.021   0.407  14.972 -0.0745 -0.0181  0.1415
13805TIP3    H262907   5.073   0.336  14.849  0.7706  0.5315  0.1773
13806TIP3   OH262908   5.663   1.133  14.256 -0.6238  0.2829 -0.2680
13806TIP3    H162909   5.723   1.136  14.331 -1.1125 -1.4113  0.2046
13806TIP3    H262910   5.714   1.091  14.186 -0.6224  0.6202 -0.4729
13807TIP3   OH262911   2.283   2.704   6.357 -0.3369 -0.0536  0.2125
13807TIP3    H162912   2.292   2.676   6.266 -0.7091  0.0157  0.1545
13807TIP3    H262913   2.339   2.782   6.362 -1.1523  0.5731 -0.2399
13808TIP3   OH262914   6.781   6.153   1.497  0.2991  0.5372  0.2918
13808TIP3    H162915   6.817   6.210   1.565 -0.2407  0.7999  0.3628
13808TIP3    H262916   6.703   6.115   1.537  0.6396 -0.2246  0.2304
13809TIP3   OH262917   6.335   2.472   1.800 -0.6484 -0.6184 -0.5016
13809TIP3    H162918   6.343   2.390   1.849  1.9039 -0.0870  0.0003
13809TIP3    H262919   6.406   2.469   1.736 -0.5774  1.1999 -0.5256
13810TIP3   OH262920   5.979   1.636   3.332  0.0280  0.0223  0.4954
13810TIP3    H162921   5.950   1.561   3.279  0.2986  0.0292  0.3370
13810TIP3    H262922   5.898   1.675   3.365 -0.1804  0.5062 -0.5813
13811TIP3   OH262923   0.026   5.657  12.944 -0.1757  0.0855 -0.8040
13811TIP3    H162924   0.027   5.575  12.894 -1.3916 -0.2681 -0.2560
13811TIP3    H262925  -0.038   5.712  12.900 -1.1491 -0.1726  0.2550
13812TIP3   OH262926   2.592   3.836  15.969  0.2332 -0.6156 -0.0991
13812TIP3    H162927   2.684   3.859  15.981  0.0943 -0.4515  0.7217
13812TIP3    H262928   2.544   3.909  16.008 -0.2375 -0.9192 -0.1052
13813TIP3   OH262929   1.800   2.036  14.652 -0.2162 -0.2753 -0.2380
13813TIP3    H162930   1.860   2.026  14.579  0.6512 -0.4073  0.4909
13813TIP3    H262931   1.800   1.951  14.695 -1.5414 -0.5204 -0.6986
13814TIP3   OH262932   0.162   4.069   0.872 -0.4895 -0.0301  0.3595
13814TIP3    H162933   0.160   3.986   0.920 -1.2512  1.1031  2.3570
13814TIP3    H262934   0.206   4.130   0.932 -1.6728  1.4797 -0.2682
13815TIP3   OH262935   1.364   1.507   2.570 -0.2296  0.3792  0.1140
13815TIP3    H162936   1.407   1.548   2.645  1.3159  1.1125 -1.1390
13815TIP3    H262937   1.434   1.493   2.507 -1.6092  0.3682 -1.4609
13816TIP3   OH262938   3.700   3.394  14.680 -0.2776 -0.3499 -0.2088
13816TIP3    H162939   3.696   3.423  14.589 -0.8937 -1.0855 -0.4227
13816TIP3    H262940   3.609   3.381  14.705 -0.2055  1.3137  1.0045
13817TIP3   OH262941   5.894   4.595  15.397  0.0597  0.1112  0.3905
13817TIP3    H162942   5.985   4.626  15.397  1.1174 -2.8032 -1.4496
13817TIP3    H262943   5.854   4.640  15.323  0.4082  0.3473  0.3438
13818TIP3   OH262944   4.011   4.493  12.214  0.5155 -0.5710 -0.4863
13818TIP3    H162945   4.074   4.544  12.265 -0.0035 -0.1886 -0.2267
13818TIP3    H262946   4.053   4.482  12.129  1.3997 -1.2338  0.0205
13819TIP3   OH262947   1.613   6.288   3.006  1.3383 -0.1485  0.6642
13819TIP3    H162948   1.682   6.332   3.056  0.2302  0.4320  1.7020
13819TIP3    H262949   1.616   6.197   3.036  2.4482 -0.4046 -0.1853
13820TIP3   OH262950   5.242   6.298   5.269 -0.4263 -0.2138  0.2998
13820TIP3    H162951   5.248   6.234   5.197 -0.3822  0.7506 -0.5684
13820TIP3    H262952   5.184   6.367   5.235 -2.7939 -1.1524  2.2807
13821TIP3   OH262953   3.400   5.372   2.110 -0.0911 -1.0868 -0.4380
13821TIP3    H162954   3.369   5.395   2.198  0.5960 -0.7389 -0.2867
13821TIP3    H262955   3.474   5.430   2.095  1.5197 -3.0269 -0.1484
13822TIP3   OH262956   0.786   1.912  10.562  0.1334  0.0747 -0.5018
13822TIP3    H162957   0.710   1.933  10.508 -0.0176  0.4382 -0.1502
13822TIP3    H262958   0.760   1.835  10.613 -0.6717  1.3109  0.9831
13823TIP3   OH262959   3.352   4.806  13.981  0.4356  0.7263 -0.1420
13823TIP3    H162960   3.310   4.888  13.955 -0.3341  0.5358  0.4849
13823TIP3    H262961   3.285   4.759  14.032  1.4601  0.5007  1.0232
13824TIP3   OH262962   3.767   1.222  16.881  0.4319 -0.1746 -0.2248
13824TIP3    H162963   3.824   1.154  16.845  1.4851  1.3343 -1.4591
13824TIP3    H262964   3.734   1.270  16.804 -2.8992 -1.2734  0.4114
13825TIP3   OH262965   2.597   0.652  13.911 -0.4943 -0.0511 -0.1355
13825TIP3    H162966   2.525   0.714  13.903  0.6349  0.9915 -2.9650
13825TIP3    H262967   2.671   0.705  13.941 -0.0435 -0.3868 -0.6257
13826TIP3   OH262968   6.360   2.350  13.682  0.3966 -0.6921 -0.7652
13826TIP3    H162969   6.274   2.353  13.723 -0.9927 -0.6545 -3.5876
13826TIP3    H262970   6.402   2.432  13.708 -0.4530 -0.6661  0.5543
13827TIP3   OH262971   1.607   3.607  13.118  0.1751  0.1433  0.0054
13827TIP3    H162972   1.588   3.572  13.031  1.2717 -1.0192  0.2071
13827TIP3    H262973   1.522   3.626  13.156 -0.3026  1.0360 -1.4658
13828TIP3   OH262974   3.617   5.907   6.169  0.8890 -0.5087 -0.9401
13828TIP3    H162975   3.618   5.813   6.148  2.3924 -0.6205 -0.4937
13828TIP3    H262976   3.542   5.918   6.227 -0.7036 -0.9948 -2.8457
13829TIP3   OH262977   2.304   2.753   4.168 -0.0641 -0.5514  0.4231
13829TIP3    H162978   2.350   2.716   4.243  1.7259 -0.9818 -0.8423
13829TIP3    H262979   2.337   2.704   4.093  0.5043  1.8886 -1.0035
13830TIP3   OH262980   1.187   5.943  11.253  0.0044  0.7078 -0.6884
13830TIP3    H162981   1.172   5.854  11.221 -0.2836  0.8799 -1.0307
13830TIP3    H262982   1.116   5.959  11.315 -0.3847  0.9741 -1.1952
13831TIP3   OH262983   1.453   0.917   3.254 -0.2843 -0.8938 -0.4439
13831TIP3    H162984   1.517   0.944   3.188  0.9588 -0.4243  0.9209
13831TIP3    H262985   1.380   0.978   3.242  0.6137  0.2231 -0.3457
13832TIP3   OH262986   6.288   0.676   1.486 -0.1972  0.7326 -0.1976
13832TIP3    H162987   6.368   0.728   1.488  0.5648 -0.4531  0.8873
13832TIP3    H262988   6.251   0.685   1.574 -0.7446  0.4894 -0.3993
13833TIP3   OH262989   2.327   4.602   3.181  0.1016 -0.6694 -0.1206
13833TIP3    H162990   2.263   4.673   3.174  1.5805  0.7891  0.6538
13833TIP3    H262991   2.277   4.528   3.215 -1.3141  0.2491 -0.1482
13834TIP3   OH262992   1.752   3.103  10.869 -0.3663  0.4538  0.0823
13834TIP3    H162993   1.811   3.051  10.814 -1.5366 -1.8887  0.9835
13834TIP3    H262994   1.705   3.038  10.922 -2.6931  2.3564  0.4185
13835TIP3   OH262995   0.019   5.716  14.822  0.0581 -0.0459 -0.4003
13835TIP3    H162996  -0.010   5.798  14.782 -0.4165 -0.9173 -1.8361
13835TIP3    H262997   0.114   5.716  14.810 -0.1553 -0.6524 -2.2006
13836TIP3   OH262998   3.366   4.089  13.678  0.6988 -0.0960  0.2337
13836TIP3    H162999   3.431   4.115  13.742  2.8017  0.1593 -1.9412
13836TIP3    H263000   3.334   4.004  13.708  1.6634  0.0219  1.6037
13837TIP3   OH263001   3.926   0.917  11.966 -0.2833 -0.3745 -0.0042
13837TIP3    H163002   3.983   0.957  11.901 -2.3051  1.0909 -0.9466
13837TIP3    H263003   3.860   0.985  11.985 -0.8666 -1.4827  2.1093
13838TIP3   OH263004   4.915   5.190  17.098  0.1917  0.3610 -0.1015
13838TIP3    H163005   4.991   5.183  17.155  0.0015 -0.5714  0.0404
13838TIP3    H263006   4.948   5.236  17.020  1.3242 -1.5620 -0.7777
13839TIP3   OH263007   2.096   1.324   4.333  0.2284 -0.2655 -0.1901
13839TIP3    H163008   2.060   1.397   4.384  0.8441  0.9532 -1.4723
13839TIP3    H263009   2.118   1.258   4.398 -0.1402  0.7794  1.0170
13840TIP3   OH263010   4.876   5.749  11.750 -0.4157  0.6819 -0.5496
13840TIP3    H163011   4.946   5.813  11.759 -0.6525  0.6494  1.7916
13840TIP3    H263012   4.913   5.680  11.694  0.2082  2.3100 -2.1679
13841TIP3   OH263013   6.210   0.343   5.570 -0.2331 -0.1169 -0.0908
13841TIP3    H163014   6.261   0.276   5.616  1.0155 -0.0857 -1.3899
13841TIP3    H263015   6.204   0.311   5.480 -0.1689  1.2061 -0.5778
13842TIP3   OH263016   1.916   5.253   1.440  0.7018  0.6095  0.3127
13842TIP3    H163017   1.830   5.293   1.435  0.3886  0.0941  1.2543
13842TIP3    H263018   1.918   5.212   1.527  1.1120 -1.1446 -0.4996
13843TIP3   OH263019   0.562   3.653  13.713 -0.0473 -0.3752 -0.5864
13843TIP3    H163020   0.514   3.701  13.781 -0.0480  0.5029 -1.1967
13843TIP3    H263021   0.588   3.571  13.755 -2.1501 -0.9043 -0.2727
13844TIP3   OH263022   4.152   2.296   0.781 -0.2394  0.3416 -0.6102
13844TIP3    H163023   4.088   2.336   0.722 -0.3169 -0.9465 -1.4207
13844TIP3    H263024   4.232   2.348   0.767 -0.0041 -0.5069 -2.5396
13845TIP3   OH263025   5.861   4.865  13.455  0.8872  0.1186  0.3486
13845TIP3    H163026   5.886   4.780  13.418  0.4817 -0.4242  1.2933
13845TIP3    H263027   5.940   4.918  13.450  2.0615 -1.3496  2.6522
13846TIP3   OH263028   6.726   4.500   1.350 -0.0166 -0.1089  0.2967
13846TIP3    H163029   6.763   4.446   1.280  1.8359  1.3515  0.0874
13846TIP3    H263030   6.646   4.537   1.313  1.6050  1.6974 -1.6145
13847TIP3   OH263031   6.150   3.047   4.505  0.2096  0.0620  0.1875
13847TIP3    H163032   6.244   3.059   4.493 -0.1473  1.0167 -1.8479
13847TIP3    H263033   6.141   2.958   4.536  1.6568 -0.7190 -1.5286
13848TIP3   OH263034   4.487   3.920   3.275 -0.0930 -0.0032 -0.1635
13848TIP3    H163035   4.400   3.880   3.280  1.0720 -2.7862 -1.4043
13848TIP3    H263036   4.486   3.986   3.344 -2.3875 -1.6237  1.4367
13849TIP3   OH263037   0.141   0.789   1.845  0.3676  0.0119  0.1567
13849TIP3    H163038   0.127   0.703   1.885  1.4810 -0.5677 -0.6676
13849TIP3    H263039   0.073   0.795   1.778 -0.1168  0.0564  0.6445
13850TIP3   OH263040   3.001   4.199   1.352 -0.2199  0.1385 -0.1865
13850TIP3    H163041   2.992   4.220   1.445  0.1371 -2.3667  0.4537
13850TIP3    H263042   3.096   4.194   1.338 -0.2834 -0.8826 -0.3251
13851TIP3   OH263043   6.539   3.936  13.879  0.0692 -0.0302 -0.0305
13851TIP3    H163044   6.596   3.881  13.933  1.3385  0.9794 -0.3337
13851TIP3    H263045   6.510   3.878  13.809 -1.1936 -1.2151  1.4235
13852TIP3   OH263046   0.966   0.085   0.318  0.1937 -0.5369 -0.1168
13852TIP3    H163047   1.054   0.122   0.315  0.2992 -0.7919 -0.2252
13852TIP3    H263048   0.969   0.024   0.392 -0.0562 -0.1374  0.2267
13853TIP3   OH263049   5.777   5.256  13.398 -0.1517 -0.1852  0.6192
13853TIP3    H163050   5.704   5.210  13.357 -0.8861 -0.2581  1.9977
13853TIP3    H263051   5.746   5.277  13.486  0.5612  2.0092  0.3791
13854TIP3   OH263052   4.329   2.530  16.813  0.2330 -0.1801  0.1229
13854TIP3    H163053   4.244   2.526  16.770  0.7139  3.1065 -1.3314
13854TIP3    H263054   4.374   2.450  16.788 -0.3305  0.6481 -3.8096
13855TIP3   OH263055   2.295   3.837  15.243 -0.2709 -0.2014  0.2532
13855TIP3    H163056   2.370   3.831  15.303 -0.3882 -0.7205  0.3574
13855TIP3    H263057   2.222   3.861  15.300  0.4459  3.6824 -0.3713
13856TIP3   OH263058   4.330   0.758  14.912 -0.0677  0.7187  0.0239
13856TIP3    H163059   4.395   0.827  14.895  0.1213  0.6929  0.6246
13856TIP3    H263060   4.291   0.782  14.996 -1.1134  0.9373 -0.5177
13857TIP3   OH263061   3.134   5.462   1.725 -0.2942 -0.0061 -0.4722
13857TIP3    H163062   3.044   5.464   1.757  0.8370  1.1293  2.9302
13857TIP3    H263063   3.169   5.549   1.746  2.1285 -1.0280  0.0049
13858TIP3   OH263064   5.581   2.842   2.179  0.2356 -0.3655  0.0138
13858TIP3    H163065   5.489   2.856   2.204  1.0920 -0.1252  3.2303
13858TIP3    H263066   5.599   2.751   2.202  0.8287 -0.4069 -0.5883
13859TIP3   OH263067   2.105   4.902   0.633 -0.4406  0.2215  0.0873
13859TIP3    H163068   2.198   4.880   0.628 -0.2986  0.4291  1.4887
13859TIP3    H263069   2.103   4.998   0.635 -0.7454  0.2355 -0.9523
13860TIP3   OH263070   5.344   6.587   4.458 -0.1780 -0.6258 -0.1688
13860TIP3    H163071   5.325   6.493   4.470 -1.3469 -0.5541 -1.3558
13860TIP3    H263072   5.288   6.613   4.385  1.8899  0.4619 -1.3866
13861TIP3   OH263073   3.611   5.282   0.759  0.2122  0.2942  0.5336
13861TIP3    H163074   3.674   5.318   0.697  1.0914 -0.2257  1.1179
13861TIP3    H263075   3.587   5.196   0.724  0.0859  0.3443  0.4943
13862TIP3   OH263076   2.932   0.858   1.070 -0.3624 -0.0543 -0.3221
13862TIP3    H163077   2.886   0.900   0.997 -0.4788  1.7783  0.7673
13862TIP3    H263078   2.938   0.766   1.044  0.0943  0.6440 -2.8950
13863TIP3   OH263079   0.939   3.248   0.367  0.5368 -1.0270 -0.3931
13863TIP3    H163080   0.994   3.229   0.292 -0.9219 -0.5372 -1.6206
13863TIP3    H263081   0.919   3.163   0.406 -1.0589 -1.5575 -2.2911
13864TIP3   OH263082   2.000   1.425   3.885  0.0838  0.0181 -0.7372
13864TIP3    H163083   2.028   1.476   3.809  1.7175  1.9039  1.0547
13864TIP3    H263084   2.081   1.385   3.918 -0.5892 -0.6980  0.0671
13865TIP3   OH263085   6.142   1.520   5.437 -0.3583  0.0627  0.0620
13865TIP3    H163086   6.162   1.563   5.520 -0.5334 -2.0567  1.2523
13865TIP3    H263087   6.048   1.506   5.439 -0.5426  1.1116 -1.0589
13866TIP3   OH263088   1.150   1.736  12.881 -0.6529 -0.5714  0.4336
13866TIP3    H163089   1.126   1.763  12.792 -0.1125  1.8941  0.9979
13866TIP3    H263090   1.237   1.699  12.872  0.5756  2.2392  0.3193
13867TIP3   OH263091   3.487   3.447   0.433 -0.1879  0.0095  0.0796
13867TIP3    H163092   3.413   3.452   0.372 -0.0254  0.2425 -0.0975
13867TIP3    H263093   3.476   3.362   0.476 -0.9179  0.3182  0.5138
13868TIP3   OH263094   5.559   5.416  11.974  0.0634  0.1122  0.3185
13868TIP3    H163095   5.514   5.472  11.910 -0.3802 -2.6897 -1.9152
13868TIP3    H263096   5.650   5.415  11.945  0.0051 -0.5651  0.1382
13869TIP3   OH263097   0.672   5.122   5.166 -0.1790 -0.5881  0.3422
13869TIP3    H163098   0.711   5.195   5.214 -0.7661 -0.2904  0.3679
13869TIP3    H263099   0.706   5.043   5.210  0.3542 -0.3366  0.3905
13870TIP3   OH263100   5.524   4.619  17.104  0.2143  0.2356 -0.2217
13870TIP3    H163101   5.439   4.663  17.116 -1.0128 -2.4477  1.5728
13870TIP3    H263102   5.568   4.631  17.189  0.5405 -0.5798 -0.2767
13871TIP3   OH263103   2.711   0.996   1.558 -0.0441 -0.4613  0.4280
13871TIP3    H163104   2.654   1.069   1.582 -0.2779 -1.0803  1.8220
13871TIP3    H263105   2.755   1.025   1.478  0.1588  1.3645  1.1694
13872TIP3   OH263106   0.645   4.159   0.592  0.5854  0.0465  0.7290
13872TIP3    H163107   0.736   4.136   0.569  1.0409  2.4350  0.0055
13872TIP3    H263108   0.632   4.120   0.678  1.9598 -1.2103  0.3952
13873TIP3   OH263109   1.240   3.700   1.830  0.8668 -0.6972 -0.4462
13873TIP3    H163110   1.304   3.678   1.898  1.2470 -0.3578 -0.6925
13873TIP3    H263111   1.164   3.733   1.879  2.1071  2.0747 -0.2577
13874TIP3   OH263112   4.429   1.179  16.011  0.1990 -0.4752 -0.2849
13874TIP3    H163113   4.414   1.265  16.049 -1.6053 -1.7776  2.0564
13874TIP3    H263114   4.405   1.189  15.919  1.6298  1.9285 -0.4378
13875TIP3   OH263115   2.301   5.571   2.639  0.3483  0.3171 -0.2616
13875TIP3    H163116   2.287   5.661   2.611 -1.4108 -0.1051 -0.7875
13875TIP3    H263117   2.340   5.579   2.727 -0.0002  1.5826 -0.2198
13876TIP3   OH263118   4.852   0.353  16.610 -0.0795 -0.2038 -0.0503
13876TIP3    H163119   4.929   0.297  16.610 -0.8163 -1.2281 -0.6047
13876TIP3    H263120   4.882   0.436  16.647  1.2807 -0.5961 -0.2804
13877TIP3   OH263121   6.818   1.834  12.965  0.1743  0.3927 -0.2782
13877TIP3    H163122   6.801   1.903  13.029  0.1734  1.8386 -1.8137
13877TIP3    H263123   6.733   1.817  12.924  0.3914  0.2782 -0.6872
13878TIP3   OH263124   5.987   5.032  12.109  0.1939  0.2353  0.0661
13878TIP3    H163125   6.019   5.017  12.020  1.8532  0.8056  0.5487
13878TIP3    H263126   5.919   5.098  12.099 -0.2962 -0.3967 -0.8867
13879TIP3   OH263127   3.726   1.813   5.451 -0.1309 -0.8160 -0.4069
13879TIP3    H163128   3.803   1.810   5.395 -0.6882  0.7820 -1.3084
13879TIP3    H263129   3.658   1.851   5.396 -1.3779 -1.5537  0.5893
13880TIP3   OH263130   1.121   6.592   6.847 -0.3073 -0.0492 -0.3032
13880TIP3    H163131   1.049   6.646   6.815  1.6389  1.8344 -1.6702
13880TIP3    H263132   1.136   6.528   6.778 -1.4973 -1.3238  0.5752
13881TIP3   OH263133   3.282   4.336   3.067  0.6990 -0.2885 -0.5932
13881TIP3    H163134   3.373   4.359   3.088  0.2621  0.1825  0.8371
13881TIP3    H263135   3.247   4.414   3.025  0.0019  0.7698  1.8544
13882TIP3   OH263136   3.878   5.084  11.174 -0.2859  0.3961 -0.5125
13882TIP3    H163137   3.796   5.100  11.221 -0.4127  0.5329 -0.7800
13882TIP3    H263138   3.865   4.998  11.134  0.2366 -0.2055  0.5856
13883TIP3   OH263139   1.803   5.116  15.590  0.1674 -0.3187 -0.2506
13883TIP3    H163140   1.759   5.149  15.511  1.8728  0.9771 -0.7021
13883TIP3    H263141   1.746   5.142  15.662 -0.2978  0.4693 -0.8937
13884TIP3   OH263142   0.780   1.000  12.104 -0.0626  0.1904 -0.0865
13884TIP3    H163143   0.774   0.932  12.170 -1.2581  0.9869  0.6572
13884TIP3    H263144   0.755   1.080  12.150  1.3452  1.1430 -0.9330
13885TIP3   OH263145   1.088   6.746  13.779  0.0899 -0.1619  0.1148
13885TIP3    H163146   1.128   6.805  13.716  1.6493  0.8610  2.0311
13885TIP3    H263147   1.152   6.675  13.790 -1.5009 -1.9542 -1.7154
13886TIP3   OH263148   2.325   2.200   0.860  0.1018  0.5196  0.2451
13886TIP3    H163149   2.377   2.137   0.810 -1.2378  1.5184 -2.4970
13886TIP3    H263150   2.248   2.151   0.888 -1.1746  1.0014 -2.3008
13887TIP3   OH263151   5.819   6.759   1.184  0.2692  0.4423 -0.2616
13887TIP3    H163152   5.898   6.705   1.188 -0.3105 -0.3118  0.8345
13887TIP3    H263153   5.848   6.845   1.216  0.8960  0.4787 -0.8897
13888TIP3   OH263154   2.977   2.269   4.179 -0.2900  0.5083 -0.7193
13888TIP3    H163155   2.982   2.364   4.189 -2.0307  0.4824  0.5492
13888TIP3    H263156   2.949   2.256   4.088 -2.4633  1.2939 -0.1930
13889TIP3   OH263157   3.598   3.945  15.670  0.1376 -0.4330  0.8766
13889TIP3    H163158   3.672   3.896  15.633  1.3588  1.3750  0.8615
13889TIP3    H263159   3.626   3.968  15.759  0.0869  1.2731  0.4714
13890TIP3   OH263160   2.980   0.957  16.199 -0.0402  0.1370 -0.3077
13890TIP3    H163161   2.986   1.052  16.193  0.2694  0.1052 -0.5519
13890TIP3    H263162   2.899   0.935  16.153 -0.4351  0.3311  0.2984
13891TIP3   OH263163   2.517   6.701   3.145  1.1621 -0.3616  0.9318
13891TIP3    H163164   2.489   6.619   3.185 -1.0327  1.0368  2.3933
13891TIP3    H263165   2.538   6.758   3.219  3.1187  0.2756 -0.0696
13892TIP3   OH263166   1.707   5.995   0.614  0.1389 -0.0918  0.0943
13892TIP3    H163167   1.728   6.067   0.555  0.8690  0.1003  0.5911
13892TIP3    H263168   1.761   5.922   0.583 -0.2505 -0.2937 -0.1158
13893TIP3   OH263169   4.868   2.392  15.094  0.1256  0.5532 -0.1188
13893TIP3    H163170   4.915   2.376  15.175 -0.7503 -1.3785  0.0441
13893TIP3    H263171   4.930   2.370  15.025  0.8803  2.2265  0.0150
13894TIP3   OH263172   1.434   2.643  12.275 -0.2638 -0.4617 -0.3875
13894TIP3    H163173   1.377   2.669  12.348 -1.6704 -1.5753 -1.0618
13894TIP3    H263174   1.373   2.624  12.204  0.8869 -3.1007 -0.6916
13895TIP3   OH263175   1.510   4.974   1.201  0.2695  0.4578  0.2758
13895TIP3    H163176   1.576   4.976   1.132 -0.3536  0.3149 -0.3246
13895TIP3    H263177   1.548   5.027   1.272  0.3288  1.7513 -0.6999
13896TIP3   OH263178   1.210   5.387  13.363 -0.0017 -0.4041 -0.4642
13896TIP3    H163179   1.266   5.361  13.436  1.0810 -2.2385 -1.9021
13896TIP3    H263180   1.138   5.324  13.364 -1.2413  0.9993  0.4259
13897TIP3   OH263181   2.304   1.964  12.841 -0.3237 -0.5366 -0.3393
13897TIP3    H163182   2.331   2.029  12.777 -0.5244  0.7343  0.8430
13897TIP3    H263183   2.209   1.975  12.849 -0.4108 -1.2165 -0.4010
13898TIP3   OH263184   4.795   2.195  12.999  0.5636 -0.5765  0.4826
13898TIP3    H163185   4.822   2.287  13.000  0.3058 -0.4980  2.9537
13898TIP3    H263186   4.758   2.182  12.912 -1.4417  2.2767  0.8274
13899TIP3   OH263187   2.881   5.376   4.085  0.2641  0.3502  0.3666
13899TIP3    H163188   2.961   5.419   4.116  0.3851  0.8361 -0.6001
13899TIP3    H263189   2.836   5.443   4.034 -0.4033 -0.1498  0.2914
13900TIP3   OH263190   5.896   5.494  12.374 -0.2573  0.2762 -0.1895
13900TIP3    H163191   5.847   5.501  12.456 -1.1104  1.3783 -0.7754
13900TIP3    H263192   5.839   5.443  12.316  1.3495 -2.5274  0.6242
13901TIP3   OH263193   5.357   3.001   3.330  1.1529 -0.0971  0.2849
13901TIP3    H163194   5.322   2.927   3.280  2.9937  0.4071 -1.8284
13901TIP3    H263195   5.384   3.064   3.263  1.4002  1.6535  2.0087
13902TIP3   OH263196   1.653   1.180  12.180  0.1265 -0.5515  0.6919
13902TIP3    H163197   1.583   1.245  12.176 -0.1904 -0.8773  0.8901
13902TIP3    H263198   1.728   1.227  12.216 -0.4289 -0.5873  1.8984
13903TIP3   OH263199   2.835   6.369  17.171  0.0648  0.0093 -0.4311
13903TIP3    H163200   2.783   6.446  17.146 -0.7335 -1.2819 -2.8603
13903TIP3    H263201   2.890   6.351  17.095  2.1091 -0.3398  1.0662
13904TIP3   OH263202   6.398   3.492  13.959 -0.2183 -1.0094  0.7854
13904TIP3    H163203   6.412   3.423  13.894  0.0145 -1.1620  0.9985
13904TIP3    H263204   6.477   3.491  14.013 -0.7087 -1.3538  1.5045
13905TIP3   OH263205   3.385   0.265  16.926  0.0003 -0.2278  0.4158
13905TIP3    H163206   3.331   0.192  16.955 -0.3255  0.3967  1.4107
13905TIP3    H263207   3.374   0.332  16.994  1.2911  0.2620  0.1623
13906TIP3   OH263208   0.627   6.009   0.265 -0.7490 -0.3510 -0.4040
13906TIP3    H163209   0.593   6.064   0.195 -0.2882 -0.5206 -0.7632
13906TIP3    H263210   0.613   5.919   0.233  0.0733 -0.4213 -0.5758
13907TIP3   OH263211   2.901   6.506  12.903 -0.2264  0.0937 -0.3125
13907TIP3    H163212   2.909   6.481  12.995  1.3172  2.4659  0.2218
13907TIP3    H263213   2.809   6.529  12.893 -1.0344 -2.8421 -0.0928
13908TIP3   OH263214   5.497   1.655  15.603  0.6334 -0.6134  0.2622
13908TIP3    H163215   5.417   1.624  15.646  1.1325  0.0717  1.7123
13908TIP3    H263216   5.559   1.582  15.612  0.4760 -0.7950 -0.0747
13909TIP3   OH263217   0.402   0.605   2.051  0.3901  0.0201  0.0137
13909TIP3    H163218   0.429   0.514   2.038  1.5379  0.2033  1.0416
13909TIP3    H263219   0.365   0.607   2.139 -0.1326  0.4426 -0.2080
13910TIP3   OH263220   5.075   2.175   3.071 -0.1458 -0.5142 -0.1973
13910TIP3    H163221   5.135   2.129   3.129  0.4512 -0.9089 -1.1144
13910TIP3    H263222   5.057   2.113   3.000 -0.9848 -0.0982 -0.3621
13911TIP3   OH263223   2.053   2.326  11.070 -0.2158  0.1114  0.0790
13911TIP3    H163224   1.986   2.363  11.011 -1.7264  0.3842  1.9210
13911TIP3    H263225   2.098   2.403  11.105  1.1580 -0.0776 -1.2347
13912TIP3   OH263226   1.786   1.811  11.333 -0.1746  0.9674  0.1004
13912TIP3    H163227   1.819   1.721  11.339  0.1349  1.1357  0.9319
13912TIP3    H263228   1.706   1.804  11.280 -0.1384  0.2081  0.1460
13913TIP3   OH263229   1.116   3.848  12.187 -0.0532  0.1638  0.3201
13913TIP3    H163230   1.102   3.759  12.156  1.0250 -0.2054  0.8709
13913TIP3    H263231   1.028   3.885  12.196 -0.4577 -0.4084 -1.1472
13914TIP3   OH263232   4.955   5.445   1.281 -0.1040 -0.5711  0.1377
13914TIP3    H163233   4.948   5.509   1.210 -1.1121  0.1056  0.8376
13914TIP3    H263234   4.954   5.360   1.237 -1.2664 -0.1695 -0.6172
13915TIP3   OH263235   6.264   1.797   5.592  0.3225 -0.2172  0.0911
13915TIP3    H163236   6.170   1.786   5.602  0.5152 -2.1528  0.1521
13915TIP3    H263237   6.276   1.889   5.570 -1.6675 -0.1852 -1.0226
13916TIP3   OH263238   2.058   5.267  12.628 -0.1086  0.2959 -0.7922
13916TIP3    H163239   2.006   5.345  12.649  0.3026  0.1632  0.7824
13916TIP3    H263240   1.997   5.194  12.635 -0.3401  0.4045 -1.6247
13917TIP3   OH263241   4.186   5.597  14.798 -0.4635  0.3856  0.1423
13917TIP3    H163242   4.267   5.639  14.827  0.7338 -1.5082 -0.3404
13917TIP3    H263243   4.174   5.628  14.708  0.1098  0.1398 -0.0220
13918TIP3   OH263244   2.304   3.572   3.581 -0.2406  0.3599 -0.4751
13918TIP3    H163245   2.355   3.491   3.573 -0.6133 -0.0105  0.7922
13918TIP3    H263246   2.284   3.578   3.675  0.3029  2.2428 -0.4791
13919TIP3   OH263247   2.999   1.923   4.084 -0.9010 -0.0612 -0.5104
13919TIP3    H163248   2.951   1.971   4.016  1.0377  1.8126 -0.6147
13919TIP3    H263249   3.067   1.876   4.036 -1.4819 -1.2497 -0.1797
13920TIP3   OH263250   0.542   6.451   1.478 -0.5451  0.3368  0.4569
13920TIP3    H163251   0.517   6.543   1.484 -2.8331 -0.3196  1.2204
13920TIP3    H263252   0.464   6.406   1.447  0.2763 -1.4930  0.9474
13921TIP3   OH263253   0.911   2.984   4.344  0.2963  1.1132 -0.1605
13921TIP3    H163254   0.829   3.026   4.319 -0.1900 -0.7717 -1.8708
13921TIP3    H263255   0.890   2.935   4.423 -0.2513  0.6391 -0.5920
13922TIP3   OH263256   1.817   0.982   3.861 -0.0804  0.2054 -0.1386
13922TIP3    H163257   1.821   0.954   3.770 -2.0488 -2.5310  0.5271
13922TIP3    H263258   1.781   1.071   3.858 -3.0967 -1.0009 -1.9059
13923TIP3   OH263259   4.833   6.535   6.626  0.3818  0.6429  0.1989
13923TIP3    H163260   4.758   6.569   6.676  0.9368  2.8455 -0.4245
13923TIP3    H263261   4.890   6.496   6.692 -0.3136  0.8681  0.9387
13924TIP3   OH263262   4.511   6.684   1.703 -0.3507 -0.0829 -0.1895
13924TIP3    H163263   4.433   6.739   1.714 -0.7719 -0.4634 -1.1637
13924TIP3    H263264   4.573   6.739   1.655 -0.5080 -0.2153 -0.5473
13925TIP3   OH263265   0.383   0.524   5.578 -0.3839  0.2893 -0.6198
13925TIP3    H163266   0.475   0.550   5.581 -0.2296 -0.4526  1.2226
13925TIP3    H263267   0.339   0.599   5.538  0.9579  0.7780 -1.2304
13926TIP3   OH263268   6.181   2.082  14.958  0.2234 -0.2218  1.0442
13926TIP3    H163269   6.111   2.080  15.023 -0.4241  3.9282  0.6462
13926TIP3    H263270   6.138   2.058  14.876 -0.1190 -0.3682  1.2664
13927TIP3   OH263271   1.396   4.992   4.183  0.0985 -0.1413  0.1190
13927TIP3    H163272   1.435   5.022   4.265  0.2790 -0.7091  0.2416
13927TIP3    H263273   1.427   5.055   4.117  1.4595 -0.7494  0.1612
13928TIP3   OH263274   6.657   0.754   0.016  0.2308  0.3036 -0.1094
13928TIP3    H163275   6.686   0.841   0.043  0.5020  1.2369 -3.2812
13928TIP3    H263276   6.569   0.768  -0.019  1.3279 -0.1708 -3.2035
13929TIP3   OH263277   0.579   3.554   0.847  0.3397 -0.3938 -0.1252
13929TIP3    H163278   0.558   3.482   0.788 -0.8810  0.6371 -0.9978
13929TIP3    H263279   0.515   3.546   0.918 -1.3110  1.1305 -1.3833
13930TIP3   OH263280   2.035   3.907  11.496  0.0372 -0.6057  0.1392
13930TIP3    H163281   2.062   3.899  11.404 -1.0721 -5.0763  0.0908
13930TIP3    H263282   2.114   3.933  11.543  0.9704  0.2414 -1.8351
13931TIP3   OH263283   0.060   6.295   1.259 -0.1601 -0.7268  0.0632
13931TIP3    H163284   0.032   6.248   1.337  1.1707 -1.2158  0.2613
13931TIP3    H263285   0.057   6.230   1.189  0.5333 -0.8173  0.1066
13932TIP3   OH263286   1.223   1.066   3.202 -0.6487  0.5296 -0.0270
13932TIP3    H163287   1.181   1.149   3.180 -0.2310  0.9355  0.6785
13932TIP3    H263288   1.152   1.011   3.235 -1.0312  0.3985 -1.0484
13933TIP3   OH263289   5.996   2.062  14.427 -0.5099  0.2869 -0.0694
13933TIP3    H163290   6.024   1.979  14.389 -0.0751  0.7987 -0.8651
13933TIP3    H263291   6.053   2.128  14.388  0.6554  0.7204  2.2481
13934TIP3   OH263292   1.121   4.319  11.887 -0.4893  0.6877  0.2433
13934TIP3    H163293   1.154   4.318  11.977 -1.2774 -1.5440  0.5391
13934TIP3    H263294   1.199   4.303  11.834 -0.5233 -1.4109  0.7607
13935TIP3   OH263295   6.203   1.554  13.564  0.7894  0.3698 -0.2573
13935TIP3    H163296   6.156   1.624  13.519  1.1100  0.4222 -0.5148
13935TIP3    H263297   6.276   1.598  13.608  1.0630  0.1835 -0.5225
13936TIP3   OH263298   4.065   5.850  16.358 -0.4005  0.5413 -0.1044
13936TIP3    H163299   4.158   5.873  16.356 -0.5590  1.1777 -1.8799
13936TIP3    H263300   4.064   5.755  16.353  0.1782  0.3946  2.0749
13937TIP3   OH263301   2.867   3.544  15.893 -0.1479  0.1518  0.2293
13937TIP3    H163302   2.860   3.602  15.818 -0.3532  1.4586  1.2275
13937TIP3    H263303   2.902   3.462  15.858  0.5573  1.0258 -1.1277
13938TIP3   OH263304   3.031   4.899  16.235 -0.5881  0.0516  0.1252
13938TIP3    H163305   2.941   4.917  16.208 -0.7962 -0.0438  0.7522
13938TIP3    H263306   3.046   4.808  16.207 -0.9159 -0.1586  0.6243
13939TIP3   OH263307   1.661   2.982   2.233  0.3806 -0.2208 -0.0310
13939TIP3    H163308   1.700   3.069   2.222  0.0985 -0.0011  0.6741
13939TIP3    H263309   1.717   2.939   2.298  0.2191 -0.3825  0.0012
13940TIP3   OH263310   0.230   2.728   5.184  0.5817 -0.1590 -0.6228
13940TIP3    H163311   0.321   2.720   5.213  0.0765 -0.4987  0.9059
13940TIP3    H263312   0.226   2.814   5.143  1.9444 -0.7354 -2.0069
13941TIP3   OH263313   1.195   1.912  15.364  0.2262  0.4077  0.3417
13941TIP3    H163314   1.182   1.838  15.423 -0.0652  0.8336  0.8265
13941TIP3    H263315   1.289   1.914  15.348 -0.0029 -1.3953 -1.4613
13942TIP3   OH263316   4.676   3.279   2.233  0.7149  0.2738 -0.0643
13942TIP3    H163317   4.739   3.283   2.160  1.2006  0.1550  0.3454
13942TIP3    H263318   4.701   3.201   2.282  0.3025  0.2783  0.1566
13943TIP3   OH263319   1.838   2.324   5.992  0.0680 -0.0183  0.2907
13943TIP3    H163320   1.761   2.336   6.049 -0.3983  2.4063 -0.7976
13943TIP3    H263321   1.906   2.377   6.033  0.5519 -0.5174  0.1277
13944TIP3   OH263322   2.608   2.974  11.130 -0.4547  0.7681 -0.7390
13944TIP3    H163323   2.703   2.962  11.132 -0.6284 -0.6422  0.2946
13944TIP3    H263324   2.585   2.975  11.037  0.4471  0.0620 -0.9710
13945TIP3   OH263325   4.279   3.280  11.261  0.6162  0.5188 -0.8455
13945TIP3    H163326   4.372   3.270  11.239  0.1437 -2.9791 -1.5208
13945TIP3    H263327   4.268   3.231  11.342 -0.8357  0.2145 -1.2189
13946TIP3   OH263328   0.889   5.328   2.413 -0.4043  0.3943  0.0106
13946TIP3    H163329   0.837   5.253   2.383  1.7308 -1.2457  0.2435
13946TIP3    H263330   0.888   5.389   2.339  1.2300 -1.7104 -1.8318
13947TIP3   OH263331   3.119   3.855  11.978 -0.0197 -0.2411  0.1687
13947TIP3    H163332   3.116   3.946  11.946 -0.3697  0.3446  1.8332
13947TIP3    H263333   3.207   3.825  11.955 -1.0745 -0.7133 -3.6266
13948TIP3   OH263334   0.097   3.775   0.994  0.0891 -0.8091  0.6770
13948TIP3    H163335   0.013   3.730   0.999  0.6504 -1.9429  0.0644
13948TIP3    H263336   0.117   3.797   1.085 -0.8069 -0.6497  0.8395
13949TIP3   OH263337   3.125   0.754   3.032  0.0870 -0.1301  0.4469
13949TIP3    H163338   3.141   0.685   3.097 -1.2303 -1.3909 -0.5619
13949TIP3    H263339   3.032   0.748   3.012  0.1519  1.3179 -0.3778
13950TIP3   OH263340   2.014   6.214  15.662  0.5104 -0.3263 -0.0002
13950TIP3    H163341   1.993   6.121  15.656  0.7894 -0.6284  3.2256
13950TIP3    H263342   2.109   6.217  15.671  0.7399  0.4199 -2.3710
13951TIP3   OH263343   1.087   3.158  16.741  0.6404  0.3433  0.0117
13951TIP3    H163344   1.018   3.215  16.708  2.6347  1.7606 -1.8271
13951TIP3    H263345   1.077   3.077  16.690  2.0623  1.5789 -2.3381
13952TIP3   OH263346   4.735   0.563  16.107 -0.3999 -0.0458 -0.5000
13952TIP3    H163347   4.726   0.554  16.202 -0.9562  2.4077 -0.2792
13952TIP3    H263348   4.827   0.542  16.089 -0.4786 -1.2628  0.4650
13953TIP3   OH263349   0.128   2.473  15.666  0.7632 -1.0331  0.1397
13953TIP3    H163350   0.167   2.541  15.611 -1.2145 -0.0455 -0.0635
13953TIP3    H263351   0.136   2.508  15.755 -0.0698 -0.6202  0.0541
13954TIP3   OH263352   5.423   0.283  11.421  0.2310  0.0942  0.4336
13954TIP3    H163353   5.474   0.284  11.340  1.0042 -1.7921  0.8715
13954TIP3    H263354   5.332   0.285  11.392  0.5107 -0.0475 -0.4661
13955TIP3   OH263355   2.994   2.716  14.164 -0.2029 -0.2121 -0.5118
13955TIP3    H163356   3.078   2.759  14.144 -0.6076 -0.4102 -2.7922
13955TIP3    H263357   3.019   2.635  14.208  0.6848  0.9283  1.1539
13956TIP3   OH263358   3.257   6.631   1.531  0.2337 -0.5023 -0.3723
13956TIP3    H163359   3.262   6.647   1.436 -0.7839 -1.3616 -0.5674
13956TIP3    H263360   3.251   6.719   1.569  1.7356 -0.0863 -1.0211
13957TIP3   OH263361   0.059   6.468   5.633 -0.0801  0.2618  0.3298
13957TIP3    H163362  -0.034   6.490   5.638  0.1643  1.2904  0.6995
13957TIP3    H263363   0.102   6.552   5.614  0.7395 -0.2671 -0.1702
13958TIP3   OH263364   2.576   1.116  16.043 -0.0816  0.0841  0.5679
13958TIP3    H163365   2.619   1.050  16.098  1.2495 -0.0780 -0.6452
13958TIP3    H263366   2.495   1.137  16.090  0.1257 -1.4249  1.6397
13959TIP3   OH263367   5.395   3.601  11.998 -0.0685 -0.0216 -0.0751
13959TIP3    H163368   5.423   3.686  11.965  0.0822  0.6572  1.7312
13959TIP3    H263369   5.398   3.543  11.922 -0.1386  1.5724 -1.3206
13960TIP3   OH263370   2.591   4.869   2.650 -0.5648 -0.3452  0.2898
13960TIP3    H163371   2.589   4.910   2.564 -1.2906  0.6378  0.7598
13960TIP3    H263372   2.657   4.919   2.699 -1.5765  0.4195  0.9192
13961TIP3   OH263373   1.551   3.675  13.688 -0.6199 -0.0209 -0.0833
13961TIP3    H163374   1.612   3.659  13.759 -1.7721  0.2141  0.9753
13961TIP3    H263375   1.606   3.688  13.611  0.5893 -1.5873  0.5003
13962TIP3   OH263376   4.667   6.743   5.975 -0.4068  0.3716 -0.3600
13962TIP3    H163377   4.732   6.700   5.920 -2.4274 -1.5302 -1.3777
13962TIP3    H263378   4.657   6.685   6.050 -0.2298  1.1421  0.2585
13963TIP3   OH263379   3.248   1.316  11.439  0.7879 -0.0959 -0.2062
13963TIP3    H163380   3.239   1.392  11.381  1.0186 -0.5488 -0.8261
13963TIP3    H263381   3.190   1.337  11.513  1.5713  1.1218  0.0877
13964TIP3   OH263382   6.052   2.273   1.877  0.4254 -0.0224  0.4097
13964TIP3    H163383   6.066   2.358   1.919  1.9236  0.5244 -1.1423
13964TIP3    H263384   6.102   2.211   1.931 -0.6351  0.0654  1.5181
13965TIP3   OH263385   6.797   1.164  16.003  0.4572 -0.3884 -0.2776
13965TIP3    H163386   6.815   1.206  15.919 -0.8821  0.2210 -0.2787
13965TIP3    H263387   6.870   1.103  16.016  1.3286  0.4344 -1.2671
13966TIP3   OH263388   5.029   2.349  15.323  0.3391 -0.2216 -0.6295
13966TIP3    H163389   5.123   2.343  15.306  0.4727  1.0194 -0.3568
13966TIP3    H263390   5.019   2.319  15.414  0.6004  0.5770 -0.3325
13967TIP3   OH263391   2.871   1.102  13.836  0.2142 -0.2097  0.1558
13967TIP3    H163392   2.920   1.094  13.918  0.1260 -1.4922  0.0937
13967TIP3    H263393   2.875   1.195  13.814 -1.5437  0.5128  2.7019
13968TIP3   OH263394   6.719   0.288  11.993 -0.1682 -0.0056  0.0701
13968TIP3    H163395   6.696   0.219  12.056 -1.4450  1.1568  0.9257
13968TIP3    H263396   6.783   0.342  12.039 -0.2076  0.1602 -0.0691
13969TIP3   OH263397   6.000   1.752  16.546  0.9410  0.1052  0.7242
13969TIP3    H163398   6.019   1.689  16.477  0.0868  0.4540  0.1683
13969TIP3    H263399   5.917   1.793  16.520  1.7529  1.8392  0.8044
13970TIP3   OH263400   5.312   2.297   5.042  0.2294  0.1284  0.2929
13970TIP3    H163401   5.352   2.373   4.999  0.4405  0.6706  1.4321
13970TIP3    H263402   5.289   2.329   5.129  1.4312 -1.4356  1.2092
13971TIP3   OH263403   3.648   1.147   1.913 -0.4220  0.1493 -0.1688
13971TIP3    H163404   3.603   1.089   1.975 -1.2892  0.4764 -0.4898
13971TIP3    H263405   3.728   1.100   1.891  0.8115  0.8221  2.6084
13972TIP3   OH263406   3.412   0.730  13.031 -0.8340 -0.7711  0.1998
13972TIP3    H163407   3.380   0.819  13.049  0.9223 -0.3789  1.5741
13972TIP3    H263408   3.397   0.683  13.113 -0.8759 -1.4891 -0.2198
13973TIP3   OH263409   2.912   2.341   1.436  0.3980 -0.2085 -0.0105
13973TIP3    H163410   2.986   2.298   1.393  0.2884 -1.1390  0.7101
13973TIP3    H263411   2.922   2.434   1.415 -0.6156 -0.7873 -3.5168
13974TIP3   OH263412   0.844   3.850  15.149 -0.4386  0.1662 -0.0062
13974TIP3    H163413   0.880   3.829  15.063 -0.6116  0.6208 -0.1918
13974TIP3    H263414   0.798   3.933  15.136  0.0109  0.5184  0.6548
13975TIP3   OH263415   5.576   1.080  12.443 -0.0609 -0.4269  0.7392
13975TIP3    H163416   5.644   1.113  12.502  1.5424 -3.2819  0.6194
13975TIP3    H263417   5.603   0.990  12.425 -2.6585 -0.8612 -1.2089
13976TIP3   OH263418   4.953   1.716  14.882 -0.2012 -0.1319  0.7172
13976TIP3    H163419   5.012   1.671  14.822 -1.0811  1.2660 -1.2272
13976TIP3    H263420   4.999   1.796  14.907 -1.4369  1.2026 -1.1899
13977TIP3   OH263421   5.828   5.171  14.880 -0.0190 -1.1118  0.2808
13977TIP3    H163422   5.861   5.118  14.953  1.9340 -1.7626 -1.0523
13977TIP3    H263423   5.900   5.173  14.817 -1.4244  0.0528 -1.3240
13978TIP3   OH263424   4.845   1.953  11.144  0.2948 -0.3617  0.0955
13978TIP3    H163425   4.783   1.952  11.217 -0.8412 -0.4990 -0.8508
13978TIP3    H263426   4.878   1.863  11.140 -0.8093 -0.7444 -0.5300
13979TIP3   OH263427   6.704   3.769   2.071  0.0469  0.0352 -0.2810
13979TIP3    H163428   6.730   3.860   2.054  0.0841  0.0947  0.1003
13979TIP3    H263429   6.787   3.724   2.090 -0.1785  0.3589  1.5747
13980TIP3   OH263430   2.685   6.784   4.743  0.4969  0.1926  0.0054
13980TIP3    H163431   2.677   6.777   4.838  0.1382  1.2308  0.0520
13980TIP3    H263432   2.729   6.867   4.728 -2.3984  1.6269 -0.8677
13981TIP3   OH263433   1.272   2.705   1.036  0.2432  0.1213 -0.2440
13981TIP3    H163434   1.336   2.659   1.090 -1.2610 -1.4853  0.2192
13981TIP3    H263435   1.187   2.673   1.066 -0.7912  2.1035 -0.9466
13982TIP3   OH263436   5.398   4.790  11.680  0.6905  0.3649  0.0615
13982TIP3    H163437   5.359   4.861  11.731  0.6241  0.8448 -0.6461
13982TIP3    H263438   5.342   4.715  11.698  0.0341  0.7996 -0.1449
13983TIP3   OH263439   3.937   5.490  17.201 -0.2115  0.2644  0.1639
13983TIP3    H163440   3.975   5.539  17.273 -0.5456  1.3899 -0.4159
13983TIP3    H263441   3.885   5.421  17.243  0.1558  0.4828  0.9828
13984TIP3   OH263442   4.078   5.275   3.237 -0.4656  0.1851  0.3422
13984TIP3    H163443   4.130   5.198   3.214  2.7993  2.4497 -0.2068
13984TIP3    H263444   4.050   5.311   3.153 -0.6336  0.4441  0.5068
13985TIP3   OH263445   5.794   2.597   2.294 -0.0324  0.2347 -0.9358
13985TIP3    H163446   5.714   2.546   2.285  0.7738 -0.9437 -1.4966
13985TIP3    H263447   5.766   2.679   2.336 -1.1597 -1.1226  1.0366
13986TIP3   OH263448   6.221   1.708  14.672  0.2506  0.0337  0.4056
13986TIP3    H163449   6.233   1.614  14.665  1.3262  0.1286  0.8750
13986TIP3    H263450   6.246   1.729  14.762 -0.0372  0.7547  0.3230
13987TIP3   OH263451   5.657   1.890   2.877  0.0466 -0.5532  0.5856
13987TIP3    H163452   5.733   1.866   2.824 -0.7848  0.1915 -0.9774
13987TIP3    H263453   5.674   1.981   2.901 -0.8841  0.0004 -0.7691
13988TIP3   OH263454   2.711   5.977   2.206  0.0547  0.2880  0.0252
13988TIP3    H163455   2.730   5.887   2.180  1.8477 -0.0075  2.1872
13988TIP3    H263456   2.797   6.019   2.210 -0.6111  1.5735  0.8745
13989TIP3   OH263457   5.299   2.463   0.291  1.1514  0.3429  0.8660
13989TIP3    H163458   5.282   2.436   0.201  0.5797  0.2203  1.0092
13989TIP3    H263459   5.238   2.411   0.343  0.3845  1.5575  1.1922
13990TIP3   OH263460   1.373   2.312   2.929 -0.6624  0.6572 -0.8932
13990TIP3    H163461   1.441   2.377   2.909 -0.2718  1.3116  2.3898
13990TIP3    H263462   1.291   2.359   2.913 -0.3764  0.9333 -1.5926
13991TIP3   OH263463   6.085   2.380   3.729  0.5659 -0.4512 -0.2273
13991TIP3    H163464   6.043   2.319   3.667 -1.0774  1.9417 -1.5462
13991TIP3    H263465   6.169   2.401   3.688 -0.7672  1.5831 -1.9990
13992TIP3   OH263466   5.763   1.662   5.789  0.3185  0.0040  0.1708
13992TIP3    H163467   5.841   1.717   5.780  0.8904 -1.2451 -3.2568
13992TIP3    H263468   5.792   1.587   5.842  0.5225  1.1344  1.6941
13993TIP3   OH263469   6.340   6.064  12.015 -0.5717 -0.1446 -0.8199
13993TIP3    H163470   6.357   6.124  12.088  1.1894 -1.4691 -0.1036
13993TIP3    H263471   6.296   5.989  12.056 -0.5696 -0.4111 -1.3064
13994TIP3   OH263472   0.010   1.623   6.093  0.1513  0.3451  0.1296
13994TIP3    H163473  -0.031   1.700   6.134  0.9779  1.0591 -0.3743
13994TIP3    H263474   0.071   1.590   6.159 -1.8459 -1.2716  1.2466
13995TIP3   OH263475   2.648   5.140   1.743  0.1765  0.4565  0.2117
13995TIP3    H163476   2.687   5.204   1.683 -0.8332 -0.8259 -1.8830
13995TIP3    H263477   2.643   5.059   1.691  0.5045 -1.0602  2.4875
13996TIP3   OH263478   3.086   5.556  11.507  0.0442 -0.6819 -0.0411
13996TIP3    H163479   3.010   5.556  11.565  0.3401 -2.0366  0.3675
13996TIP3    H263480   3.091   5.466  11.475  1.8692 -0.7574  0.4395
13997TIP3   OH263481   2.007   2.748  13.678 -0.5497  0.3907 -0.0216
13997TIP3    H163482   1.980   2.830  13.720 -0.9892 -0.0123  0.4904
13997TIP3    H263483   1.936   2.687  13.697 -0.1474 -0.1562 -0.2659
13998TIP3   OH263484   1.330   4.675   0.144  0.3980 -0.0164 -0.0043
13998TIP3    H163485   1.424   4.693   0.142  0.8758 -2.4137 -0.9131
13998TIP3    H263486   1.298   4.705   0.058  0.7917 -1.4910 -0.6685
13999TIP3   OH263487   0.155   6.816  13.596 -0.1466  0.4629  0.3785
13999TIP3    H163488   0.204   6.859  13.666  0.6773  0.3330 -0.1095
13999TIP3    H263489   0.218   6.758  13.555 -1.9821 -3.5625  2.9451
14000TIP3   OH263490   4.477   3.513  12.589  0.1365 -0.1230  0.4648
14000TIP3    H163491   4.504   3.559  12.668 -0.7881  0.8638  0.2106
14000TIP3    H263492   4.492   3.576  12.518  1.8885 -1.3339 -0.2939
14001TIP3   OH263493   1.723   0.162  13.822 -0.4261  0.1071 -0.3275
14001TIP3    H163494   1.776   0.230  13.864  2.3759 -1.3646 -1.2780
14001TIP3    H263495   1.706   0.098  13.891  3.0017 -1.6341 -0.9788
14002TIP3   OH263496   3.996   3.821   2.207  0.4928  0.3333  0.5057
14002TIP3    H163497   3.916   3.829   2.156  0.5328 -0.9793  0.2149
14002TIP3    H263498   4.019   3.911   2.230 -0.9846  0.7328  0.4781
14003TIP3   OH263499   0.330   5.273  15.693  0.1094 -0.2514  0.6414
14003TIP3    H163500   0.330   5.367  15.706  0.0514 -0.1920  0.2090
14003TIP3    H263501   0.421   5.247  15.706  0.1261 -0.1353  0.7538
14004TIP3   OH263502   2.393   0.824  13.860  0.7325  0.2858 -0.4189
14004TIP3    H163503   2.306   0.785  13.854  0.7467 -0.1628  1.7764
14004TIP3    H263504   2.391   0.898  13.799 -0.4165 -1.0687 -2.0719
14005TIP3   OH263505   1.641   1.736   4.084 -0.2060 -0.3874  0.0870
14005TIP3    H163506   1.607   1.724   4.172  0.4355 -0.3477  0.3448
14005TIP3    H263507   1.702   1.663   4.072  1.0286  0.5941  0.3353
14006TIP3   OH263508   6.622   4.595  10.956 -0.0621  0.3491  0.6138
14006TIP3    H163509   6.648   4.685  10.934  1.7951 -0.1548  0.6429
14006TIP3    H263510   6.628   4.548  10.873 -3.6071  0.7769  0.0253
14007TIP3   OH263511   1.233   1.358  16.848  0.8916 -0.2222  0.3034
14007TIP3    H163512   1.294   1.418  16.890 -0.7889 -0.2644  2.9033
14007TIP3    H263513   1.237   1.278  16.901 -0.6609 -0.5900 -0.1040
14008TIP3   OH263514   2.468   4.001   4.897  0.4496  0.5759  1.0809
14008TIP3    H163515   2.545   3.947   4.878  0.6833  0.6846  1.7174
14008TIP3    H263516   2.478   4.077   4.840  0.2759  0.1077  0.4058
14009TIP3   OH263517   3.908   0.361  14.206  0.0789  0.6377  0.0208
14009TIP3    H163518   3.890   0.431  14.143 -0.3699  0.9129  0.4485
14009TIP3    H263519   4.003   0.361  14.216  0.2081  0.1606 -1.1417
14010TIP3   OH263520   2.774   6.376   3.179  0.4687 -0.2761  0.7444
14010TIP3    H163521   2.768   6.331   3.095  1.4637  0.8864  0.0267
14010TIP3    H263522   2.685   6.404   3.199  0.5262  1.1587 -0.9085
14011TIP3   OH263523   4.152   0.645   4.210  0.0022 -0.0829  0.5702
14011TIP3    H163524   4.150   0.728   4.259 -0.8462 -0.1011  0.5738
14011TIP3    H263525   4.245   0.628   4.196  0.1853  0.8478  0.6116
14012TIP3   OH263526   5.635   5.960   6.070 -0.1621  1.2086  0.4618
14012TIP3    H163527   5.563   5.898   6.059 -0.9266  2.2718 -0.7277
14012TIP3    H263528   5.714   5.907   6.066 -0.7675  0.4336 -1.7304
14013TIP3   OH263529   5.629   4.509   0.059 -0.1388  0.0438  0.2757
14013TIP3    H163530   5.578   4.436   0.025 -0.2215  0.5729 -0.7467
14013TIP3    H263531   5.573   4.548   0.126 -0.2825 -0.5431  0.5019
14014TIP3   OH263532   4.759   2.371  11.869 -0.7318  0.5245  0.3169
14014TIP3    H163533   4.800   2.456  11.854 -1.5686  0.6915 -1.0620
14014TIP3    H263534   4.719   2.379  11.956 -1.9825  2.0142 -0.3704
14015TIP3   OH263535   2.436   0.273  12.121 -0.4425  0.0143 -0.1931
14015TIP3    H163536   2.457   0.220  12.198  2.3858 -1.9587 -2.2040
14015TIP3    H263537   2.497   0.347  12.127  0.2828 -0.5197 -0.8835
14016TIP3   OH263538   0.046   2.281   0.611  0.0373 -0.0050 -0.4311
14016TIP3    H163539  -0.012   2.215   0.649 -0.1421  0.3244 -0.1304
14016TIP3    H263540   0.073   2.243   0.527 -0.3233 -0.3198 -0.4071
14017TIP3   OH263541   1.360   3.896   5.356  0.6202 -0.4851 -0.4116
14017TIP3    H163542   1.303   3.859   5.289 -4.7391  0.6758  3.2354
14017TIP3    H263543   1.356   3.990   5.341 -1.0171 -0.1907  1.8089
14018TIP3   OH263544   0.435   5.007   3.093  0.1365 -0.0224 -0.2838
14018TIP3    H163545   0.483   4.967   3.021  0.0974 -0.7351  0.0786
14018TIP3    H263546   0.440   4.942   3.164  0.0894  0.6201  0.3167
14019TIP3   OH263547   3.647   1.292  13.312  0.6169 -0.3143 -0.0914
14019TIP3    H163548   3.682   1.291  13.401 -1.3366 -0.0275  0.7022
14019TIP3    H263549   3.579   1.359  13.313  1.9589  1.1499 -2.3792
14020TIP3   OH263550   5.138   6.642   6.048  0.1470  0.4761 -0.3492
14020TIP3    H163551   5.230   6.617   6.054  0.5746  1.9197 -0.7418
14020TIP3    H263552   5.090   6.560   6.061  1.4119  0.1300  2.4542
14021TIP3   OH263553   5.843   3.808   4.764 -0.4289  0.3898 -0.2927
14021TIP3    H163554   5.772   3.818   4.828 -0.2319 -0.8185  0.1280
14021TIP3    H263555   5.860   3.714   4.762  1.7633  0.7536  0.2845
14022TIP3   OH263556   5.330   5.650  13.047  0.1150  0.3427  0.2790
14022TIP3    H163557   5.280   5.570  13.034 -1.3580  1.1167  1.0521
14022TIP3    H263558   5.350   5.652  13.140  0.8425  0.4799  0.1270
14023TIP3   OH263559   3.616   5.807  12.483  0.6566  0.6238  0.1518
14023TIP3    H163560   3.563   5.731  12.457  1.8455  0.1369 -0.9142
14023TIP3    H263561   3.610   5.866  12.408  0.5319  1.1523  0.5824
14024TIP3   OH263562   0.001   4.526  12.929  0.9812 -0.2649 -0.3014
14024TIP3    H163563  -0.009   4.618  12.955 -2.9095 -0.6654 -0.0719
14024TIP3    H263564  -0.034   4.476  13.003  1.4264 -1.8599 -1.1475
14025TIP3   OH263565   1.548   3.321   6.076 -0.5011  0.0191 -0.4124
14025TIP3    H163566   1.465   3.361   6.101 -0.1310  0.7898 -0.4053
14025TIP3    H263567   1.557   3.246   6.135 -0.7123  0.5224  0.2668
14026TIP3   OH263568   4.478   1.572   3.965 -0.5861  0.2540  0.0919
14026TIP3    H163569   4.519   1.585   4.050 -3.3203 -0.6239  1.5866
14026TIP3    H263570   4.512   1.488   3.934  0.0265  0.3356  0.5408
14027TIP3   OH263571   1.945   5.924  12.006 -0.5711  0.2998 -0.7092
14027TIP3    H163572   2.009   5.857  12.028 -0.3980  1.4868  2.5711
14027TIP3    H263573   1.997   6.001  11.983 -0.7866  0.4996 -0.5366
14028TIP3   OH263574   6.112   6.472  12.734 -0.3525  0.3040  0.6531
14028TIP3    H163575   6.094   6.378  12.742 -1.7324  0.6384  1.5855
14028TIP3    H263576   6.180   6.488  12.800  2.2144 -0.6144 -1.6637
14029TIP3   OH263577   2.208   2.027   6.086 -0.4768  0.2720 -0.0388
14029TIP3    H163578   2.273   2.097   6.096 -1.7380  1.7384 -1.7834
14029TIP3    H263579   2.257   1.947   6.103  1.0596  1.5283  1.8057
14030TIP3   OH263580   4.423   3.057  12.799  1.0564 -0.0330 -0.0600
14030TIP3    H163581   4.442   3.151  12.804 -0.8936  0.3524  0.2838
14030TIP3    H263582   4.463   3.021  12.879 -0.7029  0.9621  1.2989
14031TIP3   OH263583   3.964   5.939   2.822 -0.0035  0.6378 -0.0981
14031TIP3    H163584   3.979   5.993   2.745  0.0047  1.7113  0.6440
14031TIP3    H263585   4.037   5.959   2.881  0.3853 -0.7160 -0.1033
14032TIP3   OH263586   5.813   4.096   0.429 -0.0591 -0.5624  0.1408
14032TIP3    H163587   5.855   4.182   0.423  0.1351 -0.6568  0.1214
14032TIP3    H263588   5.874   4.043   0.481  0.3901 -1.0311 -0.8590
14033TIP3   OH263589   4.741   1.999   0.350  0.9225 -0.2048  0.8015
14033TIP3    H163590   4.767   2.029   0.437 -0.0250  1.3711  0.5433
14033TIP3    H263591   4.648   1.980   0.357  0.3041  2.2026 -0.4747
14034TIP3   OH263592   5.134   4.759  15.268  0.0500 -0.5405 -0.2018
14034TIP3    H163593   5.227   4.759  15.244  0.3558  0.2178  0.9516
14034TIP3    H263594   5.133   4.729  15.359 -0.7791  0.1119  0.0058
14035TIP3   OH263595   0.602   4.924  13.782 -0.3379 -0.0606 -0.2466
14035TIP3    H163596   0.537   4.879  13.836 -0.4813 -0.1776 -0.5134
14035TIP3    H263597   0.590   4.887  13.695 -0.8588  0.9034 -0.5986
14036TIP3   OH263598   2.531   6.038  14.767 -0.8976  0.1267  0.0452
14036TIP3    H163599   2.524   6.110  14.704 -0.2045 -0.3227 -0.5447
14036TIP3    H263600   2.441   6.006  14.775 -1.1580  0.8351  0.0551
14037TIP3   OH263601   6.472   5.275  16.132 -0.5228  0.2837  0.5543
14037TIP3    H163602   6.565   5.298  16.137 -0.6040  0.6874  0.2468
14037TIP3    H263603   6.470   5.180  16.136 -0.0703  0.2604  0.2039
14038TIP3   OH263604   0.460   0.773   1.526 -0.3405  0.5490 -0.7288
14038TIP3    H163605   0.375   0.795   1.564 -0.6749  0.5321 -1.4593
14038TIP3    H263606   0.463   0.677   1.527 -2.1563  0.3554 -4.5861
14039TIP3   OH263607   4.110   0.921  14.193 -0.1998 -0.0227  0.1055
14039TIP3    H163608   4.115   0.855  14.124  0.5165 -1.1697  1.2448
14039TIP3    H263609   4.172   0.892  14.259 -0.0169  1.6926  0.7228
14040TIP3   OH263610   3.696   1.555   1.749  0.0440 -0.5583  0.1632
14040TIP3    H163611   3.665   1.467   1.728  1.6797 -0.9805 -0.5371
14040TIP3    H263612   3.626   1.593   1.803 -0.3418 -2.5541  1.1097
14041TIP3   OH263613   0.687   5.768  15.052 -0.7297  0.2096  0.5672
14041TIP3    H163614   0.769   5.818  15.051 -1.8368  2.0290 -2.5102
14041TIP3    H263615   0.666   5.759  15.145  1.2378  2.5797  1.2861
14042TIP3   OH263616   4.608   4.249  16.151 -0.5790  0.0987  0.0683
14042TIP3    H163617   4.688   4.241  16.098 -1.0315 -2.1044 -0.3119
14042TIP3    H263618   4.631   4.208  16.234 -1.0918  0.0847  0.2011
14043TIP3   OH263619   1.582   0.085  11.126  0.0305 -0.2468  0.0843
14043TIP3    H163620   1.638   0.103  11.051  1.1227 -1.9248  0.4574
14043TIP3    H263621   1.623   0.134  11.198  1.0202 -1.4427  0.3476
14044TIP3   OH263622   0.303   0.906   3.700 -0.0534 -0.4366 -0.7295
14044TIP3    H163623   0.361   0.946   3.764 -1.9452 -0.5879  1.1562
14044TIP3    H263624   0.280   0.821   3.738 -0.2046 -1.0855 -2.2177
14045TIP3   OH263625   3.315   3.039  11.035 -0.2946  0.1109  0.4440
14045TIP3    H163626   3.348   2.955  11.066  0.3849 -0.2044 -1.1276
14045TIP3    H263627   3.347   3.047  10.946 -0.5785  1.9259  0.4792
14046TIP3   OH263628   4.079   0.182   5.564 -0.1161  0.4325  0.0650
14046TIP3    H163629   4.100   0.110   5.504  0.9794  1.3202 -0.6233
14046TIP3    H263630   4.132   0.164   5.642 -1.2841 -0.5346  0.6632
14047TIP3   OH263631   6.399   3.611   0.801 -0.5370 -0.0868 -0.0256
14047TIP3    H163632   6.323   3.582   0.852 -1.5576  0.9367 -0.9514
14047TIP3    H263633   6.370   3.610   0.710  0.3318  0.9821 -0.3378
14048TIP3   OH263634   3.084   2.349   0.054  0.1545 -0.1080 -0.7504
14048TIP3    H163635   3.096   2.344   0.148  1.2623  0.5868 -0.8471
14048TIP3    H263636   3.158   2.301   0.017 -0.6159 -0.9197 -1.2525
14049TIP3   OH263637   2.840   6.664   1.473  0.2326 -0.0047  0.2948
14049TIP3    H163638   2.843   6.571   1.496  1.8854 -0.1845 -0.5727
14049TIP3    H263639   2.913   6.676   1.412 -2.0122  1.1421 -2.2846
14050TIP3   OH263640   5.382   3.363  10.878  0.1176 -0.1884  0.0344
14050TIP3    H163641   5.367   3.426  10.948  0.6744 -0.2545  0.2154
14050TIP3    H263642   5.295   3.349  10.839 -0.6091 -1.8679  2.1717
14051TIP3   OH263643   5.849   4.710  11.441  0.1065 -0.4720  0.0351
14051TIP3    H163644   5.783   4.686  11.506 -0.8401 -0.7824 -1.0247
14051TIP3    H263645   5.799   4.727  11.361  1.4314 -2.4635 -1.2765
14052TIP3   OH263646   2.489   6.218  11.873 -0.1807 -0.2608 -0.9826
14052TIP3    H163647   2.555   6.242  11.808  0.6770  0.9576  0.2994
14052TIP3    H263648   2.440   6.299  11.888 -1.3336 -0.9121 -1.1939
14053TIP3   OH263649   6.275   6.140   0.661  0.7108 -0.2062 -0.0277
14053TIP3    H163650   6.255   6.051   0.635 -1.2205 -0.4063  1.9265
14053TIP3    H263651   6.189   6.179   0.681  1.6942  1.3870  1.2439
14054TIP3   OH263652   1.706   5.632   4.473  0.0065  0.0417 -0.4396
14054TIP3    H163653   1.796   5.624   4.501  0.0551  0.3677 -0.4998
14054TIP3    H263654   1.684   5.724   4.486 -0.1589  0.0684 -0.8919
14055TIP3   OH263655   0.378   6.646  13.541  0.1111  0.2225  0.3796
14055TIP3    H163656   0.357   6.559  13.507  0.6073  0.0026  0.6346
14055TIP3    H263657   0.465   6.665  13.507 -0.6678  1.3236 -1.0423
14056TIP3   OH263658   3.749   0.991   4.044  0.1138  0.3206 -0.0210
14056TIP3    H163659   3.657   1.011   4.062 -0.0761  1.2963 -1.9443
14056TIP3    H263660   3.772   1.048   3.970  1.3583 -2.1272 -1.6081
14057TIP3   OH263661   6.093   2.555   1.917 -0.1178  0.0167 -0.0927
14057TIP3    H163662   6.053   2.641   1.909 -0.6679 -0.2516 -0.2349
14057TIP3    H263663   6.158   2.552   1.847  0.5687  0.6762  0.5098
14058TIP3   OH263664   2.083   5.678   1.144 -0.4265  0.2150 -0.0995
14058TIP3    H163665   2.013   5.720   1.093 -0.1036  0.1153 -0.6261
14058TIP3    H263666   2.129   5.624   1.080 -0.1293 -0.0449  0.3410
14059TIP3   OH263667   2.046   3.545   2.757  0.1242  0.1653 -0.0385
14059TIP3    H163668   2.007   3.457   2.762 -1.5549  0.8044 -1.4163
14059TIP3    H263669   1.998   3.596   2.822  1.1812  0.0602  0.8459
14060TIP3   OH263670   6.319   0.490  14.682 -0.0690  0.2807  0.3005
14060TIP3    H163671   6.327   0.586  14.687 -0.9052  0.3197  0.9908
14060TIP3    H263672   6.248   0.476  14.619  1.0312  0.0695 -0.9263
14061TIP3   OH263673   5.228   0.655  12.286  0.4102 -1.0368 -0.4615
14061TIP3    H163674   5.158   0.604  12.328 -0.1895 -0.4566 -0.7456
14061TIP3    H263675   5.193   0.675  12.199  0.9384 -0.7486 -0.6033
14062TIP3   OH263676   4.102   4.105  16.528 -0.4399 -0.6308 -0.3486
14062TIP3    H163677   4.169   4.172  16.517 -1.4213  0.4168  0.0154
14062TIP3    H263678   4.028   4.151  16.567 -1.2968 -1.8206 -0.5537
14063TIP3   OH263679   2.663   6.624  13.100 -0.1609 -0.1473 -0.0934
14063TIP3    H163680   2.734   6.577  13.144 -0.3931  0.0072  0.4493
14063TIP3    H263681   2.706   6.679  13.035  0.3941  1.5915  1.6987
14064TIP3   OH263682   2.942   5.150  15.753  0.3045  0.1259  0.0369
14064TIP3    H163683   2.949   5.243  15.777 -2.0835 -0.0946  1.7423
14064TIP3    H263684   2.993   5.105  15.820 -1.8252 -0.0700  1.5610
14065TIP3   OH263685   3.766   4.083   4.788  0.1455  0.3519 -0.1658
14065TIP3    H163686   3.779   4.148   4.719  1.3198 -0.0021 -0.2839
14065TIP3    H263687   3.704   4.124   4.848  1.8431  2.1148  0.4281
14066TIP3   OH263688   3.081   1.613  11.616  0.1491 -0.1074  0.4845
14066TIP3    H163689   3.136   1.651  11.684  1.6883  0.1291 -0.8555
14066TIP3    H263690   2.996   1.657  11.626  0.0617 -0.7605  2.8251
14067TIP3   OH263691   3.344   3.543   2.257 -0.0189  0.0570  0.1564
14067TIP3    H163692   3.281   3.526   2.326  0.1485  0.1165  0.3252
14067TIP3    H263693   3.418   3.485   2.276 -0.9662 -1.6626 -1.3254
14068TIP3   OH263694   1.555   2.842  15.910  0.6039 -0.3884  0.0206
14068TIP3    H163695   1.497   2.794  15.850  1.6839 -0.1814 -1.2110
14068TIP3    H263696   1.536   2.934  15.891 -0.1854 -0.3112  1.1308
14069TIP3   OH263697   0.219   3.333   0.471  0.1260 -0.7071  0.6537
14069TIP3    H163698   0.145   3.343   0.410 -0.0572 -0.3150  0.9377
14069TIP3    H263699   0.270   3.261   0.435 -1.7199 -2.6334  1.7933
14070TIP3   OH263700   3.816   4.025  14.609 -0.0693 -0.4847  0.0384
14070TIP3    H163701   3.778   4.105  14.573 -1.0129 -1.6433 -1.5821
14070TIP3    H263702   3.898   4.054  14.649 -0.2659  1.2554 -0.7588
14071TIP3   OH263703   0.334   1.660   0.046  0.1441  0.5399 -0.1766
14071TIP3    H163704   0.292   1.680  -0.037  1.6158  0.0464 -1.0609
14071TIP3    H263705   0.382   1.740   0.069 -2.4816  1.6545  1.6201
14072TIP3   OH263706   2.143   5.113  16.779 -0.4373  0.5239 -0.8449
14072TIP3    H163707   2.054   5.083  16.760  0.2099 -0.8201 -1.8520
14072TIP3    H263708   2.180   5.043  16.833 -1.0288  2.5848  2.3565
14073TIP3   OH263709   0.024   1.801  11.524  0.3409 -0.3894 -0.3785
14073TIP3    H163710   0.085   1.864  11.561  1.9423 -1.8687 -0.4680
14073TIP3    H263711   0.012   1.735  11.592  1.1426 -1.6468 -1.4247
14074TIP3   OH263712   0.298   0.833  14.505  0.4459  0.2870  0.2686
14074TIP3    H163713   0.234   0.902  14.522  0.8599  0.2979  1.8460
14074TIP3    H263714   0.357   0.870  14.439 -0.1920  0.8932  0.0374
14075TIP3   OH263715   2.497   0.550  16.283  0.1292  0.1575  0.2232
14075TIP3    H163716   2.520   0.498  16.206 -0.2176 -0.2301  0.3819
14075TIP3    H263717   2.567   0.615  16.289  0.5894 -0.3212  0.0567
14076TIP3   OH263718   2.291   4.266   0.469 -0.5380 -0.4167  0.1318
14076TIP3    H163719   2.353   4.261   0.542  2.4026 -0.2260 -2.2734
14076TIP3    H263720   2.282   4.359   0.451 -0.7918 -0.4950 -0.1492
14077TIP3   OH263721   0.418   3.792  15.008 -0.2725 -0.2167 -0.3874
14077TIP3    H163722   0.351   3.778  15.075  2.5789 -4.0606  1.9027
14077TIP3    H263723   0.447   3.882  15.021 -1.8160  0.0292  1.5878
14078TIP3   OH263724   4.959   6.634   6.360  0.1843 -0.1046  0.6769
14078TIP3    H163725   4.954   6.557   6.302  2.0375  0.5969 -0.4642
14078TIP3    H263726   4.915   6.606   6.440 -2.5872 -1.0503 -1.0988
14079TIP3   OH263727   6.126   3.815   0.356 -0.0348 -0.6650  0.5466
14079TIP3    H163728   6.133   3.766   0.438 -0.7136  0.1218  1.0767
14079TIP3    H263729   6.143   3.906   0.381  1.2310 -0.6167 -0.4349
14080TIP3   OH263730   1.368   1.713  16.173 -0.3803  0.3325 -0.1639
14080TIP3    H163731   1.275   1.702  16.193 -0.1245 -0.1901  0.7792
14080TIP3    H263732   1.386   1.649  16.104 -0.3815 -0.6467  0.7322
14081TIP3   OH263733   3.300   0.996   3.087  0.2795  0.1570 -0.7383
14081TIP3    H163734   3.362   1.010   3.159 -2.3680 -2.5891  2.2652
14081TIP3    H263735   3.319   0.907   3.057  0.9675  1.0809 -3.1057
14082TIP3   OH263736   2.623   2.546  15.227 -0.0968  0.4912 -0.0179
14082TIP3    H163737   2.536   2.523  15.261  0.1251 -0.0646  0.1709
14082TIP3    H263738   2.628   2.501  15.143 -0.0166  0.5852 -0.0632
14083TIP3   OH263739   4.065   5.300   1.264  0.7022  0.2432 -0.4084
14083TIP3    H163740   4.043   5.393   1.262  0.5706  0.2315  0.1860
14083TIP3    H263741   4.064   5.273   1.173 -0.5378  0.5276 -0.4844
14084TIP3   OH263742   4.887   5.471  10.867 -0.2824  0.4146  0.1619
14084TIP3    H163743   4.828   5.468  10.942 -0.3356 -0.3233  0.0902
14084TIP3    H263744   4.974   5.452  10.903 -0.1846  0.8685  0.1664
14085TIP3   OH263745   5.106   5.932  17.060  0.4032 -0.3172 -0.4652
14085TIP3    H163746   5.083   5.847  17.022  0.4359  0.0247 -1.2693
14085TIP3    H263747   5.058   5.935  17.143  1.0286 -1.4469 -0.0491
14086TIP3   OH263748   4.557   3.867   2.852  0.3820  0.0522 -0.1784
14086TIP3    H163749   4.473   3.905   2.878  1.5520  1.5225  1.4985
14086TIP3    H263750   4.614   3.942   2.835  1.8979 -0.9407  0.4602
14087TIP3   OH263751   3.123   5.246   5.440 -0.0296  0.8368  0.3954
14087TIP3    H163752   3.029   5.242   5.457 -0.2007  0.9771 -0.4684
14087TIP3    H263753   3.155   5.316   5.496 -0.4050  0.6477  0.8467
14088TIP3   OH263754   6.034   3.127   4.238  0.3822  0.1225 -0.1442
14088TIP3    H163755   6.061   3.083   4.319 -1.0674  0.6245  0.6253
14088TIP3    H263756   5.940   3.142   4.248  0.8498  3.5716 -0.2953
14089TIP3   OH263757   4.353   4.924  11.936 -0.3314 -0.0242  0.1429
14089TIP3    H163758   4.369   5.018  11.942  0.7611 -0.2599  0.9540
14089TIP3    H263759   4.417   4.892  11.872 -1.1532 -0.1196 -0.6492
14090TIP3   OH263760   0.540   3.601  11.466  0.1916  0.2817 -0.1108
14090TIP3    H163761   0.628   3.578  11.494  0.0739  0.7844  0.6746
14090TIP3    H263762   0.548   3.691  11.432  0.1826 -0.0411 -0.9755
14091TIP3   OH263763   4.912   1.177  15.394  0.3975  0.0442  0.2405
14091TIP3    H163764   4.954   1.247  15.344  1.6200 -0.4697  0.5294
14091TIP3    H263765   4.863   1.128  15.329 -0.2677  1.0185 -0.0059
14092TIP3   OH263766   0.829   6.310   4.355 -0.0179  0.3888 -0.4449
14092TIP3    H163767   0.848   6.330   4.446 -0.4561  1.3272 -0.5587
14092TIP3    H263768   0.898   6.249   4.329 -0.2244 -0.3455  0.6778
14093TIP3   OH263769   6.230   3.938   5.175 -0.0657  0.0476 -0.8491
14093TIP3    H163770   6.142   3.926   5.141  0.1362 -0.5893 -1.1629
14093TIP3    H263771   6.223   3.917   5.268 -0.6277  1.8271 -0.4789
14094TIP3   OH263772   5.437   0.547  13.690  0.1671  0.4402 -0.4724
14094TIP3    H163773   5.458   0.539  13.783 -1.5704  2.5922  0.1379
14094TIP3    H263774   5.422   0.456  13.662 -0.4205 -0.1477  1.6230
14095TIP3   OH263775   4.359   5.082  11.272  0.2966 -0.3216  0.1778
14095TIP3    H163776   4.403   5.066  11.355  1.0566  1.5820  0.1600
14095TIP3    H263777   4.428   5.079  11.207 -0.2397 -1.3968 -0.3514
14096TIP3   OH263778   0.269   4.921   3.466 -0.2785 -0.2684  0.1618
14096TIP3    H163779   0.246   4.834   3.498 -0.7043 -0.7860 -1.4873
14096TIP3    H263780   0.198   4.944   3.406  0.1735  0.9250  0.0762
14097TIP3   OH263781   3.290   4.832  13.686 -0.0088  0.6170 -0.1867
14097TIP3    H163782   3.247   4.880  13.615 -2.3609 -0.5389  0.4116
14097TIP3    H263783   3.283   4.890  13.762 -1.3848  0.0414  0.1375
14098TIP3   OH263784   5.245   2.321  12.744 -0.0606 -0.3600 -0.0519
14098TIP3    H163785   5.186   2.376  12.796  0.4634 -0.5195  0.7213
14098TIP3    H263786   5.212   2.329  12.654  1.0490  2.6722 -0.2723
14099TIP3   OH263787   1.876   2.933   2.027  0.2460 -0.3010 -0.1294
14099TIP3    H163788   1.789   2.926   1.987 -0.1685  0.6017  0.5869
14099TIP3    H263789   1.931   2.973   1.960  0.0633 -0.7010 -0.5187
14100TIP3   OH263790   3.199   0.937  15.499 -0.0744 -0.2028  0.1907
14100TIP3    H163791   3.177   1.017  15.547 -0.3698 -0.3565  0.3092
14100TIP3    H263792   3.117   0.909  15.460  0.5551  1.1289 -2.2270
14101TIP3   OH263793   5.059   5.273   3.427  0.2461  0.1033 -0.4523
14101TIP3    H163794   5.021   5.340   3.370  1.3522  0.8948 -0.2773
14101TIP3    H263795   4.989   5.209   3.438 -1.2916  1.8680  0.4131
14102TIP3   OH263796   5.483   4.173   4.273  0.0442 -0.4430 -0.3215
14102TIP3    H163797   5.570   4.161   4.234  0.0909 -2.1283  0.2400
14102TIP3    H263798   5.500   4.219   4.355  0.5435 -1.6832  0.2893
14103TIP3   OH263799   0.197   2.442  16.596 -0.4752  0.1274 -0.4025
14103TIP3    H163800   0.164   2.459  16.508  0.0051 -0.2794 -0.6625
14103TIP3    H263801   0.249   2.363  16.587  0.0339  0.3999  0.1436
14104TIP3   OH263802   2.900   5.717   3.505 -0.8742  0.3898  0.6202
14104TIP3    H163803   2.955   5.699   3.428 -0.4786  0.2894  0.9280
14104TIP3    H263804   2.954   5.771   3.562 -1.8804  2.1778 -0.0694
14105TIP3   OH263805   3.195   4.044   0.749  0.1375 -0.3280 -0.0008
14105TIP3    H163806   3.284   4.045   0.714  0.4183 -0.7607  0.6965
14105TIP3    H263807   3.197   3.979   0.819 -0.7678 -0.4547 -0.0840
14106TIP3   OH263808   5.081   2.772   4.759  0.1673  0.0373 -0.7722
14106TIP3    H163809   5.068   2.712   4.832 -0.7418  0.9524 -0.1687
14106TIP3    H263810   5.176   2.776   4.748  0.2352 -1.4222 -0.7525
14107TIP3   OH263811   6.531   5.035  11.451 -0.2731  0.1882  0.0911
14107TIP3    H163812   6.506   4.983  11.375  1.4690 -2.5036  1.2753
14107TIP3    H263813   6.458   5.095  11.465 -0.5298  0.9233 -3.8155
14108TIP3   OH263814   0.259   4.323   4.878 -0.7480 -0.0161 -0.0552
14108TIP3    H163815   0.187   4.366   4.924 -1.4628 -0.9546 -0.3018
14108TIP3    H263816   0.337   4.347   4.929 -1.3510  0.1778  0.7838
14109TIP3   OH263817   2.400   0.549   4.034  0.2150  0.7001 -0.0090
14109TIP3    H163818   2.323   0.501   4.065 -0.6366  1.7246 -0.5030
14109TIP3    H263819   2.371   0.593   3.954  1.0587  1.7889  0.2693
14110TIP3   OH263820   1.706   6.680  16.912 -0.3923  0.4092 -0.0145
14110TIP3    H163821   1.709   6.646  16.823 -0.3566  1.6592 -0.4919
14110TIP3    H263822   1.677   6.606  16.965 -0.9771 -0.1745 -1.1424
14111TIP3   OH263823   0.268   2.949  11.337  0.0446 -0.1113  0.2385
14111TIP3    H163824   0.246   2.891  11.409  0.8428  1.3333  1.6593
14111TIP3    H263825   0.344   2.998  11.366 -0.6612  1.7314 -0.8757
14112TIP3   OH263826   2.487   4.297   1.545  0.0826 -0.0801  0.3343
14112TIP3    H163827   2.443   4.224   1.589  0.8695 -0.3381  0.6913
14112TIP3    H263828   2.541   4.255   1.478  0.5600  0.1843  0.5591
14113TIP3   OH263829   5.814   0.599  15.736  0.2986 -0.0261 -0.0292
14113TIP3    H163830   5.834   0.507  15.755  1.2300  0.4223  1.2391
14113TIP3    H263831   5.772   0.631  15.815  0.3251  0.7384 -0.3250
14114TIP3   OH263832   5.921   1.756  11.202  0.6863  0.1990 -0.3169
14114TIP3    H163833   5.903   1.705  11.123  4.1155  0.7490 -1.5453
14114TIP3    H263834   5.843   1.809  11.215 -0.6039 -1.1642 -2.3465
14115TIP3   OH263835   5.711   0.834   3.098  0.1795  0.5401 -0.4696
14115TIP3    H163836   5.656   0.804   3.025 -0.1345  2.2341 -0.9421
14115TIP3    H263837   5.668   0.913   3.130  1.9571  1.5061 -0.3984
14116TIP3   OH263838   4.629   2.537  15.308  0.3701  0.0539 -0.0767
14116TIP3    H163839   4.697   2.481  15.271 -0.2323 -1.5473  1.1781
14116TIP3    H263840   4.587   2.578  15.232  1.2063 -0.7417 -0.9833
14117TIP3   OH263841   1.122   3.277   3.469 -0.2435  0.1253  0.6226
14117TIP3    H163842   1.124   3.182   3.457 -0.9801  0.3006 -0.9430
14117TIP3    H263843   1.163   3.290   3.555 -1.2037 -1.6880  1.4110
14118TIP3   OH263844   2.257   5.651   5.761  0.0930 -0.2959 -0.2665
14118TIP3    H163845   2.184   5.673   5.819 -1.2844 -1.5305 -1.5228
14118TIP3    H263846   2.277   5.560   5.781  2.5265  0.5344  1.3665
14119TIP3   OH263847   4.230   0.604  11.253 -0.3971 -0.1814  0.3740
14119TIP3    H163848   4.215   0.595  11.159 -2.4960 -0.7748  0.7431
14119TIP3    H263849   4.299   0.670  11.260 -1.6806  1.4098 -1.5301
14120TIP3   OH263850   4.823   2.062   6.261 -0.3021  0.0864  0.0377
14120TIP3    H163851   4.888   2.131   6.275 -1.7661  1.1911  1.5784
14120TIP3    H263852   4.865   1.983   6.297  0.7337  0.4998 -0.2353
14121TIP3   OH263853   0.682   1.354   5.622  0.6475  0.5681  0.0651
14121TIP3    H163854   0.699   1.414   5.695  0.9656 -0.1508  0.5852
14121TIP3    H263855   0.610   1.299   5.653  1.0025  0.0487 -0.0305
14122TIP3   OH263856   0.193   3.464  16.001  0.3361  0.0261  0.1271
14122TIP3    H163857   0.231   3.381  15.974 -0.0505 -0.4999  1.1570
14122TIP3    H263858   0.225   3.527  15.938 -0.8073 -1.2250 -1.7447
14123TIP3   OH263859   4.074   4.978  14.874 -0.8964 -0.1775  0.2209
14123TIP3    H163860   4.131   5.055  14.876 -0.3071 -0.6507  2.3561
14123TIP3    H263861   4.063   4.960  14.780  0.0749  1.6660 -0.2842
14124TIP3   OH263862   2.148   2.829   3.869  0.0462 -0.6036 -0.2232
14124TIP3    H163863   2.157   2.800   3.779  1.8308  2.8245 -1.2224
14124TIP3    H263864   2.232   2.806   3.910 -1.0679 -2.9455  0.8885
14125TIP3   OH263865   4.796   0.137   5.489  0.1812  0.0280  0.1563
14125TIP3    H163866   4.856   0.211   5.476  1.1678 -0.7273  0.4057
14125TIP3    H263867   4.838   0.083   5.556  0.8572 -2.2652 -2.0689
14126TIP3   OH263868   4.973   2.070  11.638 -0.3332 -0.4584 -0.5201
14126TIP3    H163869   5.053   2.018  11.624  0.2063 -0.1086  1.1970
14126TIP3    H263870   4.902   2.012  11.613  0.3988 -1.1292 -1.0760
14127TIP3   OH263871   3.551   6.510   1.114 -0.3589 -0.4769 -0.0743
14127TIP3    H163872   3.566   6.449   1.186  0.0666  1.0193  1.1317
14127TIP3    H263873   3.598   6.589   1.139  0.6495 -0.2748 -2.4925
14128TIP3   OH263874   6.783   2.134  11.696  0.2782  0.2718 -0.6745
14128TIP3    H163875   6.841   2.077  11.746 -1.3548 -1.2156 -0.4338
14128TIP3    H263876   6.841   2.182  11.638  1.6294 -2.1940 -1.4203
14129TIP3   OH263877   1.324   5.331  16.462 -0.4211  0.3748 -0.3126
14129TIP3    H163878   1.278   5.391  16.521 -0.7096  0.9071 -1.0772
14129TIP3    H263879   1.268   5.326  16.384  1.1003  1.5135 -1.5095
14130TIP3   OH263880   3.950   0.877   2.207 -0.0587  0.0332  0.1286
14130TIP3    H163881   3.964   0.885   2.113  0.2601  1.3952  0.2866
14130TIP3    H263882   4.029   0.833   2.239  1.0996  2.0669  0.1371
14131TIP3   OH263883   2.483   1.018  14.570 -0.0133 -0.0564  0.4393
14131TIP3    H163884   2.450   1.043  14.656  1.1700 -0.0135  0.8923
14131TIP3    H263885   2.405   0.989  14.521 -0.6352 -0.4332  1.6422
14132TIP3   OH263886   3.831   0.776  15.049 -0.1473  0.0674  0.0837
14132TIP3    H163887   3.810   0.719  14.975 -1.7189  2.1319 -1.1355
14132TIP3    H263888   3.893   0.840  15.014  0.5733 -0.0861  1.0652
14133TIP3   OH263889   5.495   5.948   1.995 -1.0383 -0.1215  0.1644
14133TIP3    H163890   5.543   6.011   2.048  0.1216 -0.3574 -0.5974
14133TIP3    H263891   5.524   5.862   2.028 -1.1011 -0.2618 -0.1427
14134TIP3   OH263892   6.147   5.787  15.130  0.1219  0.5608  0.6962
14134TIP3    H163893   6.210   5.799  15.201 -0.5047  2.6283  0.9463
14134TIP3    H263894   6.116   5.876  15.111 -1.6914 -0.2740 -0.3584
14135TIP3   OH263895   1.582   4.074  15.086 -0.3199 -0.2103 -0.2118
14135TIP3    H163896   1.516   4.033  15.142  0.2697  1.4549  1.7472
14135TIP3    H263897   1.542   4.158  15.061 -0.1697 -0.5135 -1.4970
14136TIP3   OH263898   3.251   0.373  15.480  0.2726 -0.2606 -0.0912
14136TIP3    H163899   3.344   0.363  15.503 -0.2294  0.7398  2.6174
14136TIP3    H263900   3.216   0.284  15.483  0.8434 -0.4760  0.3056
14137TIP3   OH263901   3.296   3.872   3.917 -0.0005 -0.0562  0.2253
14137TIP3    H163902   3.366   3.834   3.972  1.2906  1.5509 -0.2671
14137TIP3    H263903   3.316   3.842   3.829  1.6060  2.4718 -0.3322
14138TIP3   OH263904   2.006   0.876  12.123 -0.5467  0.0216  0.8517
14138TIP3    H163905   2.045   0.884  12.036 -4.4678  0.0028 -0.9731
14138TIP3    H263906   1.979   0.965  12.146 -0.6967 -0.1844  1.4936
14139TIP3   OH263907   1.848   1.278   6.819  0.3038 -0.1078  0.4179
14139TIP3    H163908   1.771   1.288   6.875 -0.3451  1.8579 -0.7972
14139TIP3    H263909   1.842   1.189   6.785 -1.4918  0.0725  0.2395
14140TIP3   OH263910   5.665   6.123  14.337  0.5157  0.7814 -0.2135
14140TIP3    H163911   5.663   6.208  14.294  2.0310  2.4324  2.7830
14140TIP3    H263912   5.612   6.136  14.416 -1.4741 -1.8745 -1.0476
14141TIP3   OH263913   5.340   3.672  11.644  0.0949  0.5234 -0.3287
14141TIP3    H163914   5.345   3.692  11.551  0.5414 -0.5177 -0.5334
14141TIP3    H263915   5.345   3.576  11.648 -3.6669  0.2688  0.4888
14142TIP3   OH263916   2.485   2.058  15.469  0.1197  0.1889 -0.1304
14142TIP3    H163917   2.468   2.004  15.545 -1.6551  2.4096  1.1269
14142TIP3    H263918   2.551   2.010  15.419  1.8118 -1.0107  3.1080
14143TIP3   OH263919   3.629   5.869  15.569  0.1414  0.0075 -0.7590
14143TIP3    H163920   3.547   5.876  15.618 -0.4577 -0.8895 -1.6123
14143TIP3    H263921   3.678   5.947  15.594 -0.3122 -0.2385  0.9702
14144TIP3   OH263922   4.066   6.451  15.521 -0.3436 -0.3424 -0.2110
14144TIP3    H163923   3.976   6.443  15.554  0.1805 -1.8338  0.9180
14144TIP3    H263924   4.055   6.473  15.429 -1.8847 -0.6433 -0.1271
14145TIP3   OH263925   3.741   2.715  14.080 -0.4784  0.4063 -0.2908
14145TIP3    H163926   3.800   2.720  14.155 -0.2272  1.1975 -0.5244
14145TIP3    H263927   3.657   2.745  14.113 -0.6141 -0.1944 -0.0888
14146TIP3   OH263928   3.102   0.101   3.888  0.2006 -0.9220 -0.2750
14146TIP3    H163929   3.155   0.132   3.962 -0.0226 -1.7545  0.2394
14146TIP3    H263930   3.167   0.077   3.821  0.4799 -2.0560  0.3971
14147TIP3   OH263931   3.632   2.931   0.682  0.4448  0.4188 -0.3125
14147TIP3    H163932   3.614   2.852   0.732  2.2204  0.7118  0.8320
14147TIP3    H263933   3.628   2.903   0.591 -1.8157 -0.3437 -0.0140
14148TIP3   OH263934   2.842   0.896  12.938  0.0310  0.5191 -0.5570
14148TIP3    H163935   2.848   0.981  12.982  0.9780  0.2925 -0.2506
14148TIP3    H263936   2.810   0.836  13.006 -2.9509  1.0928 -1.3830
14149TIP3   OH263937   4.893   3.445   4.525 -0.0709 -0.2442  0.1254
14149TIP3    H163938   4.817   3.473   4.474  0.4626  0.5205 -0.2642
14149TIP3    H263939   4.880   3.351   4.539 -0.6126 -0.3065 -0.7556
14150TIP3   OH263940   6.681   0.398  15.992 -0.2466 -0.0571  0.1068
14150TIP3    H163941   6.743   0.426  15.925 -0.7905 -0.9097 -0.7788
14150TIP3    H263942   6.643   0.317  15.956 -1.4403  0.1509  0.8890
14151TIP3   OH263943   5.841   6.374   5.282  0.0373 -0.0413 -0.7496
14151TIP3    H163944   5.856   6.368   5.187  0.3587  1.8894 -0.8382
14151TIP3    H263945   5.747   6.394   5.290 -0.4492 -2.2885 -0.5625
14152TIP3   OH263946   1.600   4.893  16.885  0.2314  0.0810 -0.0228
14152TIP3    H163947   1.671   4.829  16.884  0.7966  0.6623 -3.4305
14152TIP3    H263948   1.640   4.973  16.852 -1.6651  0.8365 -0.5333
14153TIP3   OH263949   0.912   1.703   3.909 -0.5700 -0.2666  0.2287
14153TIP3    H163950   0.998   1.703   3.952  0.4130 -0.6530 -1.6925
14153TIP3    H263951   0.912   1.782   3.856 -1.1565 -0.5956 -0.2682
14154TIP3   OH263952   5.988   6.739  16.700 -0.1226  0.0499 -0.8495
14154TIP3    H163953   5.982   6.658  16.649  1.7203 -1.1790  0.8174
14154TIP3    H263954   6.049   6.719  16.771 -0.6032  2.5264  0.3345
14155TIP3   OH263955   5.315   6.738   4.685  0.3558 -0.0020 -0.2238
14155TIP3    H163956   5.287   6.818   4.639  0.3160  0.6455  0.9111
14155TIP3    H263957   5.335   6.676   4.615 -2.1303  0.1430 -1.1067
14156TIP3   OH263958   6.450   5.419  15.860  0.0043  0.6533  0.0290
14156TIP3    H163959   6.478   5.406  15.951 -1.2947  1.2086  0.5285
14156TIP3    H263960   6.528   5.450  15.814  1.0237 -0.9162  0.6556
14157TIP3   OH263961   4.405   6.309  14.500 -0.2877  0.3460  0.5510
14157TIP3    H163962   4.470   6.370  14.465  0.5052 -1.3840 -1.0883
14157TIP3    H263963   4.430   6.298  14.592  1.9180 -0.4695 -0.1047
14158TIP3   OH263964   6.520   1.430   4.630  0.0401  0.2353  0.6288
14158TIP3    H163965   6.501   1.383   4.711  1.0168  0.4385  0.9722
14158TIP3    H263966   6.613   1.413   4.613 -0.0029  0.7080 -0.1109
14159TIP3   OH263967   1.904   1.291  10.805  0.1291 -0.0416  0.0106
14159TIP3    H163968   1.897   1.203  10.768  1.1144  0.1731 -0.7101
14159TIP3    H263969   1.968   1.283  10.876  0.4594  0.1417 -0.2591
14160TIP3   OH263970   4.128   0.666  16.036  0.0671  0.7049 -0.4064
14160TIP3    H163971   4.086   0.736  16.085 -0.2987  2.0162 -2.5469
14160TIP3    H263972   4.212   0.702  16.010  0.6564 -0.3253  0.0447
14161TIP3   OH263973   2.518   5.371  11.598  0.3340  0.1686 -0.2306
14161TIP3    H163974   2.551   5.282  11.610 -0.8802  0.0676  2.8012
14161TIP3    H263975   2.424   5.360  11.590  0.4009  1.0028 -2.6164
14162TIP3   OH263976   5.626   5.355   4.978 -0.3582  0.0154 -0.0728
14162TIP3    H163977   5.556   5.381   4.919 -1.2266 -3.1183 -0.4998
14162TIP3    H263978   5.583   5.306   5.048  1.1954 -0.4147  0.6186
14163TIP3   OH263979   4.140   1.529  16.252  0.1035  0.7112  0.1550
14163TIP3    H163980   4.091   1.582  16.315  1.9204 -0.4119  2.6350
14163TIP3    H263981   4.127   1.573  16.168 -1.7100  2.7720  1.4476
14164TIP3   OH263982   5.999   1.738  13.837  0.2531 -0.1086  0.2224
14164TIP3    H163983   6.037   1.699  13.916 -1.2557 -0.6921  0.6841
14164TIP3    H263984   5.986   1.664  13.777  1.0591  0.2779 -0.4362
14165TIP3   OH263985   2.624   1.721   0.211  0.7768 -0.2380 -0.2644
14165TIP3    H163986   2.604   1.709   0.303  1.9039  0.1323  0.0424
14165TIP3    H263987   2.680   1.647   0.188  0.4928 -0.3350 -0.6517
14166TIP3   OH263988   1.359   1.446  13.786  0.3033 -0.1741 -0.1886
14166TIP3    H163989   1.386   1.445  13.878  2.2189  0.9049 -0.7176
14166TIP3    H263990   1.271   1.408  13.787  0.5742 -0.8438  1.9928
14167TIP3   OH263991   3.402   0.284  12.472 -0.1575  0.0750  0.3102
14167TIP3    H163992   3.459   0.351  12.435 -1.0721  0.2033 -0.9099
14167TIP3    H263993   3.370   0.235  12.396 -2.7766  0.9183  0.8249
14168TIP3   OH263994   1.077   1.865   0.817  0.3486  0.1847  0.0028
14168TIP3    H163995   1.057   1.788   0.764  1.8835  0.4678 -1.0176
14168TIP3    H263996   1.073   1.833   0.907 -3.1841 -0.0815 -0.1670
14169TIP3   OH263997   4.090   3.951  16.290  0.4618  0.3585 -0.0111
14169TIP3    H163998   4.126   3.999  16.364  0.5476  1.3478 -0.6879
14169TIP3    H263999   4.061   3.867  16.327  0.2874  0.9371  1.1725
14170TIP3   OH264000   5.082   2.344  17.169  0.6351 -0.5418  0.5625
14170TIP3    H164001   5.000   2.318  17.212  0.0827  1.6095  0.8581
14170TIP3    H264002   5.062   2.337  17.075  0.1723 -0.1691  0.6322
14171TIP3   OH264003   1.809   4.101   1.480 -0.4027 -0.4405  0.2294
14171TIP3    H164004   1.772   4.047   1.410 -0.7330  0.4073 -0.2602
14171TIP3    H264005   1.901   4.074   1.485 -0.0217  0.4639 -1.4911
14172TIP3   OH264006   6.716   2.599   0.566  0.4067 -0.0076  0.1757
14172TIP3    H164007   6.671   2.541   0.505  0.2925 -0.1145  0.3584
14172TIP3    H264008   6.654   2.609   0.639  0.6929 -0.1754  0.4399
14173TIP3   OH264009   0.721   4.135  12.004 -0.6366 -0.1826  0.2775
14173TIP3    H164010   0.703   4.227  11.985 -1.3482 -0.5044 -0.6946
14173TIP3    H264011   0.640   4.090  11.979  0.5966 -1.3828 -1.7651
14174TIP3   OH264012   0.698   3.190  12.574  0.3420 -0.7843 -0.1157
14174TIP3    H164013   0.794   3.185  12.574  0.4364  0.9084  0.0726
14174TIP3    H264014   0.670   3.115  12.627  1.6413  0.0076  1.7451
14175TIP3   OH264015   1.046   6.403  16.586  0.2407 -0.2866 -0.0292
14175TIP3    H164016   1.088   6.423  16.670  0.6682 -1.6133  0.0886
14175TIP3    H264017   1.117   6.410  16.522  0.5794 -2.1631  0.1213
14176TIP3   OH264018   6.430   2.318   3.936  0.2898  0.4536  0.9166
14176TIP3    H164019   6.374   2.372   3.992  0.3460 -0.4706  1.8944
14176TIP3    H264020   6.484   2.380   3.888 -0.5856  1.3054  1.0167
14177TIP3   OH264021   4.529   4.988  11.458 -0.7644 -0.0980 -0.3648
14177TIP3    H164022   4.567   4.914  11.411  1.2774  0.5178  0.2623
14177TIP3    H264023   4.443   4.958  11.486 -0.6249 -1.6338 -1.5913
14178TIP3   OH264024   2.756   6.596  16.534 -0.7442  0.1503  0.1808
14178TIP3    H164025   2.707   6.642  16.466  1.0657  1.4443 -0.3120
14178TIP3    H264026   2.792   6.519  16.490 -2.0501 -0.6113  0.4552
14179TIP3   OH264027   3.224   6.014   1.659  0.3946  0.0710  0.2002
14179TIP3    H164028   3.283   6.041   1.588  0.4805 -0.1442  0.1901
14179TIP3    H264029   3.144   5.986   1.614  1.4205 -2.7281 -0.0197
14180TIP3   OH264030   5.855   1.915   2.243 -0.2058  0.4451 -0.5985
14180TIP3    H164031   5.829   1.860   2.318  3.3036 -0.0615  0.3566
14180TIP3    H264032   5.911   1.982   2.281  0.9613  0.6772 -2.6604
14181TIP3   OH264033   3.814   3.490   4.403  0.8114 -0.3497  0.4454
14181TIP3    H164034   3.725   3.455   4.415  0.8861 -1.2233 -1.4737
14181TIP3    H264035   3.863   3.458   4.479 -0.2942 -0.5309  1.0958
14182TIP3   OH264036   1.743   4.842   4.622  0.0099  0.2319  0.8417
14182TIP3    H164037   1.728   4.837   4.717 -1.3104 -0.3293  0.6230
14182TIP3    H264038   1.664   4.802   4.584 -0.0401  1.6080 -0.5226
14183TIP3   OH264039   1.496   0.896   2.146 -0.6353 -0.1851  1.2542
14183TIP3    H164040   1.453   0.895   2.061  0.5865  2.4101  0.5554
14183TIP3    H264041   1.424   0.889   2.209 -1.4895 -3.1388  0.0829
14184TIP3   OH264042   0.731   1.906  13.714  0.6036  0.1189 -0.3988
14184TIP3    H164043   0.653   1.924  13.766  0.3738 -1.2421 -0.2648
14184TIP3    H264044   0.711   1.825  13.667  2.5571 -1.1845  0.9288
14185TIP3   OH264045   5.942   0.068   3.260 -0.2297 -0.7400  0.6940
14185TIP3    H164046   5.886  -0.005   3.284  0.7271 -0.9164  2.4725
14185TIP3    H264047   5.974   0.103   3.343 -0.4677  1.5548 -0.1274
14186TIP3   OH264048   1.245   6.206   1.900  0.0935 -0.4386  0.5907
14186TIP3    H164049   1.245   6.152   1.821 -0.7153 -0.7648  0.8076
14186TIP3    H264050   1.265   6.144   1.971 -0.0887 -0.3162  0.7486
14187TIP3   OH264051   1.169   1.582  11.535  0.0352 -0.3827 -0.3456
14187TIP3    H164052   1.252   1.536  11.534 -0.2812 -0.9691 -1.7176
14187TIP3    H264053   1.178   1.650  11.468  0.3546  1.3026  1.3831
14188TIP3   OH264054   3.427   3.480   0.909  0.1520 -0.9926  0.5268
14188TIP3    H164055   3.377   3.445   0.982 -0.0973  0.2926  0.9891
14188TIP3    H264056   3.361   3.512   0.848  0.3896 -0.4184  0.5707
14189TIP3   OH264057   5.996   3.386  12.003  0.1084  0.0671 -0.3880
14189TIP3    H164058   5.994   3.482  12.002  1.1826  0.2059  2.8818
14189TIP3    H264059   5.907   3.359  11.985 -0.6698  1.7816  0.7375
14190TIP3   OH264060   2.158   4.867   6.537 -0.0827  0.3479  0.4692
14190TIP3    H164061   2.171   4.803   6.468 -0.9650 -0.4199  1.0060
14190TIP3    H264062   2.090   4.926   6.503 -3.8393 -2.6367  2.3939
14191TIP3   OH264063   2.818   4.139  15.665 -0.6239  0.2595  0.2730
14191TIP3    H164064   2.790   4.186  15.744 -0.4599  0.0900  0.4339
14191TIP3    H264065   2.797   4.048  15.683 -1.1048  0.2939 -0.1137
14192TIP3   OH264066   4.531   0.590  14.264 -0.7166  0.3537 -0.3024
14192TIP3    H164067   4.598   0.617  14.201  2.0405 -2.6150  1.1921
14192TIP3    H264068   4.463   0.548  14.210  1.2871 -1.5401 -1.4358
14193TIP3   OH264069   1.952   6.257  11.625 -0.3162 -0.1514  0.0304
14193TIP3    H164070   1.977   6.266  11.533  0.1724  0.9054  0.2502
14193TIP3    H264071   1.857   6.252  11.624 -0.2613 -1.2006 -0.6067
14194TIP3   OH264072   6.309   6.216  15.731 -0.0268 -0.0512 -0.7201
14194TIP3    H164073   6.259   6.150  15.780 -1.0797  0.7589 -0.6651
14194TIP3    H264074   6.343   6.169  15.655  3.1196 -1.7677  1.6387
14195TIP3   OH264075   3.848   2.378   1.662  0.3316  0.2982 -0.2083
14195TIP3    H164076   3.904   2.400   1.587  0.0661 -0.5323 -0.6514
14195TIP3    H264077   3.781   2.320   1.626  0.8148 -0.9607  0.8693
14196TIP3   OH264078   0.673   6.067  13.045  0.5688  0.0804  0.0968
14196TIP3    H164079   0.729   6.095  13.117  1.9228 -1.3974 -0.3536
14196TIP3    H264080   0.667   6.144  12.988  1.7488  0.4051  0.3955
14197TIP3   OH264081   5.736   5.770  15.912  0.4586 -0.3648  0.3242
14197TIP3    H164082   5.715   5.847  15.859  2.6494 -0.1897 -0.3289
14197TIP3    H264083   5.653   5.723  15.919 -0.3236  0.6688 -1.5434
14198TIP3   OH264084   5.672   0.442  12.515 -0.4109 -0.5534 -0.1194
14198TIP3    H164085   5.758   0.483  12.500 -0.9258  0.6387  0.1829
14198TIP3    H264086   5.611   0.496  12.465 -1.2884 -0.1612  1.3720
14199TIP3   OH264087   4.871   0.908  14.860 -0.7749 -0.4424 -0.0506
14199TIP3    H164088   4.784   0.874  14.837 -1.1141  1.0688 -1.0737
14199TIP3    H264089   4.915   0.920  14.776  0.0012 -0.0901  0.4015
14200TIP3   OH264090   3.532   4.515  13.500  0.1749 -0.3593 -0.2819
14200TIP3    H164091   3.455   4.463  13.477  0.5231 -1.4059  0.9132
14200TIP3    H264092   3.607   4.464  13.469  0.5656 -1.0105  1.6513
14201TIP3   OH264093   2.031   5.052   5.424  1.3152  0.0971  0.2042
14201TIP3    H164094   1.967   5.006   5.479 -1.1470  2.3233 -0.6592
14201TIP3    H264095   2.053   5.130   5.474  0.7468  1.0301 -0.9818
14202TIP3   OH264096   5.021   2.746  15.410 -0.0388  0.5907 -0.1065
14202TIP3    H164097   5.008   2.676  15.474 -1.8322  0.8053 -0.2114
14202TIP3    H264098   5.059   2.818  15.461 -1.3244  0.7129  0.7036
14203TIP3   OH264099   0.191   0.976   6.236  0.1589  0.2603 -0.4601
14203TIP3    H164100   0.258   0.949   6.174 -0.0135 -2.3685  0.4352
14203TIP3    H264101   0.233   0.966   6.322 -1.1078 -0.6924  0.0625
14204TIP3   OH264102   1.978   5.339   5.507 -0.0322 -0.5136 -0.5135
14204TIP3    H164103   1.912   5.402   5.478 -0.9099 -0.9693  0.4616
14204TIP3    H264104   1.963   5.330   5.601  2.1935  0.2735 -0.0584
14205TIP3   OH264105   5.667   3.488  13.024  0.0235 -0.1900  0.1885
14205TIP3    H164106   5.648   3.432  12.949  0.8037  2.5050 -2.1201
14205TIP3    H264107   5.581   3.508  13.062 -0.2665 -2.7837  0.9850
14206TIP3   OH264108   6.182   0.136   0.642 -0.4272 -0.3907 -0.0619
14206TIP3    H164109   6.218   0.053   0.673  0.2639  0.0545  0.3326
14206TIP3    H264110   6.252   0.199   0.656 -1.4156  0.5148  0.8504
14207TIP3   OH264111   5.477   1.726  12.612  0.1407  0.2617  0.1982
14207TIP3    H164112   5.407   1.777  12.652 -0.5427 -0.2917 -0.2876
14207TIP3    H264113   5.545   1.790  12.593 -0.1559  0.7739  0.8386
14208TIP3   OH264114   0.666   2.815  14.031 -0.2939  0.4149 -0.5744
14208TIP3    H164115   0.635   2.888  14.084 -1.6182  1.7736 -3.1014
14208TIP3    H264116   0.621   2.826  13.947  2.7422 -0.8486 -2.4399
14209TIP3   OH264117   1.761   6.302  15.689  0.1404  0.4014  0.0704
14209TIP3    H164118   1.839   6.262  15.651 -0.3977  0.6605 -1.3170
14209TIP3    H264119   1.749   6.255  15.772 -0.0046 -1.7803 -1.1270
14210TIP3   OH264120   4.652   3.122  12.253 -0.4104  0.2620 -0.7181
14210TIP3    H164121   4.604   3.180  12.312  0.0009  0.2972 -0.4170
14210TIP3    H264122   4.620   3.145  12.166 -1.1371  0.0980 -0.4949
14211TIP3   OH264123   5.891   4.488  14.474 -0.3231  0.2403  0.0555
14211TIP3    H164124   5.805   4.472  14.436 -0.1447 -1.7171  0.4479
14211TIP3    H264125   5.921   4.402  14.505  1.4641  1.0124  0.5603
14212TIP3   OH264126   1.569   5.597   5.290 -0.2076 -0.1169  0.2528
14212TIP3    H164127   1.483   5.603   5.249 -0.9066 -2.9406  1.1273
14212TIP3    H264128   1.570   5.668   5.354 -2.3810 -0.7411  1.0255
14213TIP3   OH264129   3.673   4.778   1.830 -0.7768 -0.6816 -0.5775
14213TIP3    H164130   3.739   4.764   1.762  0.1409  1.3022 -0.1337
14213TIP3    H264131   3.610   4.836   1.789  1.3422  3.0038  1.1561
14214TIP3   OH264132   2.523   2.875  11.906 -0.4631  0.3009 -0.3387
14214TIP3    H164133   2.614   2.874  11.937 -0.8395 -0.4883  0.7705
14214TIP3    H264134   2.480   2.938  11.963 -0.7724  0.1208 -0.3754
14215TIP3   OH264135   3.394   2.008  14.142 -0.1180 -0.1631 -0.0540
14215TIP3    H164136   3.457   2.012  14.070  0.0380  0.8072  0.1291
14215TIP3    H264137   3.427   2.071  14.206  0.1994 -1.6115  1.2378
14216TIP3   OH264138   1.012   6.189   0.618  0.0884  0.3624  0.4206
14216TIP3    H164139   1.040   6.278   0.641  0.8132 -0.3463  2.3886
14216TIP3    H264140   0.933   6.202   0.565  0.3391  2.1892  0.4502
14217TIP3   OH264141   2.840   2.758  12.353 -0.2918  0.1274  0.6670
14217TIP3    H164142   2.918   2.751  12.297 -1.2010 -0.7348 -0.5220
14217TIP3    H264143   2.842   2.847  12.386  1.5901 -0.0849  1.2252
14218TIP3   OH264144   1.454   2.038  15.907  0.2184 -0.1473  0.3396
14218TIP3    H164145   1.417   2.064  15.992 -2.1563 -2.0125 -0.1122
14218TIP3    H264146   1.456   1.943  15.909  0.0421 -0.2166 -1.7731
14219TIP3   OH264147   2.675   3.994  12.057  0.4708 -0.2555  0.4619
14219TIP3    H164148   2.747   4.020  12.114 -0.1602  0.3015  1.0158
14219TIP3    H264149   2.642   4.076  12.021 -0.3563 -0.4359  0.7953
14220TIP3   OH264150   0.950   4.063   5.937 -0.1430  0.6595  0.4607
14220TIP3    H164151   1.021   4.031   5.880 -2.0879  1.5965 -2.6514
14220TIP3    H264152   0.935   3.992   5.999  2.6287 -0.0658  0.3649
14221TIP3   OH264153   1.628   0.860  16.584 -0.2342 -0.4843 -0.1048
14221TIP3    H164154   1.569   0.837  16.657  1.2669 -1.5323  0.7927
14221TIP3    H264155   1.698   0.795  16.588  1.5031  1.3232 -0.5715
14222TIP3   OH264156   6.450   4.474  10.404 -0.0389  0.3436  0.1071
14222TIP3    H164157   6.459   4.400  10.345  1.4005  0.1945  0.4969
14222TIP3    H264158   6.356   4.493  10.404 -0.7055 -2.7144  1.5389
14223TIP3   OH264159   4.695   3.483   0.302 -0.1245  0.6722 -0.2005
14223TIP3    H164160   4.742   3.532   0.369 -0.1082 -1.0811  1.1094
14223TIP3    H264161   4.748   3.404   0.288 -0.8583  0.3546 -1.2430
14224TIP3   OH264162   0.552   5.790   1.138 -0.2778 -0.3693  0.6062
14224TIP3    H164163   0.475   5.832   1.177 -0.3689  1.7804 -1.7584
14224TIP3    H264164   0.530   5.784   1.044  1.1819 -2.5613  0.3834
14225TIP3   OH264165   1.088   0.114  17.139  0.0690  0.2812  0.3731
14225TIP3    H164166   1.029   0.056  17.091  0.0522  1.6760 -1.3634
14225TIP3    H264167   1.078   0.199  17.096  1.1372  1.2385  1.9593
14226TIP3   OH264168   1.633   0.354   2.877 -0.3670 -0.9445  0.0706
14226TIP3    H164169   1.560   0.376   2.935 -0.5265  1.9938 -1.1635
14226TIP3    H264170   1.701   0.418   2.898  0.4446 -1.3135 -1.3875
14227TIP3   OH264171   6.581   3.763  15.645 -0.5568 -0.2534  0.5399
14227TIP3    H164172   6.549   3.847  15.613 -0.1735 -0.2981  0.0354
14227TIP3    H264173   6.629   3.726  15.571  0.4525 -0.2920  1.2055
14228TIP3   OH264174   5.425   1.694   1.347 -0.3123 -0.7491  0.1465
14228TIP3    H164175   5.463   1.779   1.323  0.0792 -0.7886  0.6157
14228TIP3    H264176   5.331   1.705   1.333 -0.6087  0.6860  2.8605
14229TIP3   OH264177   2.937   0.416  12.336 -0.2162  0.6432 -0.2571
14229TIP3    H164178   2.994   0.442  12.264  0.2040  0.4316 -0.0026
14229TIP3    H264179   2.997   0.389  12.406 -0.6109  1.2863  0.3336
14230TIP3   OH264180   3.642   5.780   5.768 -0.2239 -0.6153 -0.1002
14230TIP3    H164181   3.552   5.757   5.745 -0.6648  1.0800 -0.1677
14230TIP3    H264182   3.644   5.776   5.864 -0.1960 -1.2901 -0.1310
14231TIP3   OH264183   3.318   3.320  17.291  0.1338  0.0680  0.1952
14231TIP3    H164184   3.331   3.267  17.213  0.0010  0.3758 -0.0372
14231TIP3    H264185   3.316   3.257  17.363  0.0505 -0.2344 -0.0735
14232TIP3   OH264186   2.514   6.291  13.398 -0.1985 -0.5945 -0.3102
14232TIP3    H164187   2.519   6.355  13.469  0.2487  0.4402 -1.2720
14232TIP3    H264188   2.513   6.343  13.318  1.8840 -1.8475 -1.1755
14233TIP3   OH264189   4.078   0.040   2.828 -0.3626 -0.0199 -0.4897
14233TIP3    H164190   4.139   0.111   2.808  0.9785 -1.0018 -0.0042
14233TIP3    H264191   4.093  -0.024   2.759  0.0063 -0.7800  0.2851
14234TIP3   OH264192   0.980   0.466  15.656  0.5444 -0.3000 -0.0784
14234TIP3    H164193   0.942   0.423  15.579  0.6311 -1.2580  0.4153
14234TIP3    H264194   0.916   0.451  15.726  1.3646 -1.0795  0.5097
14235TIP3   OH264195   5.178   0.325  11.908 -0.5164 -0.5548 -0.0284
14235TIP3    H164196   5.179   0.282  11.994  1.0458  1.6353  1.0824
14235TIP3    H264197   5.260   0.297  11.866 -0.0876  0.3340  0.2036
14236TIP3   OH264198   4.266   2.572   0.933  0.0602 -0.3888 -0.1766
14236TIP3    H164199   4.176   2.586   0.903 -0.1424 -0.6099  0.3317
14236TIP3    H264200   4.319   2.587   0.854 -0.3228  0.9771 -0.1950
14237TIP3   OH264201   6.494   3.876   3.723  0.6737 -0.1657 -0.0687
14237TIP3    H164202   6.516   3.786   3.747 -0.0675  0.1864  2.0300
14237TIP3    H264203   6.430   3.903   3.789  2.2715  2.5339  0.4229
14238TIP3   OH264204   5.333   2.627   2.146  0.0336  0.4006  0.0407
14238TIP3    H164205   5.291   2.710   2.170  1.6322  1.8379 -2.0334
14238TIP3    H264206   5.305   2.611   2.056  0.9353 -0.5825 -0.0755
14239TIP3   OH264207   0.980   3.148  10.292  0.1875 -0.1378 -0.1650
14239TIP3    H164208   1.061   3.102  10.267  0.3391  0.2200 -0.3499
14239TIP3    H264209   0.919   3.079  10.317  0.7762 -0.3682  0.6348
14240TIP3   OH264210   3.137   2.850   2.419 -0.1315  0.2801  0.4010
14240TIP3    H164211   3.138   2.786   2.491 -2.1575  1.0686  1.1762
14240TIP3    H264212   3.062   2.824   2.366  0.2761  0.7988 -0.4305
14241TIP3   OH264213   0.837   6.561  17.024 -0.0839 -0.3135  0.7492
14241TIP3    H164214   0.877   6.643  16.994 -0.0566 -0.9787 -1.0758
14241TIP3    H264215   0.773   6.589  17.090  0.7944  1.0680  1.0436
14242TIP3   OH264216   0.401   2.371  10.478  0.5249  0.5675 -0.2797
14242TIP3    H164217   0.488   2.371  10.517  0.4257  0.3484 -0.0612
14242TIP3    H264218   0.341   2.364  10.552  0.1670  4.4655 -0.1227
14243TIP3   OH264219   0.085   0.894  15.499 -0.0872  0.4807 -0.6484
14243TIP3    H164220   0.057   0.806  15.472 -1.7484 -0.0612  2.5985
14243TIP3    H264221   0.039   0.953  15.439 -0.7732 -0.7740 -1.3783
14244TIP3   OH264222   4.787   1.717  14.490  0.0936 -0.2637  0.1092
14244TIP3    H164223   4.865   1.733  14.436  0.0835  0.7539  0.3852
14244TIP3    H264224   4.765   1.803  14.526 -2.2869 -0.1496 -1.5057
14245TIP3   OH264225   3.967   3.050  14.203 -0.3850  0.1291 -0.3458
14245TIP3    H164226   3.930   3.096  14.127  1.0078  0.3891 -0.8768
14245TIP3    H264227   4.060   3.040  14.182  0.1663  0.9139  1.6921
14246TIP3   OH264228   3.918   2.231   0.928 -0.2508 -0.5952 -0.0469
14246TIP3    H164229   3.890   2.267   0.844  0.1576 -1.4113 -0.5322
14246TIP3    H264230   3.982   2.294   0.961 -0.5144 -0.2023 -0.2741
14247TIP3   OH264231   0.755   3.504  13.375  0.0491  0.2989  0.0258
14247TIP3    H164232   0.722   3.535  13.291 -0.6917  0.7698  0.4918
14247TIP3    H264233   0.682   3.456  13.414  0.4128  0.0224  0.3730
14248TIP3   OH264234   5.139   2.055  12.581 -0.0828 -0.0077 -0.1510
14248TIP3    H164235   5.203   2.044  12.512 -0.5112  0.3637 -0.6198
14248TIP3    H264236   5.140   1.973  12.630  1.7708  0.5206  0.7256
14249TIP3   OH264237   6.323   4.733  10.872 -0.2145 -0.5003  0.0757
14249TIP3    H164238   6.238   4.762  10.904 -0.4380 -1.7090  0.6122
14249TIP3    H264239   6.372   4.814  10.857 -1.3002  0.1850  0.1855
14250TIP3   OH264240   5.904   4.582  14.158  0.3858  0.8025 -0.1962
14250TIP3    H164241   5.840   4.522  14.197 -0.9735  2.1671 -0.2845
14250TIP3    H264242   5.910   4.554  14.067  0.2019  0.4262 -0.0947
14251TIP3   OH264243   1.150   2.487  11.061 -0.1575  0.2992 -0.0809
14251TIP3    H164244   1.185   2.398  11.050  1.4853  0.9190  0.0429
14251TIP3    H264245   1.069   2.486  11.011  0.2895 -1.0317 -0.8215
14252TIP3   OH264246   5.385   5.538  14.668  0.0445  0.3934  0.4740
14252TIP3    H164247   5.329   5.603  14.710 -0.3164  0.2856  0.1585
14252TIP3    H264248   5.384   5.562  14.575  1.9362  1.4703  0.6994
14253TIP3   OH264249   1.072   0.587  16.668 -0.1797 -0.5229  0.5457
14253TIP3    H164250   1.132   0.659  16.688  0.1754 -0.5577 -0.3790
14253TIP3    H264251   1.068   0.537  16.749 -0.2132  0.3771  1.1118
14254TIP3   OH264252   0.521   1.341   0.504  0.8429  0.1794  0.1973
14254TIP3    H164253   0.516   1.409   0.437  0.2798  0.5599  0.6169
14254TIP3    H264254   0.550   1.387   0.583  0.3550 -0.0407  0.5072
14255TIP3   OH264255   5.886   1.785   3.544 -0.3619 -0.1858 -0.2737
14255TIP3    H164256   5.980   1.805   3.538 -0.4693  1.1942  1.9757
14255TIP3    H264257   5.879   1.730   3.623 -1.3978 -0.7350 -0.7400
14256TIP3   OH264258   0.392   6.659   1.142 -0.1413  0.2576 -0.0141
14256TIP3    H164259   0.355   6.610   1.068 -1.1406  1.2756 -0.2085
14256TIP3    H264260   0.410   6.746   1.106 -0.6283  0.7564  0.9289
14257TIP3   OH264261   6.602   5.194  12.904  0.3694  0.3004  0.8330
14257TIP3    H164262   6.514   5.233  12.910 -0.9184 -2.3609  0.0092
14257TIP3    H264263   6.619   5.187  12.811  1.1692  0.1821  0.9894
14258TIP3   OH264264   4.880   1.282   3.793 -0.0478  0.1161  0.1985
14258TIP3    H164265   4.832   1.321   3.720 -0.4916  0.4791  0.6829
14258TIP3    H264266   4.863   1.188   3.785 -1.3017  0.2894  0.6885
14259TIP3   OH264267   1.447   3.846  16.454  0.4534  0.0504  1.0201
14259TIP3    H164268   1.406   3.925  16.419 -0.4032 -0.0127  1.8734
14259TIP3    H264269   1.376   3.783  16.461  1.0069 -0.5910  0.9690
14260TIP3   OH264270   1.838   5.159   4.596 -0.1751  0.0143  0.8990
14260TIP3    H164271   1.743   5.145   4.600 -0.1508  0.2660  2.9329
14260TIP3    H264272   1.873   5.094   4.658  0.8387  1.0640  1.4222
14261TIP3   OH264273   0.904   4.488   1.608 -0.4125 -0.1363  0.7814
14261TIP3    H164274   0.959   4.560   1.637  1.2164 -1.8362  2.0544
14261TIP3    H264275   0.816   4.512   1.637  0.0421  1.4811  0.8771
14262TIP3   OH264276   1.048   2.338   4.549  0.4268 -0.2247 -0.0122
14262TIP3    H164277   1.103   2.294   4.485  1.0684 -0.6129  0.8009
14262TIP3    H264278   1.041   2.276   4.622 -1.0904 -0.1904 -0.1081
14263TIP3   OH264279   0.760   2.171  12.776 -0.4575 -0.1774 -0.1491
14263TIP3    H164280   0.698   2.231  12.817 -0.5267  0.0531 -0.5844
14263TIP3    H264281   0.728   2.161  12.686  0.7624  0.8290 -0.7169
14264TIP3   OH264282   1.504   2.749   2.026 -0.1857 -0.7568 -0.3904
14264TIP3    H164283   1.508   2.701   2.108 -0.0060 -1.1686 -0.6363
14264TIP3    H264284   1.453   2.692   1.968  1.4497 -1.4209 -1.1964
14265TIP3   OH264285   4.694   1.359   3.137  0.0087  0.7600 -0.1671
14265TIP3    H164286   4.660   1.364   3.048 -0.3503  0.7051 -0.0330
14265TIP3    H264287   4.643   1.290   3.179  1.0118 -0.0556 -0.2817
14266TIP3   OH264288   3.443   3.505  14.468  0.7411 -0.0231  0.3131
14266TIP3    H164289   3.410   3.586  14.430  0.9331 -0.2686 -0.3772
14266TIP3    H264290   3.536   3.504  14.445  0.7203 -0.4849  0.2482
14267TIP3   OH264291   4.593   0.217  11.813 -0.1842 -0.1315 -0.2009
14267TIP3    H164292   4.595   0.251  11.903 -1.5776  0.4332 -0.3724
14267TIP3    H264293   4.535   0.141  11.818  2.2281 -2.0599  0.0014
14268TIP3   OH264294   5.078   5.275  13.691  0.4840  0.1711  0.0397
14268TIP3    H164295   5.103   5.198  13.742 -0.0913  1.0721  1.6926
14268TIP3    H264296   5.161   5.314  13.664  0.8090  0.3357  1.2662
14269TIP3   OH264297   0.539   0.136   4.807 -0.3852 -0.5296 -0.8002
14269TIP3    H164298   0.507   0.052   4.775  1.1314 -0.9604 -1.2156
14269TIP3    H264299   0.598   0.113   4.879 -0.5000  0.2176 -0.4634
14270TIP3   OH264300   4.472   3.299  13.485  0.4108 -0.4645 -0.1395
14270TIP3    H164301   4.510   3.277  13.570 -0.0381 -1.6932 -0.2567
14270TIP3    H264302   4.428   3.220  13.457  0.6907 -0.1170 -1.5957
14271TIP3   OH264303   6.319   1.715  14.927 -0.0532  0.1260 -0.5644
14271TIP3    H164304   6.272   1.692  15.007 -2.2115 -0.8659 -2.0777
14271TIP3    H264305   6.399   1.664  14.931 -2.3858 -3.7914 -1.3388
14272TIP3   OH264306   4.271   2.885   4.328  0.1427  0.0811  0.7404
14272TIP3    H164307   4.244   2.947   4.260  0.0587 -0.5710  0.1670
14272TIP3    H264308   4.231   2.917   4.408 -0.3791  0.4376  0.3370
14273TIP3   OH264309   4.260   2.125   3.868  0.5056  0.3058 -0.3347
14273TIP3    H164310   4.267   2.066   3.793 -0.8606 -2.0193  1.3058
14273TIP3    H264311   4.232   2.069   3.940  1.8578  2.4752  1.9543
14274TIP3   OH264312   3.990   2.967   0.379  0.2227  0.5471  0.0167
14274TIP3    H164313   3.898   2.960   0.354  0.9715  0.2857 -2.8301
14274TIP3    H264314   4.033   2.894   0.334  1.9973  1.3428  0.3781
14275TIP3   OH264315   0.628   2.081   2.305  0.6205  0.0764 -0.0984
14275TIP3    H164316   0.562   2.015   2.328 -0.0753  1.1103  0.9785
14275TIP3    H264317   0.579   2.148   2.258  0.9734  0.6572  0.3508
14276TIP3   OH264318   2.937   2.708  16.465  0.8788 -0.3939 -0.1125
14276TIP3    H164319   2.983   2.735  16.386  0.5568 -0.5089 -0.3401
14276TIP3    H264320   2.979   2.757  16.536  2.1610 -1.3993 -0.1623
14277TIP3   OH264321   6.687   6.015   5.770  0.4538 -0.6567 -0.6880
14277TIP3    H164322   6.637   6.097   5.767  0.5660 -0.6159 -2.9182
14277TIP3    H264323   6.696   5.995   5.863  1.1244  2.3074 -0.0518
14278TIP3   OH264324   5.681   3.574  12.550 -0.0804  0.6017 -0.1511
14278TIP3    H164325   5.647   3.663  12.555  0.0429  0.8349 -2.6993
14278TIP3    H264326   5.672   3.550  12.457  1.5652 -1.3558  0.1575
14279TIP3   OH264327   5.820   1.312   2.582 -0.3063 -0.2547 -1.1127
14279TIP3    H164328   5.755   1.245   2.605 -0.4196 -0.0073 -0.7125
14279TIP3    H264329   5.879   1.267   2.521 -0.7952 -0.5049 -1.4042
14280TIP3   OH264330   0.154   4.041  11.468  0.1951  0.0862  0.0299
14280TIP3    H164331   0.112   4.104  11.527  0.8070  0.2557  0.2877
14280TIP3    H264332   0.206   4.095  11.409  0.6300 -0.1670  0.1788
14281TIP3   OH264333   0.245   3.670   5.712 -0.1050  0.0429  0.1490
14281TIP3    H164334   0.315   3.683   5.647  0.1655 -0.6719  0.2857
14281TIP3    H264335   0.279   3.709   5.792 -1.5847  3.4678 -0.8013
14282TIP3   OH264336   5.675   4.160  15.855 -0.2867 -0.3157  0.7421
14282TIP3    H164337   5.690   4.227  15.922  0.6458  1.9524 -1.6378
14282TIP3    H264338   5.606   4.196  15.799 -0.2250 -1.6120 -0.2010
14283TIP3   OH264339   3.669   0.981   5.433  0.3808 -0.4437  0.6429
14283TIP3    H164340   3.757   0.975   5.469  1.7714  2.7871 -2.0094
14283TIP3    H264341   3.674   0.935   5.350  0.0779  1.2708 -0.3476
14284TIP3   OH264342   4.118   1.290  14.353  0.1757  0.7161 -0.1305
14284TIP3    H164343   4.069   1.256  14.279  1.3092 -0.3066 -0.4092
14284TIP3    H264344   4.152   1.213  14.398  1.1401  1.3958  0.3349
14285TIP3   OH264345   6.020   4.671   0.944 -0.8796 -0.6255  0.3407
14285TIP3    H164346   6.030   4.612   0.869  0.7655 -0.2000  0.2163
14285TIP3    H264347   6.107   4.709   0.957 -1.4085  0.1338  1.7846
14286TIP3   OH264348   6.425   5.492   5.709  0.4250 -0.0671  0.0527
14286TIP3    H164349   6.502   5.546   5.727  2.2567 -2.2265 -1.2193
14286TIP3    H264350   6.353   5.555   5.703  1.7919  1.8487  2.7415
14287TIP3   OH264351   0.077   4.226   5.660  0.3863  0.0431 -0.1439
14287TIP3    H164352   0.057   4.147   5.712  0.1684  0.9955  1.2535
14287TIP3    H264353   0.111   4.288   5.724  1.1043  0.8930 -1.3430
14288TIP3   OH264354   0.115   5.488  11.298  0.3818  0.6180 -0.1212
14288TIP3    H164355   0.145   5.489  11.207  0.1590  1.4114 -0.1918
14288TIP3    H264356   0.166   5.557  11.341 -0.5133  1.2041  0.0242
14289TIP3   OH264357   3.207   0.483   3.101  0.8274  0.4371  0.6124
14289TIP3    H164358   3.174   0.465   3.012 -0.8713 -0.1697  1.3360
14289TIP3    H264359   3.298   0.456   3.099  1.0642  1.2629 -1.2073
14290TIP3   OH264360   3.764   5.323  11.585  0.3132 -0.1157 -0.0097
14290TIP3    H164361   3.739   5.370  11.505  1.3095 -0.1282 -0.3387
14290TIP3    H264362   3.765   5.390  11.653 -0.7125 -0.1365  0.0261
14291TIP3   OH264363   0.355   2.632  14.880 -0.4989  0.6845 -0.1056
14291TIP3    H164364   0.308   2.549  14.871 -0.3551  0.6331 -0.3838
14291TIP3    H264365   0.286   2.696  14.896 -0.8665  0.9188 -2.4267
14292TIP3   OH264366   2.867   0.354   1.183 -0.3211  0.1361 -0.0118
14292TIP3    H164367   2.899   0.383   1.268  0.4574 -0.8299  0.0225
14292TIP3    H264368   2.798   0.291   1.203 -0.9286  0.7585 -0.1016
14293TIP3   OH264369   3.370   3.409  12.647 -0.4677  0.4486  0.4221
14293TIP3    H164370   3.326   3.420  12.563 -1.9254 -1.2033  0.9412
14293TIP3    H264371   3.328   3.473  12.705 -1.1705 -0.0946  0.5196
14294TIP3   OH264372   2.604   3.284   1.785 -0.5060  0.0829 -0.0261
14294TIP3    H164373   2.687   3.243   1.759 -0.4625  0.5625 -0.6431
14294TIP3    H264374   2.540   3.212   1.783 -0.2341 -0.1569 -0.1496
14295TIP3   OH264375   5.245   0.331  15.238 -0.5066 -0.0952 -0.8830
14295TIP3    H164376   5.337   0.356  15.249 -0.6188  0.4346 -1.1180
14295TIP3    H264377   5.200   0.413  15.217 -0.8942 -0.4860 -1.6252
14296TIP3   OH264378   0.589   6.261   4.218 -0.0577 -0.5544  0.0031
14296TIP3    H164379   0.672   6.270   4.265 -0.1633 -0.1550  0.1244
14296TIP3    H264380   0.547   6.347   4.230 -0.6534 -0.8811  0.2732
14297TIP3   OH264381   3.901   3.331  10.296  0.8417 -0.6452 -0.3597
14297TIP3    H164382   3.870   3.294  10.379  1.2987 -0.9936 -0.3462
14297TIP3    H264383   3.880   3.425  10.303  1.1015 -0.6310  0.2484
14298TIP3   OH264384   1.650   5.263  12.018  0.4799 -0.1343 -0.6876
14298TIP3    H164385   1.643   5.343  11.967 -1.5599  0.3197  0.2640
14298TIP3    H264386   1.622   5.193  11.958 -0.4673  0.2132 -0.6510
14299TIP3   OH264387   2.451   3.793   5.727 -0.6345 -0.5839 -0.4658
14299TIP3    H164388   2.385   3.724   5.727 -0.8487 -0.4012  0.7118
14299TIP3    H264389   2.428   3.849   5.653 -1.9944 -0.3483  0.1266
14300TIP3   OH264390   2.329   3.015  12.778 -0.2584 -0.0143  0.4645
14300TIP3    H164391   2.392   2.995  12.709 -1.4234  1.2555 -1.0067
14300TIP3    H264392   2.367   3.089  12.825  0.0726 -0.2438  0.5588
14301TIP3   OH264393   6.094   5.206  15.900  0.0083  0.5212  0.1736
14301TIP3    H164394   6.134   5.140  15.843 -1.2974  0.3372 -0.5704
14301TIP3    H264395   6.037   5.156  15.958  0.6902  0.7941  1.0706
14302TIP3   OH264396   1.804   2.069   4.184  0.3664  0.6064 -0.3912
14302TIP3    H164397   1.891   2.046   4.153 -0.0082 -0.1101 -0.9202
14302TIP3    H264398   1.744   2.015   4.132 -0.4328  1.6154 -0.5291
14303TIP3   OH264399   4.602   5.710   3.636  0.4296  0.6702 -0.4108
14303TIP3    H164400   4.523   5.724   3.584  0.5270 -2.5939 -1.5911
14303TIP3    H264401   4.666   5.772   3.601 -0.2690  0.2391 -2.5130
14304TIP3   OH264402   0.209   4.399   3.621  0.0303  0.2973  0.3949
14304TIP3    H164403   0.181   4.365   3.535  2.4298 -1.8323  0.3884
14304TIP3    H264404   0.144   4.365   3.682 -0.6161  0.2209 -0.3175
14305TIP3   OH264405   0.874   1.821  15.641 -0.0385  0.2289  0.6579
14305TIP3    H164406   0.862   1.737  15.687  0.0875 -1.2103 -1.8476
14305TIP3    H264407   0.967   1.823  15.620  0.2567  1.7503  2.0440
14306TIP3   OH264408   1.552   1.477  13.540  0.8582 -0.2159  0.5669
14306TIP3    H164409   1.564   1.553  13.597  0.9517 -0.6416  1.1157
14306TIP3    H264410   1.472   1.435  13.573 -0.9930  1.3914 -1.7027
14307TIP3   OH264411   3.490   4.619   0.508  0.1129  0.3360  0.1245
14307TIP3    H164412   3.419   4.584   0.455  1.0604  1.1392 -1.7375
14307TIP3    H264413   3.462   4.606   0.598 -1.5922 -0.9607 -0.5709
14308TIP3   OH264414   0.168   0.432  14.198 -0.4391 -0.3073 -0.1210
14308TIP3    H164415   0.133   0.519  14.180 -0.5265 -0.6333 -1.6156
14308TIP3    H264416   0.259   0.436  14.169 -0.2912 -0.5466  0.3131
14309TIP3   OH264417   5.505   4.483  12.200 -0.6786  0.4018  0.1817
14309TIP3    H164418   5.526   4.541  12.127 -0.3721  1.0506  0.7806
14309TIP3    H264419   5.590   4.447  12.227 -0.7926  0.1538  0.2129
14310TIP3   OH264420   0.653   6.643   4.295 -0.4994  0.2092 -0.2930
14310TIP3    H164421   0.684   6.721   4.340 -1.1303  0.5222 -0.3890
14310TIP3    H264422   0.619   6.587   4.364 -0.7816  0.3685 -0.2998
14311TIP3   OH264423   0.380   5.512   2.738  0.4963  0.1018  0.1119
14311TIP3    H164424   0.304   5.510   2.796  0.2726 -1.9038 -0.2264
14311TIP3    H264425   0.348   5.549   2.656  0.3165  0.9596  0.5678
14312TIP3   OH264426   1.229   5.295  15.140 -0.1013  0.4634  0.1074
14312TIP3    H164427   1.160   5.361  15.150  0.2334  0.7427  0.5398
14312TIP3    H264428   1.305   5.344  15.110  0.0616  0.2238  0.1268
14313TIP3   OH264429   0.905   2.295  11.841  0.0482  0.3104 -0.0241
14313TIP3    H164430   0.908   2.327  11.751 -0.6665 -1.8009 -0.8362
14313TIP3    H264431   0.927   2.202  11.834 -1.3132 -0.1810  1.8217
14314TIP3   OH264432   6.143   6.700   2.726 -0.5782 -0.0050 -0.0611
14314TIP3    H164433   6.188   6.623   2.760  0.0034  0.3153 -0.0948
14314TIP3    H264434   6.057   6.668   2.699 -0.8010 -0.3868  1.0925
14315TIP3   OH264435   1.048   5.396  14.642 -0.2893  0.1465 -0.1991
14315TIP3    H164436   1.097   5.395  14.724  1.8769  1.3016 -1.4474
14315TIP3    H264437   1.077   5.476  14.597 -1.7389 -0.2584 -1.9107
14316TIP3   OH264438   0.682   1.494   5.865 -0.0583  0.2703  0.2740
14316TIP3    H164439   0.739   1.552   5.916  0.9058  0.3593 -0.8836
14316TIP3    H264440   0.656   1.427   5.927  2.1155 -0.3220  0.6005
14317TIP3   OH264441   3.587   2.827   5.414 -0.1311 -0.3474  0.1670
14317TIP3    H164442   3.657   2.794   5.359  0.3945  1.0306 -0.0065
14317TIP3    H264443   3.549   2.749   5.455 -0.3788 -1.3605 -1.9450
14318TIP3   OH264444   4.586   1.985   0.951 -0.3557 -0.5429  0.0311
14318TIP3    H164445   4.614   2.071   0.921 -3.4790  0.3088 -0.6403
14318TIP3    H264446   4.612   1.982   1.043 -0.5887  1.3112  0.1751
14319TIP3   OH264447   2.151   2.675  14.004  0.0217 -0.1936 -0.0257
14319TIP3    H164448   2.239   2.701  13.976 -0.3234 -0.6662 -1.5536
14319TIP3    H264449   2.095   2.745  13.972 -0.1477  0.2674  1.2228
14320TIP3   OH264450   1.697   0.662   1.611 -0.0009  0.4803 -0.0820
14320TIP3    H164451   1.754   0.638   1.684 -0.4924 -0.7998 -0.1019
14320TIP3    H264452   1.639   0.587   1.601  0.9134  0.0911 -2.6387
14321TIP3   OH264453   0.992   5.107  14.062 -0.6915  0.5014 -0.6812
14321TIP3    H164454   0.921   5.051  14.030 -0.0520  1.2347 -3.5081
14321TIP3    H264455   1.005   5.080  14.153 -3.3592 -0.8899 -0.6718
14322TIP3   OH264456   2.410   1.581  16.035  0.0106 -0.3881 -0.2052
14322TIP3    H164457   2.503   1.564  16.051  0.2727 -0.0162 -1.2819
14322TIP3    H264458   2.370   1.494  16.028  0.6547 -0.5645 -1.8171
14323TIP3   OH264459   1.897   3.854  15.222 -0.1024  0.1251 -0.4610
14323TIP3    H164460   1.971   3.913  15.204 -0.3530  1.2384  1.9904
14323TIP3    H264461   1.829   3.911  15.258 -1.3723 -1.2466 -0.6452
14324TIP3   OH264462   3.809   3.466  16.790  0.0410  0.3993  0.2902
14324TIP3    H164463   3.803   3.540  16.728  1.1653  0.3913  0.1553
14324TIP3    H264464   3.719   3.451  16.817 -0.2865  1.4097 -0.1785
14325TIP3   OH264465   0.584   2.713  15.307 -0.8831 -0.2032  0.7712
14325TIP3    H164466   0.543   2.791  15.270 -0.1283  0.3542  1.1002
14325TIP3    H264467   0.600   2.656  15.231  1.6660  1.3953  0.0283
14326TIP3   OH264468   0.819   4.468  11.229  0.2373 -0.1628 -0.0286
14326TIP3    H164469   0.895   4.505  11.185  0.8586  0.2901  1.3902
14326TIP3    H264470   0.801   4.529  11.301 -1.2487 -0.4546 -0.1383
14327TIP3   OH264471   2.505   0.860   0.995  0.5635  0.1561 -0.0760
14327TIP3    H164472   2.581   0.861   0.938  0.7440 -0.5237  0.1477
14327TIP3    H264473   2.508   0.775   1.038  0.8919  0.9733  1.5674
14328TIP3   OH264474   6.362   6.645  16.376 -0.3352  0.3521 -0.2081
14328TIP3    H164475   6.306   6.567  16.372  1.3789 -0.8537 -0.8174
14328TIP3    H264476   6.311   6.708  16.428 -1.3156 -1.5122  1.1508
14329TIP3   OH264477   1.143   1.515  11.049 -0.1010 -0.1339 -0.0716
14329TIP3    H164478   1.073   1.495  10.987 -0.7304  1.4569  0.0881
14329TIP3    H264479   1.145   1.611  11.052 -0.9706 -0.1475  3.3301
14330TIP3   OH264480   4.607   3.705  15.476 -0.2170  0.3516 -0.3314
14330TIP3    H164481   4.695   3.671  15.493 -0.2986  0.9601  1.3095
14330TIP3    H264482   4.623   3.790  15.435 -0.0405 -0.1297 -1.2780
14331TIP3   OH264483   3.178   1.504  15.525  0.8772  0.2902  0.0524
14331TIP3    H164484   3.222   1.419  15.534  1.8571  0.7540 -0.2630
14331TIP3    H264485   3.242   1.567  15.558 -0.0892  0.8553  0.8709
14332TIP3   OH264486   3.593   6.328  16.951  0.9089 -0.1229  0.5032
14332TIP3    H164487   3.662   6.392  16.934  0.2914  0.4467  0.1225
14332TIP3    H264488   3.512   6.373  16.926  0.1227  0.1963  3.4518
14333TIP3   OH264489   0.929   4.741   4.930 -0.0925  0.0288 -1.0299
14333TIP3    H164490   0.868   4.728   5.003 -2.1501  0.7514 -2.5949
14333TIP3    H264491   1.007   4.777   4.972 -1.6320  1.4752  0.7084
14334TIP3   OH264492   1.090   2.721  15.684 -0.1184  0.0274 -0.3220
14334TIP3    H164493   1.026   2.650  15.670  0.3206 -0.1501 -1.4416
14334TIP3    H264494   1.143   2.722  15.604  1.3302  0.1306  0.6289
14335TIP3   OH264495   4.368   0.196  14.023 -0.1486 -0.7007  0.1444
14335TIP3    H164496   4.307   0.153  13.963  0.3500 -1.8952  0.4793
14335TIP3    H264497   4.430   0.241  13.965 -1.0270  0.0925 -0.2025
14336TIP3   OH264498   6.000   3.826  12.803 -0.1774  0.1946 -0.0840
14336TIP3    H164499   5.935   3.894  12.817  0.1416  0.1437  1.7711
14336TIP3    H264500   5.961   3.768  12.737 -0.4901  2.0843 -1.5939
14337TIP3   OH264501   4.152   3.060   4.137 -0.0880  0.2316  0.1509
14337TIP3    H164502   4.225   3.087   4.083  1.2972 -0.4511  1.6497
14337TIP3    H264503   4.088   3.130   4.129  0.4285  0.5004 -1.7220
14338TIP3   OH264504   4.756   2.328  11.312  0.3058 -0.2436 -0.2369
14338TIP3    H164505   4.821   2.338  11.381 -0.4856  0.7139  0.3862
14338TIP3    H264506   4.804   2.289  11.239  1.1276 -1.3173  0.8702
14339TIP3   OH264507   6.006   3.590   3.947 -0.2591 -0.5199  0.5687
14339TIP3    H164508   5.936   3.636   3.993 -0.6502  0.1020 -0.6259
14339TIP3    H264509   6.013   3.635   3.862  0.5262 -1.5608  0.0671
14340TIP3   OH264510   6.073   0.096  14.753 -0.1121  0.7870 -0.2083
14340TIP3    H164511   6.113   0.011  14.770 -1.3916 -0.3933 -2.8672
14340TIP3    H264512   6.146   0.152  14.724  0.5981  0.4176  0.8296
14341TIP3   OH264513   1.830   1.765  17.087  0.0749 -0.0599 -0.4754
14341TIP3    H164514   1.861   1.805  17.168 -0.3394  1.5107 -1.0811
14341TIP3    H264515   1.892   1.792  17.020 -0.3656 -0.1915 -0.9446
14342TIP3   OH264516   3.411   3.615  16.130  0.0863 -0.6705  0.2131
14342TIP3    H164517   3.393   3.572  16.214  1.6673 -0.4833  0.6554
14342TIP3    H264518   3.418   3.708  16.151  0.4395 -0.6159 -0.1443
14343TIP3   OH264519   5.046   0.993   5.311  0.0492  1.1255  0.2275
14343TIP3    H164520   5.023   1.081   5.339 -1.2332  0.5525  1.0175
14343TIP3    H264521   5.110   0.963   5.376 -0.6990  0.8910  0.8550
14344TIP3   OH264522   5.732   6.469  13.999  0.3041  0.2690 -0.4280
14344TIP3    H164523   5.798   6.400  14.001 -1.1820 -1.1872 -0.8157
14344TIP3    H264524   5.667   6.439  13.935  0.0986  2.4667 -1.3097
14345TIP3   OH264525   0.150   2.042  11.239 -0.7964  0.1526 -0.3313
14345TIP3    H164526   0.148   1.949  11.216 -2.0129  0.0209  0.3067
14345TIP3    H264527   0.232   2.052  11.288 -0.0870 -0.3305 -1.3730
14346TIP3   OH264528   5.513   1.480   6.367  0.2931 -0.1466  0.8106
14346TIP3    H164529   5.591   1.443   6.408 -0.6921 -0.9337  2.0066
14346TIP3    H264530   5.441   1.422   6.393 -0.6095  0.1849 -0.8071
14347TIP3   OH264531   1.229   2.357   5.625 -0.2835 -0.3164 -0.3440
14347TIP3    H164532   1.306   2.414   5.616 -0.9796  0.8905  1.0745
14347TIP3    H264533   1.159   2.416   5.652 -1.0142 -1.8545  1.2349
14348TIP3   OH264534   4.237   4.839  15.434 -0.3409  0.5740  0.4539
14348TIP3    H164535   4.318   4.789  15.433  0.1205  1.2902  0.9729
14348TIP3    H264536   4.215   4.852  15.342  1.1578  1.9891  0.2728
14349TIP3   OH264537   1.382   5.407  14.518 -0.0697 -0.0814  0.2959
14349TIP3    H164538   1.309   5.464  14.494 -1.6721 -1.9019  0.7371
14349TIP3    H264539   1.459   5.449  14.479 -1.4068  1.6212 -0.5718
14350TIP3   OH264540   0.415   1.058  12.931  0.1402  0.0377 -0.0504
14350TIP3    H164541   0.345   1.108  12.888  2.9512  2.8743 -1.4641
14350TIP3    H264542   0.448   1.000  12.862  1.9392  1.6895 -0.5983
14351TIP3   OH264543   6.528   5.504  16.510  0.5065  0.3263 -0.0037
14351TIP3    H164544   6.484   5.515  16.595 -0.4686 -2.7090 -0.0438
14351TIP3    H264545   6.609   5.457  16.531  1.0905  1.0661 -0.5801
14352TIP3   OH264546   1.138   0.492   2.423  0.0224 -0.4296 -0.4328
14352TIP3    H164547   1.215   0.526   2.377  0.3594 -0.9775 -0.2707
14352TIP3    H264548   1.064   0.535   2.380  0.4036 -0.0603 -0.7253
14353TIP3   OH264549   0.557   5.636   6.081 -0.1440  0.7128  0.3034
14353TIP3    H164550   0.610   5.576   6.134  0.9235  1.4110  0.0579
14353TIP3    H264551   0.491   5.670   6.141  0.0825  0.3050  0.7833
14354TIP3   OH264552   2.372   5.075   2.377  0.1651  0.0810  0.3758
14354TIP3    H164553   2.385   5.155   2.428 -2.5971  0.4693  0.5345
14354TIP3    H264554   2.341   5.011   2.441 -2.4441  0.3210 -0.5683
14355TIP3   OH264555   6.754   5.596  15.816  0.6228  0.1281  0.3877
14355TIP3    H164556   6.709   5.676  15.844  2.3243  1.1344  0.3115
14355TIP3    H264557   6.732   5.531  15.884 -0.3744  0.7762  0.6974
14356TIP3   OH264558   0.834   5.753   2.678 -0.0777 -0.3173  0.0288
14356TIP3    H164559   0.804   5.662   2.685 -1.9540  0.3150  0.5093
14356TIP3    H264560   0.924   5.751   2.710  0.1079 -2.1128 -0.5301
14357TIP3   OH264561   1.856   4.717  11.559  0.1340  0.2775  0.3833
14357TIP3    H164562   1.872   4.707  11.465  0.3998  0.2771  0.4282
14357TIP3    H264563   1.776   4.770  11.564  0.3490  0.6325  0.1565
14358TIP3   OH264564   0.579   5.521   2.936 -0.4351 -0.0801 -0.0034
14358TIP3    H164565   0.626   5.449   2.894 -0.3207 -0.9998  1.6911
14358TIP3    H264566   0.522   5.555   2.867  1.1799 -0.3018 -1.4712
14359TIP3   OH264567   0.647   0.769  11.498 -0.0084 -0.0144 -0.4429
14359TIP3    H164568   0.585   0.698  11.481  0.1195 -0.4112  0.6997
14359TIP3    H264569   0.693   0.781  11.415  1.3285 -2.5857 -0.1225
14360TIP3   OH264570   0.790   5.728   0.994 -0.2111 -0.3050 -0.0215
14360TIP3    H164571   0.705   5.740   1.038 -0.4835 -0.7782 -0.4113
14360TIP3    H264572   0.832   5.813   1.001 -0.7299 -0.0573  0.1613
14361TIP3   OH264573   4.264   6.445  12.860 -0.0415 -0.2159 -0.0280
14361TIP3    H164574   4.355   6.473  12.872 -0.4290  0.9827  0.2012
14361TIP3    H264575   4.270   6.361  12.816  1.1546  0.3231 -0.9083
14362TIP3   OH264576   6.112   5.911   6.424  0.9967  0.1646  0.3700
14362TIP3    H164577   6.030   5.922   6.376  0.8342 -0.5573  0.4858
14362TIP3    H264578   6.092   5.939   6.513  0.9215  0.1449  0.3590
14363TIP3   OH264579   1.634   6.242   1.041  0.0054  0.3419 -0.7735
14363TIP3    H164580   1.650   6.184   1.115 -0.6036  0.6465 -0.4008
14363TIP3    H264581   1.637   6.330   1.079  0.9210  0.5574 -1.3333
14364TIP3   OH264582   2.678   3.314  12.734  0.1354 -0.3542  0.8035
14364TIP3    H164583   2.759   3.312  12.786  0.9393 -1.4049 -0.4619
14364TIP3    H264584   2.630   3.236  12.763 -0.3774  0.2209  1.4903
14365TIP3   OH264585   0.034   4.609  11.222  0.0997 -0.0428 -0.0249
14365TIP3    H164586   0.080   4.586  11.302  0.9846  1.2567 -0.1619
14365TIP3    H264587   0.023   4.525  11.176  2.3964 -0.3426 -0.0414
14366TIP3   OH264588   5.365   5.608  11.902 -0.2695  0.3915 -0.1035
14366TIP3    H164589   5.357   5.606  11.806  1.4073  0.2315 -0.2694
14366TIP3    H264590   5.384   5.700  11.922 -0.2535  0.3589  0.0267
14367TIP3   OH264591   3.292   2.407   0.926 -0.6896  0.4179  0.0748
14367TIP3    H164592   3.227   2.338   0.910 -0.8583  0.3658  0.9612
14367TIP3    H264593   3.371   2.360   0.952 -0.8247  0.5615  0.7436
14368TIP3   OH264594   6.074   2.946  12.664  0.6858 -0.2871 -0.0653
14368TIP3    H164595   6.062   2.875  12.726  0.0740  0.3349  0.5254
14368TIP3    H264596   6.129   3.009  12.710  0.4257  0.0695 -0.2470
14369TIP3   OH264597   0.471   2.038  15.969  0.9427  0.1915 -0.0251
14369TIP3    H164598   0.540   1.976  15.945 -1.2137 -2.5053  0.4383
14369TIP3    H264599   0.439   2.071  15.885  0.5434 -1.1714 -0.4383
14370TIP3   OH264600   1.801   0.329   3.142  0.2968  0.6540 -0.4136
14370TIP3    H164601   1.745   0.406   3.145 -2.4955 -1.3099  1.4600
14370TIP3    H264602   1.861   0.339   3.216 -0.2851  0.9001  0.0298
14371TIP3   OH264603   2.387   5.619  17.130 -0.1239  0.0741  0.1791
14371TIP3    H164604   2.296   5.591  17.125  0.3299 -1.5891  0.8057
14371TIP3    H264605   2.417   5.623  17.039 -0.8814  0.8835 -0.0431
14372TIP3   OH264606   1.137   5.735  14.602  0.6133 -0.2130 -0.0577
14372TIP3    H164607   1.043   5.737  14.623  0.9718 -0.2123  1.5643
14372TIP3    H264608   1.142   5.680  14.524 -0.5974 -1.2922  0.6058
14373TIP3   OH264609   1.024   2.823   5.874 -0.0728  0.2211 -0.4225
14373TIP3    H164610   1.022   2.885   5.947  1.1628 -0.6247  0.3612
14373TIP3    H264611   0.961   2.755   5.899  1.4453 -0.8405  0.5908
14374TIP3   OH264612   5.475   4.143   0.203 -0.9184 -0.4042 -0.1914
14374TIP3    H164613   5.476   4.171   0.112 -2.3774  0.2452 -0.0210
14374TIP3    H264614   5.563   4.106   0.218  0.6445  2.9000 -0.8005
14375TIP3   OH264615   3.103   1.896  14.872 -0.0307 -0.2925  0.1036
14375TIP3    H164616   3.097   1.972  14.931 -2.4606 -0.1198 -0.3085
14375TIP3    H264617   3.116   1.822  14.931 -0.4467  0.1092  0.7146
14376TIP3   OH264618   1.958   3.946  13.130  0.1307  0.1322 -0.1362
14376TIP3    H164619   2.052   3.940  13.116 -0.2473 -2.6815 -1.7392
14376TIP3    H264620   1.934   3.864  13.174 -1.9359 -0.3994 -2.1195
14377TIP3   OH264621   2.242   4.365   4.994 -0.1088 -0.0073 -0.8156
14377TIP3    H164622   2.168   4.326   4.946 -1.2353 -0.2493  1.0727
14377TIP3    H264623   2.271   4.296   5.053  0.3871  0.7416 -0.1738
14378TIP3   OH264624   5.904   6.332   5.016  0.0646 -0.1931 -0.0532
14378TIP3    H164625   5.966   6.359   4.949 -1.0683 -0.5619 -1.2757
14378TIP3    H264626   5.897   6.237   5.005  0.4315 -0.3556  1.0721
14379TIP3   OH264627   4.021   1.572   0.541  0.0517  0.1624  0.0171
14379TIP3    H164628   3.966   1.504   0.502  0.6701 -0.8933  0.9613
14379TIP3    H264629   4.053   1.533   0.622 -0.0518  1.8057  0.8561
14380TIP3   OH264630   2.834   3.212   0.689 -0.6652  0.0742 -0.0335
14380TIP3    H164631   2.755   3.264   0.703 -0.2696  0.6871 -0.0567
14380TIP3    H264632   2.906   3.270   0.714 -0.2270 -0.5056  0.0604
14381TIP3   OH264633   3.892   0.324   2.995  0.2435 -0.2403 -0.0150
14381TIP3    H164634   3.877   0.278   2.912  0.7304 -0.4333  0.0009
14381TIP3    H264635   3.981   0.300   3.020  0.6735  1.0989 -0.2440
14382TIP3   OH264636   2.349   3.606  11.513 -0.1553  0.3830  0.1819
14382TIP3    H164637   2.392   3.575  11.593  1.4689 -0.0014 -0.8174
14382TIP3    H264638   2.411   3.586  11.443 -1.2418  1.3833 -1.0943
14383TIP3   OH264639   4.377   4.420  14.683 -0.0170  0.1671 -0.0868
14383TIP3    H164640   4.379   4.394  14.591 -1.2927 -0.9357  0.1715
14383TIP3    H264641   4.376   4.337  14.731 -1.4628  0.6943  0.8496
14384TIP3   OH264642   2.933   6.707   1.211 -0.0779  0.0990 -0.4255
14384TIP3    H164643   3.004   6.770   1.207 -0.8833  1.0309 -0.0607
14384TIP3    H264644   2.871   6.735   1.144  1.0694 -2.1855 -2.5442
14385TIP3   OH264645   0.932   4.784   6.126  0.1109  0.1554  0.5317
14385TIP3    H164646   0.913   4.692   6.145  0.3140 -0.1723 -0.8068
14385TIP3    H264647   0.846   4.824   6.114  0.0905 -0.3028 -0.8841
14386TIP3   OH264648   4.547   3.721  15.785  0.0837  0.3591 -0.2557
14386TIP3    H164649   4.612   3.772  15.834  2.6670 -0.7514 -2.3983
14386TIP3    H264650   4.585   3.710  15.698 -2.8063 -0.7301 -1.4573
14387TIP3   OH264651   5.417   5.387  15.939 -0.0285 -0.3199 -0.4528
14387TIP3    H164652   5.338   5.345  15.905  0.3883 -0.7796 -0.8683
14387TIP3    H264653   5.463   5.317  15.986  1.0541 -0.5397 -1.8063
14388TIP3   OH264654   0.501   1.931   0.063 -0.1502 -0.0223 -0.1714
14388TIP3    H164655   0.516   1.930   0.157 -0.9067 -0.3222 -0.0558
14388TIP3    H264656   0.490   2.023   0.041  1.7035  0.2094 -0.2386
14389TIP3   OH264657   1.439   1.285   3.913  0.3338  0.4333 -0.0797
14389TIP3    H164658   1.349   1.251   3.908  0.9585 -1.7201  2.2322
14389TIP3    H264659   1.475   1.270   3.826 -1.1840  0.2465 -0.6949
14390TIP3   OH264660   0.768   6.553  13.631 -0.3636  0.5695  0.0176
14390TIP3    H164661   0.772   6.649  13.632  1.2198  0.5577 -1.7024
14390TIP3    H264662   0.796   6.527  13.719 -0.9259  1.6827  0.5345
14391TIP3   OH264663   2.447   3.174   0.382  0.1915 -0.0503  0.1640
14391TIP3    H164664   2.523   3.119   0.365  0.9822  0.7218  1.1468
14391TIP3    H264665   2.426   3.213   0.297  1.1827  0.0941 -0.0225
14392TIP3   OH264666   3.027   6.386  14.408  0.2467  0.1589  0.0500
14392TIP3    H164667   3.093   6.363  14.343 -1.5561 -0.8496 -1.4877
14392TIP3    H264668   2.981   6.461  14.371 -0.6765 -0.3074  0.2211
14393TIP3   OH264669   6.018   1.141   4.918  0.0466  0.0525 -0.3131
14393TIP3    H164670   5.939   1.097   4.887 -0.4640  0.6414  0.1252
14393TIP3    H264671   6.044   1.093   4.996 -0.8460  0.8592  0.5030
14394TIP3   OH264672   5.216   5.594  11.642 -0.3671 -0.8503 -0.6082
14394TIP3    H164673   5.287   5.642  11.600 -0.8210 -0.8338 -1.3654
14394TIP3    H264674   5.147   5.589  11.575 -1.3376 -0.2868  0.3321
14395TIP3   OH264675   3.147   3.859  13.634  0.3019 -0.1518 -0.7615
14395TIP3    H164676   3.194   3.869  13.551  0.0240  0.0042 -0.9033
14395TIP3    H264677   3.082   3.930  13.632  1.1034  0.6207  0.1362
14396TIP3   OH264678   0.081   1.117   3.738 -0.4400  0.1447  0.1448
14396TIP3    H164679   0.146   1.086   3.675 -0.5111  0.8051 -0.2640
14396TIP3    H264680   0.129   1.180   3.793 -0.7894  0.7999 -0.3014
14397TIP3   OH264681   2.821   3.950  11.252  0.0876 -0.1565 -0.6163
14397TIP3    H164682   2.766   3.995  11.187 -2.2538  0.7541  1.9045
14397TIP3    H264683   2.892   4.011  11.269 -0.2227  0.3402 -1.0506
14398TIP3   OH264684   1.749   6.079  13.242 -0.6054 -0.2961  0.2209
14398TIP3    H164685   1.806   6.053  13.314  1.0285 -0.1640 -0.9872
14398TIP3    H264686   1.753   6.175  13.241 -1.0445 -0.2761  0.2920
14399TIP3   OH264687   0.950   1.996  16.398  0.2508  0.2097  0.0241
14399TIP3    H164688   0.857   2.006  16.380  0.4356  0.5289 -0.7705
14399TIP3    H264689   0.954   1.952  16.483 -0.6395 -0.7760 -0.4273
14400TIP3   OH264690   6.157   5.447  14.628 -0.3456 -0.3700 -0.5201
14400TIP3    H164691   6.093   5.508  14.592  0.7845  0.3044 -1.3948
14400TIP3    H264692   6.188   5.397  14.553 -1.0372 -1.8453  0.1419
14401TIP3   OH264693   2.216   4.491  14.378 -0.2713  0.0388  0.2567
14401TIP3    H164694   2.138   4.449  14.341  0.9328 -0.9931 -1.1673
14401TIP3    H264695   2.276   4.419  14.394  1.7783  1.1609 -2.0735
14402TIP3   OH264696   2.050   3.813   5.093 -0.2964 -0.1886  0.3372
14402TIP3    H164697   2.032   3.899   5.129  0.6783 -0.1678  0.8040
14402TIP3    H264698   1.986   3.802   5.022  0.7191  1.6646 -0.9308
14403TIP3   OH264699   4.085   1.125   6.155 -0.1274  0.0723 -0.2558
14403TIP3    H164700   4.143   1.059   6.193 -0.4068  0.1499  0.3122
14403TIP3    H264701   4.085   1.106   6.061  0.7304  0.0014 -0.2478
14404TIP3   OH264702   0.763   0.310  14.011 -0.4036  0.0211 -0.4318
14404TIP3    H164703   0.798   0.398  13.996 -2.2307  0.8831  0.2265
14404TIP3    H264704   0.804   0.256  13.943  0.8630  1.3345 -0.7352
14405TIP3   OH264705   0.291   6.803  12.510  0.3852 -0.3976  0.1253
14405TIP3    H164706   0.243   6.733  12.467  2.4707 -1.2999 -0.7728
14405TIP3    H264707   0.264   6.883  12.464 -0.6324 -0.8149 -0.0178
14406TIP3   OH264708   6.780   2.595   2.595 -0.6298  0.0913 -0.0517
14406TIP3    H164709   6.831   2.514   2.600 -1.3249 -0.1962  3.8145
14406TIP3    H264710   6.700   2.570   2.549 -0.1830 -1.0764 -0.2105
14407TIP3   OH264711   3.638   3.364   2.046 -0.4264 -0.3692 -0.1838
14407TIP3    H164712   3.552   3.328   2.070  0.1197 -1.8499 -0.3859
14407TIP3    H264713   3.661   3.318   1.965  1.0903 -0.8452  0.5163
14408TIP3   OH264714   6.775   3.394  11.604 -0.0188 -0.2223 -0.3673
14408TIP3    H164715   6.755   3.301  11.604  0.2333 -0.2796 -1.1365
14408TIP3    H264716   6.712   3.433  11.544  2.0843 -0.4002 -2.7856
14409TIP3   OH264717   5.529   3.598   5.212 -0.3354  0.0711  0.3059
14409TIP3    H164718   5.527   3.520   5.267 -0.2270 -1.2262 -1.5016
14409TIP3    H264719   5.581   3.573   5.136  2.3488  2.8607  1.0957
14410TIP3   OH264720   3.138   3.280  11.775 -0.4981  0.8043  0.3631
14410TIP3    H164721   3.140   3.225  11.697 -0.9975  0.5277  0.5427
14410TIP3    H264722   3.230   3.298  11.795 -0.1513 -2.3483  1.9584
14411TIP3   OH264723   1.370   3.851   2.294  0.3390  0.6623  0.4514
14411TIP3    H164724   1.277   3.829   2.296  0.3602  0.5051 -0.2513
14411TIP3    H264725   1.402   3.824   2.380 -0.7253  2.7992  1.5564
14412TIP3   OH264726   5.277   2.145   3.811 -0.4721  0.0355 -0.0746
14412TIP3    H164727   5.283   2.227   3.761 -1.9893 -1.0891 -2.1853
14412TIP3    H264728   5.358   2.142   3.862  1.0267  1.3943 -2.2754
14413TIP3   OH264729   1.441   2.047  16.500  0.1204 -0.7154  0.2971
14413TIP3    H164730   1.386   2.124  16.488 -0.9169 -1.5280 -0.1186
14413TIP3    H264731   1.474   2.026  16.413 -0.2166 -1.2076  0.2862
14414TIP3   OH264732   4.335   2.406  16.393  0.3308 -0.2622  0.7554
14414TIP3    H164733   4.320   2.492  16.434  3.0713  1.0980 -0.9420
14414TIP3    H264734   4.263   2.397  16.330 -0.9780 -0.0240  2.1986
14415TIP3   OH264735   3.567   0.673   5.119 -0.3803 -0.3952  0.1507
14415TIP3    H164736   3.572   0.602   5.054  0.8209 -0.0494 -0.1551
14415TIP3    H264737   3.634   0.650   5.184  1.9109  1.7841 -1.3252
14416TIP3   OH264738   5.244   0.265  12.495  0.0807  0.2236 -0.3997
14416TIP3    H164739   5.268   0.313  12.574  1.9653 -3.3788  1.3578
14416TIP3    H264740   5.191   0.192  12.526  0.2970 -0.8984 -2.5575
14417TIP3   OH264741   6.754   6.249   2.182  0.6199  0.2754  0.7815
14417TIP3    H164742   6.730   6.277   2.271 -2.7016  0.3675 -0.1015
14417TIP3    H264743   6.728   6.157   2.178  0.3885  0.3885 -0.2401
14418TIP3   OH264744   5.044   3.167   1.381  0.3666  0.2600 -0.2579
14418TIP3    H164745   5.071   3.193   1.292 -0.0988  1.2082 -0.1272
14418TIP3    H264746   5.082   3.080   1.393  0.1312 -0.0310 -1.5295
14419TIP3   OH264747   5.472   1.709  14.689 -0.1430  0.0592 -0.0628
14419TIP3    H164748   5.379   1.727  14.673 -0.1706  0.3629  0.4302
14419TIP3    H264749   5.484   1.618  14.662 -0.0820  0.6882 -2.2563
14420TIP3   OH264750   3.520   2.834  14.881  0.4545 -0.0604 -0.5686
14420TIP3    H164751   3.612   2.820  14.856  0.7087 -0.2580  0.4547
14420TIP3    H264752   3.524   2.857  14.974 -0.5209  0.1376 -0.5750
14421TIP3   OH264753   1.149   0.273   4.310  0.2085 -0.1127  0.1552
14421TIP3    H164754   1.199   0.226   4.377 -4.3692 -2.2192  2.3599
14421TIP3    H264755   1.101   0.340   4.359 -1.1596  0.0842 -1.4132
14422TIP3   OH264756   1.100   3.945  15.308 -0.4180  0.1160  0.7371
14422TIP3    H164757   1.059   3.995  15.379 -0.9580 -0.7655  1.0615
14422TIP3    H264758   1.026   3.914  15.255 -0.0364  0.4583 -0.0061
14423TIP3   OH264759   0.358   4.019   1.333  0.1182  0.4699  0.1282
14423TIP3    H164760   0.292   4.087   1.341  2.0037  2.1863  1.7840
14423TIP3    H264761   0.431   4.061   1.287  0.4030 -1.1435 -0.9469
14424TIP3   OH264762   5.684   5.788  10.976  0.4531  0.3486 -0.1769
14424TIP3    H164763   5.648   5.700  10.990  0.4693  0.4345  0.4393
14424TIP3    H264764   5.755   5.774  10.913 -0.2873  0.0990 -0.9541
14425TIP3   OH264765   4.500   0.999   1.800  0.3184 -0.3670  0.3880
14425TIP3    H164766   4.414   0.973   1.834 -0.4755  1.6892 -0.0138
14425TIP3    H264767   4.489   1.003   1.705  0.0383  2.6385  0.4999
14426TIP3   OH264768   3.137   0.314  10.754 -0.0929  0.2953  0.0830
14426TIP3    H164769   3.111   0.225  10.775  0.2560  0.0335 -0.5898
14426TIP3    H264770   3.144   0.316  10.658  1.7805  0.5152  0.2018
14427TIP3   OH264771   3.777   4.106   3.784  0.3852  0.1361  0.4331
14427TIP3    H164772   3.727   4.047   3.728  1.5079 -0.8264  0.4485
14427TIP3    H264773   3.739   4.093   3.871 -0.7404  0.9580  0.0780
14428TIP3   OH264774   6.588   4.152   5.560 -0.4925  0.7874  0.3620
14428TIP3    H164775   6.600   4.105   5.643  0.2106  0.3799  0.0254
14428TIP3    H264776   6.520   4.217   5.580 -0.0337  0.9724  1.3755
14429TIP3   OH264777   0.589   5.525   4.014  0.0839  0.4713 -0.1037
14429TIP3    H164778   0.585   5.556   4.105  0.0256 -1.7799  0.6991
14429TIP3    H264779   0.625   5.599   3.965  0.4642  1.6019  1.8176
14430TIP3   OH264780   0.273   0.790   3.439 -0.0473 -0.3496  0.1997
14430TIP3    H164781   0.195   0.734   3.447 -0.9577  0.7912 -0.5040
14430TIP3    H264782   0.267   0.851   3.513  0.3264 -0.4318  0.3000
14431TIP3   OH264783   2.637   2.647  10.920 -0.0524  0.2315  0.6947
14431TIP3    H164784   2.704   2.635  10.852  0.3543 -0.5644  1.2281
14431TIP3    H264785   2.565   2.590  10.893  0.8420 -1.5011  1.8731
14432TIP3   OH264786   4.606   6.101  14.938  0.5482 -0.2212  0.4874
14432TIP3    H164787   4.613   6.152  15.019  0.9692 -1.5436  1.2949
14432TIP3    H264788   4.540   6.034  14.958  1.3572 -1.1543  0.0645
14433TIP3   OH264789   0.515   2.484   1.235  0.6140  0.5590  0.3530
14433TIP3    H164790   0.453   2.548   1.269  0.6950  0.3118  0.9763
14433TIP3    H264791   0.599   2.529   1.235  0.3883  1.0040 -0.8064
14434TIP3   OH264792   1.881   4.551  14.345 -0.2065  0.5576  0.5806
14434TIP3    H164793   1.844   4.634  14.373 -1.4877 -0.5922  2.4388
14434TIP3    H264794   1.873   4.494  14.421  2.2567 -0.7742 -0.0757
14435TIP3   OH264795   6.009   4.741  10.977 -0.4125 -0.0183  0.1016
14435TIP3    H164796   5.987   4.790  10.898  0.3300 -0.7490 -0.5717
14435TIP3    H264797   5.991   4.650  10.954 -0.2423 -0.2290  0.7960
14436TIP3   OH264798   1.362   2.887   3.989  0.8553  0.1375  0.5822
14436TIP3    H164799   1.284   2.863   4.039 -0.8743 -2.6208 -3.1646
14436TIP3    H264800   1.406   2.804   3.971  1.7385  1.0815 -1.8411
14437TIP3   OH264801   5.405   2.079   5.495 -0.4563  0.1346 -0.3233
14437TIP3    H164802   5.429   2.024   5.569 -1.3814 -1.0977 -0.9132
14437TIP3    H264803   5.324   2.041   5.462  0.2868  0.2625 -2.3830
14438TIP3   OH264804   2.151   2.681  11.548  0.1475  0.1231 -0.0209
14438TIP3    H164805   2.066   2.658  11.586  0.4215  1.4959  1.4811
14438TIP3    H264806   2.162   2.774  11.569  3.1772 -0.6604  2.0821
14439TIP3   OH264807   4.394   6.754   0.261 -0.4071 -0.1408 -0.2796
14439TIP3    H164808   4.373   6.838   0.221  1.0473  1.1177  1.4969
14439TIP3    H264809   4.489   6.750   0.261 -0.4155 -1.0419  1.0933
14440TIP3   OH264810   2.463   5.618   2.112 -0.3092  0.2030 -0.1284
14440TIP3    H164811   2.390   5.673   2.083 -1.0668 -1.4846 -1.5483
14440TIP3    H264812   2.515   5.606   2.033 -0.2900 -1.3011  0.1044
14441TIP3   OH264813   0.525   3.861   4.408  0.0432  0.2368  0.1819
14441TIP3    H164814   0.550   3.946   4.444 -0.4336  0.0171  1.0254
14441TIP3    H264815   0.439   3.843   4.445 -0.5061  0.0564 -1.1465
14442TIP3   OH264816   4.289   0.486  16.717 -0.8078 -0.4187 -0.0795
14442TIP3    H164817   4.252   0.428  16.783 -1.9469 -1.0608 -1.2543
14442TIP3    H264818   4.309   0.428  16.643  1.3611  0.1290  0.0469
14443TIP3   OH264819   4.575   3.340  13.776 -0.1631 -0.0549 -0.0241
14443TIP3    H164820   4.622   3.417  13.745 -0.0846 -0.5247 -1.0813
14443TIP3    H264821   4.605   3.329  13.866  0.7435  0.4267 -0.2603
14444TIP3   OH264822   1.100   4.712   1.037  0.0877  0.0292  0.0427
14444TIP3    H164823   1.186   4.736   1.072 -0.8313  1.0084  1.7168
14444TIP3    H264824   1.071   4.640   1.092  0.3374 -1.1114 -1.2956
14445TIP3   OH264825   1.729   5.993   5.719  0.1538  0.0138 -0.4916
14445TIP3    H164826   1.708   5.957   5.805 -0.2249  1.5809  0.0935
14445TIP3    H264827   1.661   5.959   5.661 -0.7435  0.5150  0.2454
14446TIP3   OH264828   0.003   0.106   0.755 -0.2426  0.3499  0.0991
14446TIP3    H164829   0.021   0.138   0.666 -0.4188  1.4502  0.4550
14446TIP3    H264830  -0.063   0.038   0.743 -0.4376  0.6532 -0.5866
14447TIP3   OH264831   1.490   2.678  16.753  0.7478  0.4329  0.3499
14447TIP3    H164832   1.516   2.719  16.836 -0.6257 -0.3247  1.1804
14447TIP3    H264833   1.531   2.591  16.755 -0.3132 -0.0662  0.8263
14448TIP3   OH264834   0.002   6.201   5.250 -0.3516  0.6128 -0.6259
14448TIP3    H164835  -0.016   6.154   5.331  0.1390 -0.7090 -1.2684
14448TIP3    H264836  -0.018   6.292   5.270 -0.2005  0.3063  0.9903
14449TIP3   OH264837   1.755   0.734   5.151 -0.0199 -0.9274 -0.1746
14449TIP3    H164838   1.821   0.803   5.145 -0.8259 -0.3091 -2.2024
14449TIP3    H264839   1.673   0.777   5.128 -0.7621 -2.2554 -0.0699
14450TIP3   OH264840   2.136   2.433  12.460  0.0464  0.5309  0.0986
14450TIP3    H164841   2.051   2.390  12.449  0.1797  0.3931 -0.4200
14450TIP3    H264842   2.166   2.407  12.547  0.1442 -0.4643 -0.2300
14451TIP3   OH264843   1.129   0.737   2.159 -0.0390  0.2893  0.2795
14451TIP3    H164844   1.046   0.701   2.190 -0.8067  0.2077 -1.8384
14451TIP3    H264845   1.150   0.686   2.081  0.9759  1.6426 -0.3504
14452TIP3   OH264846   6.464   1.346  15.391  0.3312 -0.3075 -0.2355
14452TIP3    H164847   6.500   1.308  15.470 -1.7547 -1.5209  0.1590
14452TIP3    H264848   6.381   1.300  15.376  0.0966  0.7132 -2.4484
14453TIP3   OH264849   0.243   2.126   5.518 -0.3181 -0.1457  0.0286
14453TIP3    H164850   0.335   2.152   5.528 -0.4641  0.4887 -0.2683
14453TIP3    H264851   0.220   2.150   5.428 -0.2818 -1.8853 -0.4699
14454TIP3   OH264852   3.664   2.870  15.473 -0.0973 -0.2909 -0.3349
14454TIP3    H164853   3.588   2.825  15.510  0.3436 -0.5542  0.2644
14454TIP3    H264854   3.694   2.928  15.544  0.6332 -0.6521 -0.3464
14455TIP3   OH264855   0.662   3.498  16.430  0.2243  0.4395  0.5051
14455TIP3    H164856   0.579   3.452  16.445 -0.7537  2.0080  0.0925
14455TIP3    H264857   0.679   3.543  16.513  0.5033  0.3473  0.4979
14456TIP3   OH264858   1.918   4.914   4.400 -0.2749  0.1192  0.1612
14456TIP3    H164859   1.856   4.901   4.472  0.0922  1.8743  0.8248
14456TIP3    H264860   1.931   4.826   4.363 -0.4356 -0.8264  2.2682
14457TIP3   OH264861   1.358   1.084   0.356 -0.2823  0.4597  0.2683
14457TIP3    H164862   1.407   1.022   0.410 -0.2869  0.4662  0.2800
14457TIP3    H264863   1.267   1.074   0.384 -0.5076 -0.7038 -0.8845
14458TIP3   OH264864   6.010   1.922  16.155  0.2758  0.0121  0.1355
14458TIP3    H164865   6.041   1.835  16.131  0.2617 -0.0598  0.3731
14458TIP3    H264866   6.061   1.982  16.100  1.6972 -0.0443  1.3723
14459TIP3   OH264867   4.868   0.954  15.594  0.0187 -0.4400 -0.1189
14459TIP3    H164868   4.891   0.872  15.551  1.4684 -0.3695  0.5074
14459TIP3    H264869   4.916   1.021  15.545 -1.1483  0.0423 -0.6204
14460TIP3   OH264870   2.857   5.012  16.484  0.3872 -0.0341  0.3758
14460TIP3    H164871   2.851   5.102  16.450 -1.9159 -0.3459 -0.1368
14460TIP3    H264872   2.804   4.960  16.424 -0.3103 -1.3219  2.0632
14461TIP3   OH264873   1.911   3.384  13.898  0.4259 -0.4872  0.5131
14461TIP3    H164874   1.912   3.290  13.880  1.8069 -0.4303  0.2002
14461TIP3    H264875   1.941   3.425  13.816 -1.9278  0.3619  0.0324
14462TIP3   OH264876   1.097   1.847   1.068 -0.1246  0.1936  0.3225
14462TIP3    H164877   1.165   1.835   1.134 -0.1394  2.0470  0.7067
14462TIP3    H264878   1.078   1.941   1.070  1.4203  0.7051 -3.8501
14463TIP3   OH264879   6.513   1.901  14.492 -0.0347  0.0200 -0.1251
14463TIP3    H164880   6.467   1.901  14.408 -0.2297 -0.4546 -0.0256
14463TIP3    H264881   6.588   1.958  14.479 -0.7596  0.9718 -0.2314
14464TIP3   OH264882   5.904   2.872   2.191 -0.6081 -0.7803 -0.1861
14464TIP3    H164883   5.992   2.907   2.207 -0.9280 -0.3825  0.7362
14464TIP3    H264884   5.910   2.832   2.105  0.7348 -1.5573  0.2372
14465TIP3   OH264885   1.648   5.120   5.950  0.3356 -0.1095 -0.4967
14465TIP3    H164886   1.577   5.126   5.886 -0.9741 -0.1541  0.8985
14465TIP3    H264887   1.611   5.067   6.021  0.8874  1.9621  1.3971
14466TIP3   OH264888   3.052   4.494  13.154  0.0051 -0.1453 -0.3681
14466TIP3    H164889   3.009   4.439  13.220 -1.5670  0.9357 -0.4587
14466TIP3    H264890   3.144   4.466  13.156  0.0177 -0.0779  2.3408
14467TIP3   OH264891   5.878   4.672   6.717  0.2284  0.1718 -0.2557
14467TIP3    H164892   5.803   4.632   6.760  0.6498 -1.4779 -1.0410
14467TIP3    H264893   5.928   4.599   6.681  1.6473  1.3137 -0.6806
14468TIP3   OH264894   5.652   1.910  12.702 -0.7642 -0.0256 -0.1950
14468TIP3    H164895   5.692   1.914  12.788 -0.5847 -1.7758 -0.1866
14468TIP3    H264896   5.588   1.982  12.702 -0.9640 -0.1868  1.4891
14469TIP3   OH264897   3.621   5.287   5.657 -0.2395  0.0178  0.1180
14469TIP3    H164898   3.526   5.293   5.668 -0.0450  0.1046  1.9423
14469TIP3    H264899   3.642   5.196   5.679  0.0405 -0.1759 -0.9077
14470TIP3   OH264900   5.797   0.044  15.446 -0.0943  0.0071  0.8514
14470TIP3    H164901   5.802   0.077  15.356  0.1052  0.2351  0.9465
14470TIP3    H264902   5.779   0.121  15.499  0.7399  0.0233  1.1123
14471TIP3   OH264903   0.674   0.034  12.012  0.0607 -0.0955 -0.2355
14471TIP3    H164904   0.671   0.087  11.933 -0.2892  1.0060  0.5160
14471TIP3    H264905   0.758   0.055  12.052 -0.0574 -0.1558  0.0437
14472TIP3   OH264906   5.729   0.386  13.257 -0.0974  0.2238  0.2029
14472TIP3    H164907   5.638   0.400  13.228  0.3691 -1.4819 -2.2546
14472TIP3    H264908   5.721   0.328  13.333 -1.1346  1.3498  0.9773
14473TIP3   OH264909   3.521   6.698   5.655  0.2346  0.2912  0.0711
14473TIP3    H164910   3.498   6.629   5.716 -1.4293  2.2227  1.7005
14473TIP3    H264911   3.450   6.762   5.663  1.5755  2.0564 -1.6046
14474TIP3   OH264912   3.699   5.589   0.861  0.7753 -0.2919  0.0547
14474TIP3    H164913   3.732   5.510   0.904  0.3287 -0.6299 -0.2192
14474TIP3    H264914   3.763   5.608   0.792  0.5463 -0.7851 -0.2957
14475TIP3   OH264915   6.341   3.133   1.211 -0.6056  0.2386  0.2061
14475TIP3    H164916   6.282   3.205   1.234 -0.0547  0.0934  2.0982
14475TIP3    H264917   6.367   3.153   1.121 -3.0964  0.5950 -0.4854
14476TIP3   OH264918   2.580   2.910  10.804  0.8488 -0.8182  0.4080
14476TIP3    H164919   2.595   2.816  10.810 -3.3484 -1.9418 -4.0412
14476TIP3    H264920   2.607   2.933  10.715 -0.1936  1.7992  0.7278
14477TIP3   OH264921   0.487   3.929   5.065  0.4492 -0.5437  0.4559
14477TIP3    H164922   0.578   3.943   5.040  0.4252 -1.5696 -0.2710
14477TIP3    H264923   0.460   4.010   5.107  1.8030 -0.3616  0.9832
14478TIP3   OH264924   0.312   1.256   3.850  0.1815  0.0442 -0.1976
14478TIP3    H164925   0.253   1.264   3.925  0.3775 -1.3516  0.1150
14478TIP3    H264926   0.398   1.240   3.888  0.6873  1.4847 -0.6735
14479TIP3   OH264927   2.920   4.659   3.805  0.3173  0.2158 -0.4745
14479TIP3    H164928   2.920   4.617   3.719 -1.9986 -0.5333 -0.1267
14479TIP3    H264929   2.994   4.721   3.801 -0.5481  1.1478 -3.4766
14480TIP3   OH264930   2.864   2.472   4.760 -0.5802 -0.1583 -0.3786
14480TIP3    H164931   2.883   2.392   4.711 -1.0582 -1.3494  1.3030
14480TIP3    H264932   2.937   2.481   4.822 -0.6713  0.5385 -0.3687
14481TIP3   OH264933   5.270   0.253  12.979 -0.3728  0.1629  0.4958
14481TIP3    H164934   5.192   0.307  12.990 -1.1547 -0.5347 -1.3412
14481TIP3    H264935   5.291   0.261  12.886 -0.0090 -1.9946  0.3689
14482TIP3   OH264936   3.816   6.442   2.529 -0.7295  0.1855 -0.8347
14482TIP3    H164937   3.790   6.514   2.473 -1.1721  0.2592 -0.5380
14482TIP3    H264938   3.737   6.419   2.578 -0.4521 -0.1353 -0.5280
14483TIP3   OH264939   0.810   0.534  15.917 -0.2770 -0.9105  0.0439
14483TIP3    H164940   0.718   0.524  15.941 -0.5428  0.3243 -0.4089
14483TIP3    H264941   0.831   0.624  15.940  1.1776 -1.5528  1.3021
14484TIP3   OH264942   3.588   2.706   0.823  0.9364 -0.3693 -0.1154
14484TIP3    H164943   3.577   2.633   0.763 -1.1273 -0.2201  0.0489
14484TIP3    H264944   3.662   2.681   0.879  0.7886 -1.9311 -0.6183
14485TIP3   OH264945   0.883   1.410  12.193 -0.2357  0.1641  0.6681
14485TIP3    H164946   0.866   1.466  12.117 -0.0168 -1.2058 -0.4214
14485TIP3    H264947   0.916   1.469  12.260  2.5355  0.9778 -1.3384
14486TIP3   OH264948   4.881   4.931  12.937 -0.4125 -0.2656 -0.4854
14486TIP3    H164949   4.797   4.909  12.896  0.5602 -2.3152 -1.5144
14486TIP3    H264950   4.869   4.911  13.030 -1.1918 -0.1243 -0.5539
14487TIP3   OH264951   4.921   5.516   1.546  0.1338 -0.3278 -0.0596
14487TIP3    H164952   4.951   5.522   1.455  2.5367 -0.5081  0.6866
14487TIP3    H264953   4.847   5.455   1.543  1.4208 -1.8584 -1.6024
14488TIP3   OH264954   3.382   5.988   5.539 -0.4163 -0.1488  0.3557
14488TIP3    H164955   3.475   6.010   5.546 -0.2586 -0.3913 -0.9152
14488TIP3    H264956   3.368   5.922   5.607 -0.0072  0.9771  1.5543
14489TIP3   OH264957   4.100   6.234   4.012 -0.4812 -0.4830  0.2911
14489TIP3    H164958   4.112   6.203   3.922 -1.6722 -3.0472  0.9711
14489TIP3    H264959   4.009   6.211   4.032 -0.3420  0.4483  2.0069
14490TIP3   OH264960   4.106   6.093   1.220 -0.2476  0.3173  0.0948
14490TIP3    H164961   4.111   6.077   1.125 -0.3182  2.4891 -0.3067
14490TIP3    H264962   4.015   6.075   1.242 -0.4798  0.7567 -0.4679
14491TIP3   OH264963   2.407   4.754  12.407 -0.1459  0.5218 -0.3688
14491TIP3    H164964   2.354   4.734  12.329  1.5684  1.2019 -1.7448
14491TIP3    H264965   2.483   4.696  12.400  0.2068  0.8510  0.6177
14492TIP3   OH264966   4.589   4.990  15.272  0.4432 -0.2024 -0.2716
14492TIP3    H164967   4.681   4.966  15.258  1.2218  1.0437  2.3018
14492TIP3    H264968   4.591   5.048  15.348 -2.6836 -1.8881  1.2318
14493TIP3   OH264969   2.962   1.696  13.252 -0.0608  0.3423 -0.0500
14493TIP3    H164970   3.011   1.617  13.273 -2.3866 -1.4405 -1.1428
14493TIP3    H264971   2.960   1.699  13.156 -2.5288  0.0419 -0.0460
14494TIP3   OH264972   0.527   3.559   2.040 -0.4885 -0.0216  0.0813
14494TIP3    H164973   0.488   3.493   2.098 -0.2717 -0.2185  0.0047
14494TIP3    H264974   0.572   3.619   2.099  1.4555 -1.3618 -0.0044
14495TIP3   OH264975   1.438   1.596  12.924 -0.0260  0.1004 -0.2689
14495TIP3    H164976   1.445   1.691  12.927 -0.8980  0.2611 -2.1583
14495TIP3    H264977   1.524   1.564  12.949  0.4387  1.3938 -0.1893
14496TIP3   OH264978   0.618   4.967   2.887 -0.5548 -0.1492 -0.4173
14496TIP3    H164979   0.644   4.984   2.797 -0.9515 -0.1352 -0.5309
14496TIP3    H264980   0.698   4.937   2.930 -0.1452  0.7722 -0.5362
14497TIP3   OH264981   0.510   4.779  13.042  0.5974 -0.2720 -0.1554
14497TIP3    H164982   0.415   4.769  13.053  0.4336  1.3260  0.0109
14497TIP3    H264983   0.520   4.865  13.001  2.0921  0.5805  1.9217
14498TIP3   OH264984   1.134   3.616   4.998 -0.4653  0.3959 -0.7945
14498TIP3    H164985   1.157   3.649   4.912  3.1180  2.3202  0.7904
14498TIP3    H264986   1.165   3.526   4.998  0.4174  0.6906 -1.2123
14499TIP3   OH264987   3.370   6.136  16.075 -0.5614 -0.2014 -0.4390
14499TIP3    H164988   3.348   6.088  15.995  1.5891 -0.1744 -1.0734
14499TIP3    H264989   3.293   6.191  16.092 -1.5186 -1.1002 -1.8064
14500TIP3   OH264990   3.261   2.640  12.330  0.2879 -0.1456  0.1575
14500TIP3    H164991   3.174   2.601  12.341  0.2417  0.0343  0.4157
14500TIP3    H264992   3.280   2.680  12.415  0.5507 -0.0387  0.0464
14501TIP3   OH264993   0.610   2.659   1.648  0.5111  0.4280 -0.1884
14501TIP3    H164994   0.632   2.693   1.735  1.4110 -0.3219 -0.1173
14501TIP3    H264995   0.587   2.736   1.597 -0.3320  0.8474  0.8059
14502TIP3   OH264996   3.451   4.068  13.408 -0.5008 -0.3174  0.3159
14502TIP3    H164997   3.423   4.088  13.498  0.4224 -1.4452  0.8713
14502TIP3    H264998   3.408   3.985  13.388  0.2686 -0.6753  0.1584
14503TIP3   OH264999   5.134   3.921   0.960 -0.2308 -0.1092  0.2441
14503TIP3    H165000   5.125   4.009   0.997  2.8165  0.9925 -1.4469
14503TIP3    H265001   5.108   3.931   0.868 -1.0447 -1.2839  0.3260
14504TIP3   OH265002   5.230   4.073  13.909 -0.2175  0.6699 -0.0180
14504TIP3    H165003   5.158   4.085  13.971  0.1612 -0.5547  0.6741
14504TIP3    H265004   5.306   4.109  13.954  0.0275 -0.0782  0.1698
14505TIP3   OH265005   3.035   0.665  12.406 -0.1860 -0.0716 -0.0510
14505TIP3    H165006   3.056   0.571  12.404  1.2832  0.2346  0.3255
14505TIP3    H265007   2.944   0.668  12.434 -0.5500 -1.4366 -1.0114
14506TIP3   OH265008   2.715   2.515   5.051 -0.2217 -0.2216 -0.5018
14506TIP3    H165009   2.806   2.523   5.080 -0.0337  0.8192 -1.3481
14506TIP3    H265010   2.673   2.594   5.084 -0.9326 -0.8958  0.2386
14507TIP3   OH265011   0.973   3.569  11.533  0.0199  0.0013 -0.3509
14507TIP3    H165012   1.053   3.579  11.584  0.3039  1.4874 -1.0602
14507TIP3    H265013   0.973   3.478  11.506  1.4446 -0.0189 -0.3016
14508TIP3   OH265014   6.460   1.891   3.677  0.4018  0.4064 -0.1987
14508TIP3    H165015   6.389   1.954   3.692  0.9541  0.9846  0.0490
14508TIP3    H265016   6.529   1.943   3.634  0.4660 -0.2721 -0.9338
14509TIP3   OH265017   0.527   2.362  13.478 -0.1329  0.0011  0.4772
14509TIP3    H165018   0.570   2.289  13.522 -1.9430 -0.9960  0.6053
14509TIP3    H265019   0.545   2.437  13.535 -0.1948 -0.7749  1.5414
14510TIP3   OH265020   2.177   5.949   5.446  0.0211  0.3166 -0.0272
14510TIP3    H165021   2.101   5.907   5.486 -0.0466  0.1641 -0.3166
14510TIP3    H265022   2.203   5.890   5.375 -0.4766  1.0989 -0.8599
14511TIP3   OH265023   3.699   4.850  14.449  0.5785  0.7461  0.4220
14511TIP3    H165024   3.632   4.785  14.473  0.2286  1.4525  1.4126
14511TIP3    H265025   3.679   4.926  14.504  1.2124  1.5621 -0.4570
14512TIP3   OH265026   2.560   0.106   1.017 -1.0529 -0.1581 -0.2079
14512TIP3    H165027   2.642   0.058   1.027 -0.4046  1.0399  0.4017
14512TIP3    H265028   2.549   0.152   1.101 -0.3783  2.6795 -1.6040
14513TIP3   OH265029   2.123   0.589  14.515  0.3355 -0.2232  0.1947
14513TIP3    H165030   2.102   0.679  14.540  0.9480 -0.3534  1.2050
14513TIP3    H265031   2.126   0.591  14.419 -2.2962  0.2265  0.0757
14514TIP3   OH265032   4.772   6.600  14.172 -0.4333 -0.7538  0.0565
14514TIP3    H165033   4.836   6.588  14.102 -1.5256  0.1659 -1.1187
14514TIP3    H265034   4.800   6.681  14.215 -1.1956  0.0192 -0.8909
14515TIP3   OH265035   4.445   2.063  13.670 -0.3013  0.0579  0.5389
14515TIP3    H165036   4.377   2.098  13.614 -0.7976 -0.7134  0.6480
14515TIP3    H265037   4.422   1.970  13.681  1.2922 -0.4456 -0.2131
14516TIP3   OH265038   1.130   1.233  11.102  0.1649  0.4887 -0.0359
14516TIP3    H165039   1.202   1.196  11.052 -1.5294 -0.7378 -1.6335
14516TIP3    H265040   1.129   1.326  11.079  0.4937  0.2699 -0.9209
14517TIP3   OH265041   6.555   0.644   3.327  0.3996  0.0459  0.2863
14517TIP3    H165042   6.509   0.636   3.411  2.0200 -1.0182  1.0862
14517TIP3    H265043   6.522   0.572   3.274  1.1087 -0.6926  0.8472
14518TIP3   OH265044   1.561   6.255   3.352  0.0111 -0.2271  0.3006
14518TIP3    H165045   1.648   6.221   3.333  0.7911  0.7682  1.8928
14518TIP3    H265046   1.545   6.231   3.443 -0.8217  0.7374  0.4256
14519TIP3   OH265047   4.502   4.221   1.427  0.2853  0.2834  0.1424
14519TIP3    H165048   4.547   4.137   1.428 -1.5536 -0.7342  2.1866
14519TIP3    H265049   4.412   4.200   1.402  0.1340  1.8520 -0.7225
14520TIP3   OH265050   5.492   1.717  15.999  0.4444  0.1148  0.0478
14520TIP3    H165051   5.454   1.637  15.962 -0.4326 -0.1760  1.5211
14520TIP3    H265052   5.419   1.779  16.002  0.9297  0.7187 -0.3293
14521TIP3   OH265053   1.230   2.493  15.277 -0.3531  0.1295 -0.0056
14521TIP3    H165054   1.230   2.453  15.364 -1.1959 -2.0080 -0.9502
14521TIP3    H265055   1.249   2.421  15.218 -0.2256  1.4796 -1.6335
14522TIP3   OH265056   4.815   3.813  17.263  0.4236  0.6460 -0.4290
14522TIP3    H165057   4.765   3.885  17.224 -0.2604  0.4286  0.0327
14522TIP3    H265058   4.752   3.769  17.320  0.8513 -0.2765 -0.6564
14523TIP3   OH265059   5.127   5.335  12.180  0.0413 -0.3186 -0.4433
14523TIP3    H165060   5.164   5.423  12.181  1.2393 -0.8120  1.4467
14523TIP3    H265061   5.197   5.281  12.143  0.9015 -1.0968  2.2024
14524TIP3   OH265062   4.983   3.454   6.235 -0.3127 -0.1409 -0.0471
14524TIP3    H165063   4.983   3.458   6.330 -0.1455 -0.9294 -0.0096
14524TIP3    H265064   4.898   3.416   6.212 -0.9006  1.2669 -0.2799
14525TIP3   OH265065   4.853   3.071   5.510 -0.0177  0.8711  0.0342
14525TIP3    H165066   4.879   3.002   5.571 -2.4139  0.2844  0.4479
14525TIP3    H265067   4.801   3.025   5.443  0.8516  1.8299 -1.3370
14526TIP3   OH265068   6.054   4.120   2.354  0.2391  0.2235 -0.3155
14526TIP3    H165069   6.132   4.064   2.366 -0.8176 -0.6707  2.7398
14526TIP3    H265070   5.980   4.061   2.368 -1.0025  1.3418 -2.0005
14527TIP3   OH265071   1.003   6.130   3.905 -0.5203 -0.2797  0.0535
14527TIP3    H165072   0.918   6.168   3.927 -0.3606 -0.2246  0.5607
14527TIP3    H265073   0.983   6.066   3.836 -0.9771 -0.2948  0.1992
14528TIP3   OH265074   3.374   2.820  15.887  0.7878  0.3034  0.2007
14528TIP3    H165075   3.452   2.829  15.942  1.2533 -0.4577 -0.3219
14528TIP3    H265076   3.308   2.873  15.931  1.2782  0.0661  1.2520
14529TIP3   OH265077   6.697   4.898   2.445  0.1991  0.1641 -0.5553
14529TIP3    H165078   6.684   4.814   2.488 -1.8258  0.6009 -0.2512
14529TIP3    H265079   6.641   4.895   2.368 -0.3712  1.4537 -0.2142
14530TIP3   OH265080   6.249   5.775  13.827 -0.4853 -0.2116  0.1866
14530TIP3    H165081   6.342   5.797  13.819 -0.2330 -1.2684  0.1169
14530TIP3    H265082   6.219   5.828  13.901  0.3098 -0.2930  0.5806
14531TIP3   OH265083   6.654   3.820  17.285 -0.3997 -0.1381 -0.0761
14531TIP3    H165084   6.593   3.893  17.276  1.2641  1.1755 -0.9379
14531TIP3    H265085   6.598   3.743  17.295 -2.1818  1.1650  0.1939
14532TIP3   OH265086   4.428   3.107  14.860  0.3384  0.2849 -0.1164
14532TIP3    H165087   4.391   3.153  14.784  1.9489 -0.6752 -1.5088
14532TIP3    H265088   4.513   3.149  14.874  0.5796 -0.3642  0.3820
14533TIP3   OH265089   4.764   3.066   3.881  0.1884  0.3259  0.2530
14533TIP3    H165090   4.751   2.987   3.829  0.3344 -0.1860  0.9879
14533TIP3    H265091   4.745   3.039   3.971  1.4114  0.8265  0.6628
14534TIP3   OH265092   2.437   0.585  14.299  0.0342  0.1710  0.1578
14534TIP3    H165093   2.430   0.680  14.309 -1.4822  0.4112 -2.6623
14534TIP3    H265094   2.522   0.571  14.257 -0.0143  0.3190  0.0123
14535TIP3   OH265095   1.899   6.585  16.326 -0.2460  0.4614 -0.4593
14535TIP3    H165096   1.907   6.660  16.267  0.0904  0.6171 -0.2115
14535TIP3    H265097   1.846   6.522  16.277  0.2253  0.4982 -1.0174
14536TIP3   OH265098   3.425   0.969   0.875 -0.0610 -0.4453 -0.3740
14536TIP3    H165099   3.435   0.960   0.969  0.0494  0.2466 -0.3213
14536TIP3    H265100   3.361   1.038   0.863  0.9137  0.4080 -0.8164
14537TIP3   OH265101   5.817   4.301   4.639  0.1053  0.5030 -0.5193
14537TIP3    H165102   5.729   4.275   4.612  0.5303 -0.0282 -1.4071
14537TIP3    H265103   5.831   4.386   4.597 -1.1553  2.0503  2.1149
14538TIP3   OH265104   1.223   5.525  14.846 -0.4202  0.1308  0.4866
14538TIP3    H165105   1.196   5.615  14.827 -1.8479 -0.4224 -0.1963
14538TIP3    H265106   1.176   5.503  14.926 -0.9807 -0.3865  0.0227
14539TIP3   OH265107   0.473   5.386  12.466  0.2346  0.8192  0.0063
14539TIP3    H165108   0.481   5.294  12.440 -0.1066  1.0777 -1.0327
14539TIP3    H265109   0.539   5.397  12.534  0.9959  0.0621 -0.5943
14540TIP3   OH265110   4.844   0.813   2.489  0.1013 -0.2471 -0.1553
14540TIP3    H165111   4.769   0.861   2.526 -0.7684 -0.9705 -0.9681
14540TIP3    H265112   4.885   0.772   2.565  0.0600  0.6870  0.3797
14541TIP3   OH265113   3.979   6.574  11.872  0.0088  0.4259  0.2875
14541TIP3    H165114   4.068   6.591  11.902  0.2948  0.0822 -0.3596
14541TIP3    H265115   3.940   6.522  11.943 -0.0193  1.4781  1.0490
14542TIP3   OH265116   6.163   5.063   5.372 -0.3717 -0.1042  0.1808
14542TIP3    H165117   6.245   5.099   5.404 -1.0488  0.1137  1.7191
14542TIP3    H265118   6.100   5.135   5.381 -0.2914  0.4074 -2.9588
14543TIP3   OH265119   1.430   3.748  15.046  0.2308  0.2691  0.0135
14543TIP3    H165120   1.360   3.718  15.104  0.8329 -0.1500  0.5276
14543TIP3    H265121   1.452   3.672  14.993  0.5181  0.3135  0.0686
14544TIP3   OH265122   1.153   4.405  11.324  0.0702 -0.3060 -0.0987
14544TIP3    H165123   1.095   4.345  11.370  1.0514  0.3739  2.1174
14544TIP3    H265124   1.115   4.492  11.339  0.7602 -0.0111 -0.0395
14545TIP3   OH265125   2.585   2.955   0.656  0.3582 -0.0373 -0.4308
14545TIP3    H165126   2.645   2.910   0.716 -0.0741 -0.8113 -0.5743
14545TIP3    H265127   2.637   3.027   0.619  0.0889  1.5645  2.2166
14546TIP3   OH265128   0.746   4.018   5.755 -0.5625  0.3734  0.4297
14546TIP3    H165129   0.823   4.045   5.805 -0.4603 -0.3591  0.6709
14546TIP3    H265130   0.748   3.922   5.757 -0.6209  0.3291 -0.8579
14547TIP3   OH265131   4.931   3.214  14.550  0.2162 -0.1274  0.8677
14547TIP3    H165132   4.990   3.165  14.492  0.3328  0.2473  0.6661
14547TIP3    H265133   4.845   3.175  14.535 -0.0461  0.9793 -0.7348
14548TIP3   OH265134   1.109   3.478  12.300 -0.6268 -0.3769  0.3519
14548TIP3    H165135   1.134   3.401  12.249 -0.4767 -0.0774 -0.0280
14548TIP3    H265136   1.138   3.552  12.247  2.3413 -0.0884  2.3351
14549TIP3   OH265137   0.584   1.004   3.018  0.4221 -0.0790 -0.0296
14549TIP3    H165138   0.536   0.949   2.956  1.4234 -0.5979 -0.3514
14549TIP3    H265139   0.549   0.980   3.104  0.4980 -0.8569 -0.2130
14550TIP3   OH265140   3.562   3.476  16.908 -0.4343 -0.3314  0.2160
14550TIP3    H165141   3.493   3.536  16.878 -0.4145 -0.6665 -0.5142
14550TIP3    H265142   3.601   3.521  16.983 -0.4690  0.5323 -0.2725
14551TIP3   OH265143   6.150   3.728  11.351  0.3998  1.0399 -0.2986
14551TIP3    H165144   6.118   3.729  11.261  2.0409 -1.8290 -0.9671
14551TIP3    H265145   6.245   3.736  11.342  0.6174  0.1466  1.1624
14552TIP3   OH265146   2.037   4.365  10.541  0.0285  0.0982  0.3943
14552TIP3    H165147   2.001   4.453  10.547 -1.9928 -0.6599  0.0043
14552TIP3    H265148   2.126   4.377  10.507 -0.9184  1.8553 -1.6281
14553TIP3   OH265149   1.239   6.253  16.046 -0.4667 -0.3992  0.1243
14553TIP3    H165150   1.319   6.280  16.001 -1.0958  1.4567  0.0674
14553TIP3    H265151   1.171   6.260  15.979 -1.5007  2.9224  1.4542
14554TIP3   OH265152   5.965   4.977   5.201 -0.2180  0.9656 -0.1558
14554TIP3    H165153   6.006   4.996   5.285  2.0783 -0.1964 -0.9495
14554TIP3    H265154   6.012   5.032   5.138 -1.5145  1.3895 -0.7658
14555TIP3   OH265155   4.782   5.268   1.666 -0.7565 -0.5107  0.3192
14555TIP3    H165156   4.698   5.230   1.640 -0.8057 -0.6654  0.7010
14555TIP3    H265157   4.813   5.212   1.737 -0.0623 -0.7889 -0.1917
14556TIP3   OH265158   1.372   1.555   0.965 -0.4193 -0.4309  0.0751
14556TIP3    H165159   1.286   1.515   0.974 -0.5502  0.2714  2.0179
14556TIP3    H265160   1.428   1.484   0.934 -1.2478 -1.3852  0.7432
14557TIP3   OH265161   5.615   5.682  14.653  0.4242  0.3233 -0.2914
14557TIP3    H165162   5.680   5.664  14.722  0.2821  0.1364 -0.2069
14557TIP3    H265163   5.539   5.630  14.678 -0.6419  2.4165  0.9259
14558TIP3   OH265164   3.818   6.723   0.172 -0.5126 -0.4889  0.1251
14558TIP3    H165165   3.882   6.794   0.159  1.7677 -2.0607  2.2692
14558TIP3    H265166   3.747   6.744   0.111  1.8076  1.5995 -2.0313
14559TIP3   OH265167   3.263   5.278   2.970  0.3975 -0.2821  0.1557
14559TIP3    H165168   3.343   5.307   3.013  1.6286 -1.9589 -0.9711
14559TIP3    H265169   3.198   5.343   2.995  1.7819  0.3645  2.1641
14560TIP3   OH265170   1.664   3.227   5.167 -0.4628  0.2889  0.0817
14560TIP3    H165171   1.581   3.181   5.166 -0.1788 -0.2455  1.0733
14560TIP3    H265172   1.701   3.211   5.080 -1.6969  1.1162 -0.6200
14561TIP3   OH265173   6.056   5.084   0.255 -0.5559 -0.9157  0.4488
14561TIP3    H165174   6.079   5.009   0.309  0.5884 -0.3190  0.8084
14561TIP3    H265175   5.965   5.069   0.231  0.4226 -3.8419 -1.7855
14562TIP3   OH265176   6.350   1.699  16.108 -0.0236  0.2867 -0.6054
14562TIP3    H165177   6.380   1.766  16.169 -1.3622  0.6960 -0.3730
14562TIP3    H265178   6.413   1.702  16.036  0.1682  1.5062 -0.4004
14563TIP3   OH265179   5.049   1.330  15.207  0.3074  0.0542  0.3717
14563TIP3    H165180   5.047   1.272  15.131  0.0035  0.3853  0.1265
14563TIP3    H265181   5.014   1.413  15.175 -1.8037 -0.4034  1.3863
14564TIP3   OH265182   6.258   6.565   5.907 -0.0685  0.0365  0.8629
14564TIP3    H165183   6.290   6.560   5.997 -1.1523  1.3071  1.3461
14564TIP3    H265184   6.338   6.566   5.854  0.6204  0.2129  1.8652
14565TIP3   OH265185   1.276   5.021   2.934 -0.1270  0.1028  0.2764
14565TIP3    H165186   1.270   4.930   2.963  0.9315 -0.2995 -0.7128
14565TIP3    H265187   1.254   5.018   2.841 -1.8162  1.1314  0.6180
14566TIP3   OH265188   4.602   5.874  17.164  0.2874 -0.4594  0.1824
14566TIP3    H165189   4.557   5.791  17.144  0.2345 -0.6125  0.9290
14566TIP3    H265190   4.691   5.848  17.187  0.1823 -0.3309  0.7257
14567TIP3   OH265191   2.278   4.226  15.460 -0.7839 -0.0292 -0.6281
14567TIP3    H165192   2.253   4.300  15.405 -2.1710  1.2750  1.6815
14567TIP3    H265193   2.351   4.258  15.513 -1.5197 -0.2477  0.5269
14568TIP3   OH265194   5.671   5.932  13.288  0.0738 -0.1307 -0.6434
14568TIP3    H165195   5.612   5.988  13.337  0.6208 -0.4988  0.4470
14568TIP3    H265196   5.616   5.893  13.220 -0.6371  0.5518 -0.4682
14569TIP3   OH265197   1.127   3.521  12.593  0.1000  0.2865 -0.0304
14569TIP3    H165198   1.035   3.547  12.597 -0.4956 -1.5692 -0.8391
14569TIP3    H265199   1.148   3.521  12.499  0.0452 -2.1223 -0.0660
14570TIP3   OH265200   2.548   2.050   3.573  0.0115 -0.4548 -0.0278
14570TIP3    H165201   2.564   2.144   3.571 -1.9460 -0.0743  0.4232
14570TIP3    H265202   2.453   2.043   3.561 -0.0201 -2.3116  1.2147
14571TIP3   OH265203   5.345   4.085  15.165 -0.3558  0.4074  0.1451
14571TIP3    H165204   5.397   4.065  15.243 -0.2642 -0.7950 -0.2128
14571TIP3    H265205   5.258   4.051  15.185 -0.1807 -0.4453 -0.5024
14572TIP3   OH265206   1.375   5.727   4.931 -0.8234  0.8625  0.0688
14572TIP3    H165207   1.409   5.761   5.014  2.1287 -0.5398 -0.4967
14572TIP3    H265208   1.441   5.665   4.901 -2.8575 -0.2999 -2.2889
14573TIP3   OH265209   1.494   0.230   5.669 -0.2145  0.0271 -1.1337
14573TIP3    H165210   1.586   0.230   5.693 -0.0502  1.2311 -1.7073
14573TIP3    H265211   1.492   0.193   5.580  0.0103  2.1698 -2.0681
14574TIP3   OH265212   5.506   2.637   5.701 -0.3053  0.2994 -0.5368
14574TIP3    H165213   5.543   2.622   5.614 -0.4509 -0.4550 -0.4787
14574TIP3    H265214   5.415   2.661   5.685 -0.1422  0.8492 -0.6251
14575TIP3   OH265215   0.595   1.481   2.549 -0.1893 -0.5133 -0.1903
14575TIP3    H165216   0.658   1.478   2.620  0.6244 -0.5816 -0.9146
14575TIP3    H265217   0.510   1.477   2.592  0.2842  0.2630  0.8288
14576TIP3   OH265218   0.105   1.501   4.411  0.2425 -0.1921  0.0956
14576TIP3    H165219   0.029   1.469   4.362  0.8032  0.6155 -1.3348
14576TIP3    H265220   0.068   1.531   4.494 -0.8390 -0.8600 -0.1265
14577TIP3   OH265221   4.310   0.750  16.591  0.2917 -0.1070 -0.0415
14577TIP3    H165222   4.218   0.726  16.580  0.4332 -0.9864  0.5525
14577TIP3    H265223   4.345   0.682  16.650  1.1511  0.5947  0.2699
14578TIP3   OH265224   4.787   5.841  12.107  0.6890 -0.1398 -0.5335
14578TIP3    H165225   4.830   5.758  12.128 -0.7019 -0.4681  1.1452
14578TIP3    H265226   4.794   5.893  12.186 -2.4060 -0.4116  0.0018
14579TIP3   OH265227   6.542   4.140  12.083 -0.0466 -0.8201 -0.0143
14579TIP3    H165228   6.551   4.050  12.116  0.7464 -1.0145 -0.7455
14579TIP3    H265229   6.622   4.184  12.110 -0.0764 -0.5548 -0.3570
14580TIP3   OH265230   5.243   3.822   2.312 -0.0964  0.7340  0.3639
14580TIP3    H165231   5.258   3.732   2.283  1.4221  1.7009 -2.0267
14580TIP3    H265232   5.149   3.828   2.324 -0.3941 -0.7251 -1.0584
14581TIP3   OH265233   4.220   1.247  15.325  0.1225 -0.3234  0.0812
14581TIP3    H165234   4.262   1.189  15.261 -1.3489 -1.1962 -0.1440
14581TIP3    H265235   4.169   1.187  15.380  0.8380  0.4949  1.6414
14582TIP3   OH265236   1.263   4.750  11.246  0.1148  0.2326  0.0990
14582TIP3    H165237   1.283   4.793  11.163  0.4857  1.4564  0.8004
14582TIP3    H265238   1.323   4.676  11.250 -1.7887 -1.5115 -1.9811
14583TIP3   OH265239   6.581   0.627  14.812  0.0265  0.0728 -0.3152
14583TIP3    H165240   6.509   0.690  14.813 -0.9822 -1.0096 -2.0334
14583TIP3    H265241   6.538   0.542  14.818  1.3329 -0.5038  1.1782
14584TIP3   OH265242   6.219   2.217  14.283 -0.3190 -0.4191 -0.0447
14584TIP3    H165243   6.209   2.284  14.351 -0.5515 -0.1989 -0.2916
14584TIP3    H265244   6.309   2.228  14.252 -0.4631 -0.0000 -0.3143
14585TIP3   OH265245   6.076   6.247   5.619  0.0996  0.0147  0.2006
14585TIP3    H165246   5.985   6.236   5.649 -0.3910  0.3888 -1.0853
14585TIP3    H265247   6.085   6.342   5.606  1.1514  0.1380  1.7299
14586TIP3   OH265248   4.284   3.552  16.337 -0.8485 -0.0179  0.0078
14586TIP3    H165249   4.220   3.614  16.372  0.1976  0.1054  1.8066
14586TIP3    H265250   4.270   3.473  16.390 -0.6555 -0.5472 -0.7366
14587TIP3   OH265251   2.988   1.873  13.975 -0.8489 -0.2843  0.1420
14587TIP3    H165252   2.913   1.825  13.940 -0.8712 -0.4743  0.4483
14587TIP3    H265253   2.989   1.955  13.926  0.1739 -1.2709 -1.5777
14588TIP3   OH265254   6.447   5.256   2.217  0.5263 -0.8254  0.6196
14588TIP3    H165255   6.454   5.346   2.183 -0.0434 -0.5773  1.1578
14588TIP3    H265256   6.524   5.212   2.181  1.5562  0.2440  1.4643
14589TIP3   OH265257   1.444   1.346   0.285  0.4612  0.0807 -0.2223
14589TIP3    H165258   1.369   1.402   0.264  0.3337  1.2571  3.0107
14589TIP3    H265259   1.406   1.259   0.300 -0.0053  0.2448 -0.4581
14590TIP3   OH265260   1.551   2.738   0.636  0.4792 -0.0402  0.1882
14590TIP3    H165261   1.623   2.800   0.643  0.1766  0.2020  1.2847
14590TIP3    H265262   1.592   2.653   0.619  1.0347  0.0416  1.1324
14591TIP3   OH265263   4.683   1.232  15.136  0.0712 -0.0347  0.7968
14591TIP3    H165264   4.648   1.321  15.138  0.3326  0.1155 -1.2736
14591TIP3    H265265   4.659   1.196  15.222 -0.1317  1.9731  1.6170
14592TIP3   OH265266   5.849   0.643   2.976 -0.6806 -0.0576  0.0163
14592TIP3    H165267   5.822   0.568   3.028 -0.3560 -0.4621 -0.3958
14592TIP3    H265268   5.813   0.719   3.022 -0.4779 -0.4229  0.7659
14593TIP3   OH265269   3.242   6.384   1.914 -0.4472  0.0731 -0.1645
14593TIP3    H165270   3.247   6.370   1.819 -2.7736  0.8037 -0.4332
14593TIP3    H265271   3.284   6.468   1.928  0.4239 -0.3080 -0.4702
14594TIP3   OH265272   6.275   4.321  13.374 -0.0768  0.7172 -0.8651
14594TIP3    H165273   6.222   4.376  13.432  0.7417  1.2182 -0.5790
14594TIP3    H265274   6.333   4.383  13.330  0.8139  0.0785 -0.5848
14595TIP3   OH265275   3.249   6.298   0.257 -0.2360  0.2834  0.1217
14595TIP3    H165276   3.238   6.301   0.353  0.2802  0.5140  0.1745
14595TIP3    H265277   3.177   6.242   0.227 -1.5106  1.7132  0.4635
14596TIP3   OH265278   3.120   1.840  16.284 -0.3140 -0.4391  0.4003
14596TIP3    H165279   3.030   1.840  16.317 -0.6926  1.2673 -0.5158
14596TIP3    H265280   3.167   1.900  16.342  0.3734 -1.7343  1.1981
14597TIP3   OH265281   4.931   0.944   5.048 -0.1921 -0.1906  0.4051
14597TIP3    H165282   4.949   0.967   5.139  1.1172 -1.3807  0.4595
14597TIP3    H265283   4.893   0.856   5.052 -0.9211  0.0928 -0.1361
14598TIP3   OH265284   1.853   3.287   4.287 -0.0724 -0.3753  0.0822
14598TIP3    H165285   1.807   3.258   4.366 -0.3654 -0.2695 -0.0531
14598TIP3    H265286   1.849   3.212   4.228 -2.0900  0.4395 -0.8301
14599TIP3   OH265287   0.363   2.437  14.085 -0.0400  0.3260 -0.1709
14599TIP3    H165288   0.301   2.376  14.124 -0.8533  2.0709  1.3286
14599TIP3    H265289   0.445   2.387  14.077 -0.3623 -0.6194  2.0977
14600TIP3   OH265290   4.965   3.953  13.509 -0.5117 -0.5147  0.0510
14600TIP3    H165291   4.876   3.986  13.495 -0.0513  0.3843 -0.8825
14600TIP3    H265292   5.014   4.030  13.540 -0.7691 -1.7338  3.6496
14601TIP3   OH265293   5.871   2.504   5.854 -0.2652 -0.1185 -0.7801
14601TIP3    H165294   5.817   2.464   5.921 -0.4498  0.6987 -0.4307
14601TIP3    H265295   5.851   2.598   5.861  1.3951  0.2141 -0.4707
14602TIP3   OH265296   4.961   6.121   4.556 -0.3652 -0.5545  0.5420
14602TIP3    H165297   5.021   6.054   4.524 -0.0758  0.0469 -0.2066
14602TIP3    H265298   5.016   6.178   4.610 -0.6305 -0.9716  1.2561
14603TIP3   OH265299   5.394   5.395  11.431  0.3749  0.2991 -0.1784
14603TIP3    H165300   5.436   5.451  11.496  1.9523 -0.2143 -0.7349
14603TIP3    H265301   5.397   5.446  11.350 -0.7302  0.5481 -0.0743
14604TIP3   OH265302   5.007   3.654  16.027  0.3397 -0.1679  0.5478
14604TIP3    H165303   5.053   3.733  15.999  0.2136 -1.0805 -2.3836
14604TIP3    H265304   4.923   3.685  16.060  0.3614  0.9282 -0.4272
14605TIP3   OH265305   1.528   6.620   0.258  0.2894 -0.2379 -0.0782
14605TIP3    H165306   1.463   6.571   0.208 -1.0344  2.4601 -1.0801
14605TIP3    H265307   1.494   6.618   0.348 -1.1320  0.9521 -0.5517
14606TIP3   OH265308   5.373   5.209   1.704  0.4091  0.4109 -0.5416
14606TIP3    H165309   5.329   5.294   1.700  0.2407  0.2494 -2.4315
14606TIP3    H265310   5.302   5.145   1.708  0.5226  0.2929 -0.3789
14607TIP3   OH265311   0.402   1.154   2.173 -0.2576 -0.2268  0.1584
14607TIP3    H165312   0.390   1.071   2.220 -1.1706 -0.2618 -0.1186
14607TIP3    H265313   0.493   1.152   2.144 -0.1332 -0.9158  0.5816
14608TIP3   OH265314   2.201   1.269   0.383 -0.5304 -0.0832  0.5411
14608TIP3    H165315   2.135   1.201   0.388 -1.0416  0.4054  0.5207
14608TIP3    H265316   2.238   1.274   0.471 -0.8503 -0.0359  0.6731
14609TIP3   OH265317   0.207   3.248  12.922 -0.0337 -0.0045  0.0243
14609TIP3    H165318   0.140   3.281  12.982  0.1450  0.7846 -0.1996
14609TIP3    H265319   0.164   3.246  12.837  0.1597  0.2867 -0.0800
14610TIP3   OH265320   2.066   3.567  12.277 -0.1011  0.3850  0.3489
14610TIP3    H165321   2.005   3.640  12.291 -1.8360 -1.0471  0.3452
14610TIP3    H265322   2.077   3.529  12.364 -2.2409 -1.6935 -0.2160
14611TIP3   OH265323   0.297   2.842  13.163 -0.6546  0.2096  0.0237
14611TIP3    H165324   0.251   2.897  13.099 -2.5921 -1.7925 -0.3593
14611TIP3    H265325   0.317   2.761  13.115  0.0993 -0.3387  1.2466
14612TIP3   OH265326   5.112   5.838  16.020  0.0898  0.3713 -0.3994
14612TIP3    H165327   5.168   5.761  16.034 -0.2226  0.5999  2.3138
14612TIP3    H265328   5.080   5.828  15.931  3.4250 -0.4350 -1.5932
14613TIP3   OH265329   3.727   4.041  11.359 -0.2594 -0.0206 -0.2400
14613TIP3    H165330   3.749   4.121  11.311  0.5623 -0.0317  0.1160
14613TIP3    H265331   3.648   4.009  11.316  1.5957 -1.1579 -2.9990
14614TIP3   OH265332   5.686   3.268  15.312 -0.6846  0.3613 -0.5194
14614TIP3    H165333   5.646   3.353  15.329  0.0271  0.0901  2.7383
14614TIP3    H265334   5.780   3.286  15.309 -0.6065 -0.1137 -1.2111
14615TIP3   OH265335   4.754   1.665  13.003 -0.0257  0.8439  0.0496
14615TIP3    H165336   4.738   1.726  13.074  0.0471  1.7209 -0.6800
14615TIP3    H265337   4.707   1.703  12.928 -1.2394 -0.7539 -0.0359
14616TIP3   OH265338   2.349   3.341   1.343 -0.4677  0.6383  0.3487
14616TIP3    H165339   2.383   3.337   1.254 -0.1842  1.8584  0.3984
14616TIP3    H265340   2.416   3.298   1.397 -1.1002 -1.0131 -0.1429
14617TIP3   OH265341   5.904   1.218   2.051  0.0291  0.0200 -0.5250
14617TIP3    H165342   5.917   1.275   2.127 -1.0225 -0.7089  0.2100
14617TIP3    H265343   5.940   1.134   2.077  1.5112  0.2833 -1.5879
14618TIP3   OH265344   1.970   2.007  10.829 -0.4542  0.5059  0.7188
14618TIP3    H165345   1.980   2.006  10.924  2.5972 -1.9971  0.4882
14618TIP3    H265346   2.058   2.027  10.796 -0.8859 -1.1667 -1.5723
14619TIP3   OH265347   4.589   5.315   3.212 -0.4149 -0.5212  0.1725
14619TIP3    H165348   4.668   5.265   3.195  0.1394  0.4825 -0.2869
14619TIP3    H265349   4.548   5.326   3.126 -0.6494 -0.3908  0.2986
14620TIP3   OH265350   1.808   3.095  16.574  0.4501  0.3629 -0.5414
14620TIP3    H165351   1.718   3.101  16.608  0.1259 -0.1150 -1.2959
14620TIP3    H265352   1.816   3.006  16.541  1.0066  0.5832 -1.0169
14621TIP3   OH265353   0.368   3.887  12.558 -0.4199  0.5426  0.4727
14621TIP3    H165354   0.278   3.854  12.553 -0.5087  0.5240  1.9425
14621TIP3    H265355   0.362   3.966  12.612 -0.0639  2.5142 -2.2972
14622TIP3   OH265356   1.657   5.121   3.378 -0.1166 -0.3144 -0.1651
14622TIP3    H165357   1.630   5.087   3.293 -1.3601  0.5160 -0.1106
14622TIP3    H265358   1.639   5.049   3.439 -0.3775 -0.4633 -0.4169
14623TIP3   OH265359   2.684   3.427   5.537 -0.5477  0.3496 -0.3337
14623TIP3    H165360   2.768   3.461   5.506 -0.9141  0.4844 -1.1989
14623TIP3    H265361   2.657   3.488   5.606 -0.3235  0.7689 -0.6131
14624TIP3   OH265362   0.065   6.740   1.121  0.9350 -0.2337  0.0671
14624TIP3    H165363   0.096   6.692   1.198 -0.7645 -0.8924  0.3695
14624TIP3    H265364  -0.010   6.689   1.090  0.5385  0.9806 -0.9978
14625TIP3   OH265365   3.815   4.612   0.758  0.0624 -0.1370  0.1036
14625TIP3    H165366   3.826   4.521   0.789  1.2450 -0.4084 -1.0875
14625TIP3    H265367   3.895   4.630   0.709 -0.1992  1.5481  0.2895
14626TIP3   OH265368   2.168   4.498  14.745  0.2483 -0.4124 -0.1611
14626TIP3    H165369   2.182   4.453  14.829  1.3221 -0.3401 -0.2975
14626TIP3    H265370   2.102   4.444  14.700  0.1747 -0.8297  0.4397
14627TIP3   OH265371   6.096   5.603   2.892  0.1128  0.0038 -0.0508
14627TIP3    H165372   6.075   5.582   2.983 -0.9708 -0.9827 -0.5230
14627TIP3    H265373   6.158   5.676   2.898  0.7651 -0.6633  1.4935
14628TIP3   OH265374   3.619   4.614   6.694 -0.4302 -0.2052 -0.0389
14628TIP3    H165375   3.613   4.552   6.766  0.6313 -0.0365  0.2066
14628TIP3    H265376   3.608   4.560   6.615 -0.4419 -0.5711  0.2105
14629TIP3   OH265377   0.489   5.467   2.014  0.3793  0.3207 -0.2923
14629TIP3    H165378   0.488   5.488   1.921  0.4776 -0.8282 -0.5621
14629TIP3    H265379   0.539   5.385   2.020  0.2687  0.3158  0.7526
14630TIP3   OH265380   6.562   4.525  16.506 -0.6102 -0.1670 -0.4764
14630TIP3    H165381   6.614   4.478  16.571 -1.6705 -3.0601 -1.6281
14630TIP3    H265382   6.477   4.538  16.547 -0.3022  0.8689 -0.1371
14631TIP3   OH265383   6.696   0.186   3.420 -0.0636  0.0193 -0.2346
14631TIP3    H165384   6.674   0.113   3.478 -1.5796  0.5916 -0.0541
14631TIP3    H265385   6.611   0.216   3.387  0.2317  3.7684  2.2067
14632TIP3   OH265386   4.080   2.318   3.907  0.4915  0.3053 -0.2987
14632TIP3    H165387   4.152   2.258   3.923  0.4344  0.1021 -0.7837
14632TIP3    H265388   4.075   2.325   3.811 -0.9980 -0.7425 -0.3181
14633TIP3   OH265389   1.204   6.757   5.479 -0.3941 -0.4768  0.4206
14633TIP3    H165390   1.216   6.753   5.384  0.5241 -0.1858  0.5221
14633TIP3    H265391   1.279   6.710   5.515 -0.1474  0.3823  1.0343
14634TIP3   OH265392   0.190   3.390  13.322  0.0451 -0.4448  0.8241
14634TIP3    H165393   0.266   3.447  13.318  0.6423 -1.2284  0.7698
14634TIP3    H265394   0.220   3.308  13.281 -0.4220 -1.2045  1.9730
14635TIP3   OH265395   1.478   5.569   1.247 -0.3052 -0.3358 -0.3759
14635TIP3    H165396   1.508   5.660   1.238 -0.9166 -0.2228 -1.3156
14635TIP3    H265397   1.466   5.558   1.341  1.9671 -0.1578 -0.0185
14636TIP3   OH265398   3.057   4.672   0.629  0.0876  0.3959 -0.0823
14636TIP3    H165399   3.040   4.649   0.721  2.0862  0.4396  0.3238
14636TIP3    H265400   3.008   4.752   0.615  1.6221  1.6760  1.6610
14637TIP3   OH265401   4.556   6.247  14.722 -0.3993  0.1877  0.1428
14637TIP3    H165402   4.586   6.206  14.803 -0.2669 -0.3922 -0.1995
14637TIP3    H265403   4.635   6.258  14.670 -0.5560  0.1009 -0.1136
14638TIP3   OH265404   4.602   5.045   1.183 -0.1102  0.1795  0.4140
14638TIP3    H165405   4.547   5.099   1.239 -0.5783  0.2921 -0.1489
14638TIP3    H265406   4.658   4.997   1.243 -0.4160  0.5131  0.9637
14639TIP3   OH265407   4.912   6.156   5.712 -0.0838  0.0258  0.0918
14639TIP3    H165408   4.967   6.157   5.633 -1.2470  2.1460 -0.7221
14639TIP3    H265409   4.920   6.244   5.748 -1.7962 -0.0935  0.7929
14640TIP3   OH265410   3.673   2.271   6.372  0.6199  0.5741 -0.1661
14640TIP3    H165411   3.716   2.350   6.337  1.0374 -0.9582 -3.3266
14640TIP3    H265412   3.588   2.269   6.329  0.3140 -0.2954  0.4691
14641TIP3   OH265413   3.674   1.651   6.702 -0.2999  0.0682  0.8466
14641TIP3    H165414   3.653   1.558   6.693  0.6880 -0.3016  2.1806
14641TIP3    H265415   3.624   1.679   6.779  1.0543  0.1033  1.7344
14642TIP3   OH265416   5.269   4.341  12.270  0.2635 -0.1658  0.2806
14642TIP3    H165417   5.203   4.368  12.206 -0.5015 -2.0162  0.2545
14642TIP3    H265418   5.344   4.398  12.253 -0.9487  1.2603 -0.3836
14643TIP3   OH265419   0.823   4.470   2.771 -0.1524 -0.1813 -0.4073
14643TIP3    H165420   0.880   4.394   2.759 -0.4112 -0.4296 -0.0809
14643TIP3    H265421   0.753   4.458   2.707  0.2445  0.2081 -0.9189
14644TIP3   OH265422   1.659   6.609  16.612  0.0056 -0.4863 -0.1181
14644TIP3    H165423   1.748   6.615  16.579  0.3768 -3.1389  0.3608
14644TIP3    H265424   1.606   6.655  16.546  1.8931  2.9183  0.6183
14645TIP3   OH265425   5.178   4.924   2.410  0.0546  0.4853 -0.1245
14645TIP3    H165426   5.083   4.933   2.407  0.0286  0.9103  1.6187
14645TIP3    H265427   5.211   5.005   2.371 -0.2928  0.6624 -0.0497
14646TIP3   OH265428   1.495   0.396  15.641  0.1630 -0.4455  0.0051
14646TIP3    H165429   1.411   0.441  15.633  1.2134  1.4963 -0.5203
14646TIP3    H265430   1.481   0.311  15.601 -1.7403 -0.3904  0.5161
14647TIP3   OH265431   5.356   2.562  10.931 -0.3634  0.3909 -0.0897
14647TIP3    H165432   5.400   2.502  10.870 -0.3347 -0.2245  0.5320
14647TIP3    H265433   5.395   2.647  10.913  1.5144 -0.2469  0.8619
14648TIP3   OH265434   6.746   0.170   2.111 -0.5070  0.2607 -0.4106
14648TIP3    H165435   6.808   0.243   2.113 -1.9335  1.4809 -0.2844
14648TIP3    H265436   6.750   0.138   2.021  1.0354 -0.3362 -0.1605
14649TIP3   OH265437   0.351   3.194  15.905  0.0172 -0.5138 -0.2858
14649TIP3    H165438   0.414   3.231  15.967 -1.5875  0.5517  0.7274
14649TIP3    H265439   0.347   3.101  15.927  1.6812 -0.7088 -0.7618
14650TIP3   OH265440   5.076   5.079   6.560  0.1717  0.5460 -0.4095
14650TIP3    H165441   5.124   4.996   6.555 -0.9050 -0.0056 -1.8668
14650TIP3    H265442   5.134   5.142   6.518 -0.1442 -0.0180 -1.7198
14651TIP3   OH265443   1.347   3.446  13.274 -0.2942  0.3109  0.3158
14651TIP3    H165444   1.350   3.452  13.370 -1.6982 -0.2796  0.4066
14651TIP3    H265445   1.318   3.532  13.245 -1.9857 -0.1703  0.5515
14652TIP3   OH265446   4.569   0.879   3.606  0.4784  0.0544 -0.0058
14652TIP3    H165447   4.573   0.787   3.579  1.1591  0.7311 -2.3003
14652TIP3    H265448   4.489   0.885   3.658 -1.8061 -1.0038 -3.2481
14653TIP3   OH265449   3.615   6.730  17.272  0.1934 -0.0783 -0.3822
14653TIP3    H165450   3.602   6.635  17.271 -0.4259 -0.0048  0.1101
14653TIP3    H265451   3.530   6.766  17.247  0.2882  0.3595 -0.0814
14654TIP3   OH265452   6.558   6.751  12.250  0.5668 -0.2355  0.2162
14654TIP3    H165453   6.598   6.707  12.176 -0.8979  1.5692 -1.7206
14654TIP3    H265454   6.629   6.763  12.313  1.8816 -1.5775 -0.9879
14655TIP3   OH265455   1.261   3.901  11.947  0.0845 -0.0587 -0.6701
14655TIP3    H165456   1.347   3.937  11.922 -0.5985  2.6836  0.6570
14655TIP3    H265457   1.272   3.876  12.039 -0.4980  0.2081 -0.5276
14656TIP3   OH265458   0.361   3.085   2.311 -0.3276 -0.7777  0.6982
14656TIP3    H165459   0.422   3.076   2.238 -0.5892  0.0288  0.3770
14656TIP3    H265460   0.275   3.091   2.270 -0.3866  0.7619  0.9900
14657TIP3   OH265461   5.578   4.243  11.299 -0.1860 -0.6668  0.1434
14657TIP3    H165462   5.611   4.319  11.347  0.1061 -0.6483 -0.0864
14657TIP3    H265463   5.649   4.220  11.238 -0.7115 -0.4518 -0.5534
14658TIP3   OH265464   2.994   1.665  11.934  0.4017  0.0387 -0.5070
14658TIP3    H165465   3.022   1.747  11.973 -0.0592 -1.2739  2.6901
14658TIP3    H265466   3.075   1.620  11.909  0.7706  0.1693  0.4606
14659TIP3   OH265467   5.740   4.019   2.120 -0.1416  0.1506  0.0774
14659TIP3    H165468   5.709   4.063   2.041  0.0189 -2.1104 -1.3204
14659TIP3    H265469   5.821   3.975   2.092  1.0398  1.0071  2.0696
14660TIP3   OH265470   1.367   4.960   5.368  0.1174  0.7011  0.0646
14660TIP3    H165471   1.274   4.944   5.350  0.0837  0.4840  0.4441
14660TIP3    H265472   1.406   4.873   5.372  0.4567  0.8111 -0.7288
14661TIP3   OH265473   0.696   1.696  16.722  0.6278 -0.4083  0.5829
14661TIP3    H165474   0.649   1.749  16.657 -0.1589 -0.9789  0.6792
14661TIP3    H265475   0.787   1.722  16.712  0.3272  0.5573  0.2367
14662TIP3   OH265476   2.164   3.834  14.768 -0.5985  0.1291  0.0526
14662TIP3    H165477   2.119   3.852  14.685  0.5010 -1.4541 -0.9000
14662TIP3    H265478   2.104   3.776  14.816 -0.3885 -0.4709 -0.4195
14663TIP3   OH265479   5.110   1.866  15.544  0.1332 -0.6186  0.2339
14663TIP3    H165480   5.065   1.822  15.472  0.1513 -0.3684  0.0696
14663TIP3    H265481   5.135   1.951  15.508  0.0434 -0.4512  0.5706
14664TIP3   OH265482   1.922   2.357  16.859  0.2846  0.4761 -0.6241
14664TIP3    H165483   1.903   2.450  16.870 -0.5634  0.1870  0.3807
14664TIP3    H265484   1.860   2.313  16.916 -1.8997 -0.8938 -3.8969
14665TIP3   OH265485   4.523   3.317  16.297 -0.5065 -0.3694 -0.2382
14665TIP3    H165486   4.446   3.261  16.291  0.0230 -1.1752  0.3074
14665TIP3    H265487   4.508   3.387  16.234 -1.0301 -1.3036 -1.1468
14666TIP3   OH265488   4.503   0.916  15.739  0.3678 -0.0366  0.1863
14666TIP3    H165489   4.560   0.992  15.749  1.2079 -0.5940 -0.3072
14666TIP3    H265490   4.560   0.846  15.706 -0.6662 -0.4935 -0.7138
14667TIP3   OH265491   3.728   5.865  14.295  0.3613  0.4246 -0.4475
14667TIP3    H165492   3.725   5.775  14.328  0.5716  0.9945  1.1370
14667TIP3    H265493   3.636   5.890  14.285  0.2934  0.3269 -0.0795
14668TIP3   OH265494   0.900   3.382  14.618 -0.1511 -0.2501 -0.2733
14668TIP3    H165495   0.898   3.439  14.695 -0.3348  0.2492 -0.6378
14668TIP3    H265496   0.900   3.443  14.544  0.8610 -0.7045 -0.6632
14669TIP3   OH265497   3.210   0.660  15.792  0.1884 -0.0223  0.0857
14669TIP3    H165498   3.289   0.614  15.819 -0.5187  0.3278  2.9007
14669TIP3    H265499   3.227   0.752  15.812 -0.2802  0.3026 -0.9341
14670TIP3   OH265500   1.715   4.251  12.606  0.0443 -0.6388  0.1822
14670TIP3    H165501   1.700   4.232  12.513  1.9420 -0.6041 -0.1444
14670TIP3    H265502   1.793   4.200  12.628 -0.5552 -0.8587  1.8443
14671TIP3   OH265503   1.742   3.776   1.630 -0.1909  0.2228 -0.3510
14671TIP3    H165504   1.683   3.750   1.701 -1.4726  1.5107 -0.9169
14671TIP3    H265505   1.829   3.750   1.661 -0.9354 -0.8318  0.9131
14672TIP3   OH265506   0.947   2.356   5.387  0.1975  0.1526  0.3673
14672TIP3    H165507   0.916   2.286   5.330  1.2556 -1.1180  1.2898
14672TIP3    H265508   0.909   2.436   5.351 -2.6071 -1.1077  0.4108
14673TIP3   OH265509   0.258   0.869  12.124 -0.0079  1.1623 -0.3398
14673TIP3    H165510   0.305   0.786  12.126 -0.0400  1.1164 -1.0863
14673TIP3    H265511   0.190   0.861  12.191  0.9698  1.1861  0.6611
14674TIP3   OH265512   6.091   6.394  15.400  0.5568  0.5590 -0.3317
14674TIP3    H165513   6.071   6.484  15.374 -0.8778  0.5367  0.6600
14674TIP3    H265514   6.039   6.340  15.340  0.1048  0.4379  0.1602
14675TIP3   OH265515   5.629   3.823  12.437 -0.5293  0.3984  0.4308
14675TIP3    H165516   5.540   3.827  12.403 -0.6611 -0.8066  0.5953
14675TIP3    H265517   5.662   3.913  12.432 -1.8972  0.9166  0.7473
14676TIP3   OH265518   5.769   1.487   0.351 -0.2755  0.5097  0.0873
14676TIP3    H165519   5.738   1.525   0.433  1.5697 -0.2368  1.1662
14676TIP3    H265520   5.816   1.558   0.307 -0.4968  0.6604  0.0954
14677TIP3   OH265521   4.877   0.697  15.221 -0.0205 -0.1270 -0.0541
14677TIP3    H165522   4.916   0.701  15.309  0.7420  1.9534 -0.4665
14677TIP3    H265523   4.838   0.783  15.208 -0.2611 -0.4742 -1.7108
14678TIP3   OH265524   4.168   0.932  12.158  0.4013 -0.6250 -0.0237
14678TIP3    H165525   4.140   0.970  12.075  0.9999 -1.5774 -0.6770
14678TIP3    H265526   4.115   0.976  12.225 -0.1092  0.1158 -0.9132
14679TIP3   OH265527   6.426   3.705  16.422  0.4214 -0.1928  0.2275
14679TIP3    H165528   6.504   3.673  16.377 -0.5079  0.8365 -2.2069
14679TIP3    H265529   6.353   3.679  16.365 -0.8369  0.7470  1.3748
14680TIP3   OH265530   0.495   5.408  12.973 -0.1588  0.0954  0.0501
14680TIP3    H165531   0.534   5.344  13.032  0.5831 -0.4851 -1.0659
14680TIP3    H265532   0.515   5.493  13.012  2.6836 -0.1550 -0.7500
14681TIP3   OH265533   6.775   3.868  12.903 -0.0778 -0.0429 -0.0386
14681TIP3    H165534   6.833   3.795  12.923 -0.0234 -0.0091 -0.0722
14681TIP3    H265535   6.790   3.931  12.974  1.2757  0.7646 -1.0212
14682TIP3   OH265536   2.167   3.858   1.859 -0.5380 -0.2824  0.4159
14682TIP3    H165537   2.209   3.810   1.930 -2.7955  1.0626  2.7341
14682TIP3    H265538   2.239   3.907   1.818  1.0670 -2.3472  0.6490
14683TIP3   OH265539   3.560   2.694  13.563  1.0583  0.6410  0.0794
14683TIP3    H165540   3.590   2.608  13.593  0.1528  0.3767  0.2519
14683TIP3    H265541   3.474   2.677  13.526  1.2797  1.3277 -0.7584
14684TIP3   OH265542   2.194   1.456   2.312 -0.0923  0.7591 -0.3372
14684TIP3    H165543   2.282   1.424   2.289 -0.4041 -0.6665  0.3670
14684TIP3    H265544   2.136   1.382   2.294 -0.7679  0.7025  1.8585
14685TIP3   OH265545   0.964   3.270  10.853 -0.0185 -0.5652 -0.2737
14685TIP3    H165546   0.933   3.321  10.779 -1.7094 -0.9767  0.1327
14685TIP3    H265547   1.055   3.249  10.832  0.2386  1.3402 -1.1092
14686TIP3   OH265548   4.016   0.259  14.545 -0.7633 -0.3401  0.4998
14686TIP3    H165549   4.097   0.225  14.583 -0.8047 -2.2963 -1.0681
14686TIP3    H265550   4.010   0.217  14.459 -3.0483  0.3710  0.2739
14687TIP3   OH265551   1.807   3.823   4.029 -0.1403  0.5610 -0.4800
14687TIP3    H165552   1.734   3.831   4.090 -0.4965 -1.9414 -0.5378
14687TIP3    H265553   1.767   3.793   3.947  0.7679  0.6391 -0.9607
14688TIP3   OH265554   6.444   4.134  16.385  0.2115 -0.5864 -0.5630
14688TIP3    H165555   6.386   4.059  16.397  0.7121 -0.9186 -0.2538
14688TIP3    H265556   6.463   4.165  16.474 -0.0269 -0.0692 -0.6914
14689TIP3   OH265557   5.841   3.756   3.233  0.0074  0.4608  0.8044
14689TIP3    H165558   5.766   3.764   3.174  0.4771 -2.3432 -0.2752
14689TIP3    H265559   5.815   3.689   3.296  1.0826  0.4490  1.2467
14690TIP3   OH265560   4.572   6.355   1.257 -0.3465 -0.1445  0.1542
14690TIP3    H165561   4.527   6.432   1.224  0.2217 -0.4243 -1.2943
14690TIP3    H265562   4.505   6.286   1.255 -0.2650 -0.1993 -0.5513
14691TIP3   OH265563   0.779   5.984  13.661  0.0623  0.0714 -0.3665
14691TIP3    H165564   0.737   5.904  13.693  0.2298 -0.5174 -1.5835
14691TIP3    H265565   0.807   5.962  13.572 -0.2180  1.6035 -0.8406
14692TIP3   OH265566   2.971   0.548   3.651  0.4891 -0.4641  0.3175
14692TIP3    H165567   2.935   0.577   3.734  2.5401 -0.6010  1.2912
14692TIP3    H265568   2.973   0.453   3.657  0.1771 -0.4946 -0.0794
14693TIP3   OH265569   1.239   2.435   3.455 -0.0877  0.4208  0.3486
14693TIP3    H165570   1.172   2.372   3.429 -0.2423  1.3292 -1.5382
14693TIP3    H265571   1.192   2.502   3.505 -0.2772  0.1352  0.5514
14694TIP3   OH265572   0.410   6.685   4.664 -0.5430 -0.2765 -0.1926
14694TIP3    H165573   0.342   6.631   4.705 -0.8303  0.3274  0.1321
14694TIP3    H265574   0.468   6.622   4.621 -1.2360 -0.8076 -0.3695
14695TIP3   OH265575   2.932   2.384  14.942 -0.1381  0.2687 -0.0855
14695TIP3    H165576   2.919   2.476  14.919  2.9158  0.4724 -1.2190
14695TIP3    H265577   2.972   2.387  15.029  1.9700  0.1660 -1.0101
14696TIP3   OH265578   2.212   0.947   3.376 -0.1144  0.1267  0.2675
14696TIP3    H165579   2.188   1.007   3.305  1.1377 -1.0657 -1.2249
14696TIP3    H265580   2.211   0.861   3.335  1.5621 -0.4824  1.4478
14697TIP3   OH265581   0.141   0.626  17.104 -0.5044  0.4486 -0.3677
14697TIP3    H165582   0.170   0.683  17.033  1.3949 -0.3080 -0.2342
14697TIP3    H265583   0.164   0.538  17.076 -0.8020  0.0176  0.6810
14698TIP3   OH265584   3.394   4.839   0.730  0.3668  0.2193 -0.2365
14698TIP3    H165585   3.377   4.806   0.818  1.6088  0.4084  0.0694
14698TIP3    H265586   3.309   4.872   0.700 -0.1230 -0.1255  0.7649
14699TIP3   OH265587   5.190   2.216   3.429  0.1166 -0.3064  0.3913
14699TIP3    H165588   5.109   2.222   3.480  0.5993  0.5228  1.0873
14699TIP3    H265589   5.226   2.130   3.449 -0.1361 -0.3224  0.7691
14700TIP3   OH265590   5.670   2.929  12.087 -0.2776  0.9817 -0.6370
14700TIP3    H165591   5.665   3.020  12.116 -0.0856  0.4359  1.1864
14700TIP3    H265592   5.754   2.923  12.041 -0.1247  1.6391 -0.4476
14701TIP3   OH265593   3.791   2.495   6.243 -0.4046 -0.5593  0.2627
14701TIP3    H165594   3.729   2.493   6.171  0.7158  0.0509 -0.7298
14701TIP3    H265595   3.813   2.587   6.255  0.1415 -0.7457  0.7497
14702TIP3   OH265596   0.674   3.249  14.095 -0.1231  0.2962  0.0112
14702TIP3    H165597   0.714   3.235  14.181 -1.2589 -0.0830  0.4929
14702TIP3    H265598   0.743   3.227  14.033  1.1088  1.7714  0.8131
14703TIP3   OH265599   0.479   2.411  14.728 -0.3026  0.3479  0.2869
14703TIP3    H165600   0.459   2.490  14.778 -2.6804 -0.2387  0.3175
14703TIP3    H265601   0.504   2.346  14.794  0.1723  0.6286  0.3875
14704TIP3   OH265602   0.578   3.916  11.454  0.2611 -0.0173  0.0871
14704TIP3    H165603   0.665   3.901  11.416  0.7491 -0.7602  1.4530
14704TIP3    H265604   0.596   3.964  11.535 -0.6672  0.4701  0.0048
14705TIP3   OH265605   3.469   6.714   4.113  0.1539 -0.5729 -0.4254
14705TIP3    H165606   3.500   6.661   4.185 -1.5946  0.0348  0.8128
14705TIP3    H265607   3.470   6.656   4.037  1.7289 -1.2913  0.1319
14706TIP3   OH265608   0.130   2.260  12.764  0.0961  0.3020  0.1384
14706TIP3    H165609   0.212   2.244  12.716 -0.5826 -1.5386 -0.4330
14706TIP3    H265610   0.092   2.336  12.720  1.1670  0.7457 -0.0381
14707TIP3   OH265611   2.127   6.195  15.093 -0.2807 -0.1247 -0.2870
14707TIP3    H165612   2.122   6.247  15.013 -3.1570 -0.5447 -0.4408
14707TIP3    H265613   2.112   6.259  15.163 -0.3541 -0.1816 -0.2515
14708TIP3   OH265614   3.614   2.950  13.402  0.0765  0.1196  0.5457
14708TIP3    H165615   3.643   2.941  13.493  2.0504  0.4927 -0.0285
14708TIP3    H265616   3.665   2.886  13.354  1.3526  2.0792 -0.7834
14709TIP3   OH265617   4.007   6.374  11.679  0.5007  0.5591 -0.0053
14709TIP3    H165618   3.997   6.286  11.717 -0.8542  0.4340 -0.6605
14709TIP3    H265619   3.974   6.433  11.747 -0.0925  0.4614 -0.2112
14710TIP3   OH265620   1.587   6.009  16.219 -0.2555  0.2610 -0.2757
14710TIP3    H165621   1.658   5.958  16.258  0.5922  1.0974 -0.6962
14710TIP3    H265622   1.629   6.060  16.150 -1.4648 -0.0360 -1.2429
14711TIP3   OH265623   4.389   1.402  14.906 -0.8041 -0.2524 -0.8580
14711TIP3    H165624   4.469   1.349  14.906 -0.4492  0.2679 -0.5078
14711TIP3    H265625   4.405   1.470  14.841 -0.2412  0.8875  0.4434
14712TIP3   OH265626   3.508   6.094  13.185  0.3053  0.5354  1.2989
14712TIP3    H165627   3.433   6.073  13.130  0.8316  0.2407  0.6855
14712TIP3    H265628   3.470   6.114  13.271 -0.4170 -0.4040  1.2094
14713TIP3   OH265629   6.653   6.100  15.745 -0.0992  0.4171  0.6270
14713TIP3    H165630   6.695   6.094  15.831 -0.4786  0.4986  0.8181
14713TIP3    H265631   6.722   6.132  15.687  0.4363 -0.6014  0.6928
14714TIP3   OH265632   3.206   1.828   3.925 -0.2694  0.2147 -0.1458
14714TIP3    H165633   3.188   1.882   3.848  0.3942 -0.5490 -0.8378
14714TIP3    H265634   3.296   1.851   3.950 -0.9939  1.5706  1.3180
14715TIP3   OH265635   4.618   5.134  13.263 -0.0014 -0.3937  0.3615
14715TIP3    H165636   4.670   5.212  13.247 -2.2323  1.7968  3.0670
14715TIP3    H265637   4.540   5.145  13.208 -0.3593 -0.6492  0.8074
14716TIP3   OH265638   2.014   4.634  13.057  0.2652  0.6314 -0.6544
14716TIP3    H165639   1.956   4.587  12.997  0.7306  0.8707 -1.2948
14716TIP3    H265640   1.980   4.613  13.144  0.3598 -0.7725 -0.9331
14717TIP3   OH265641   1.708   5.438  13.328  0.4747  0.4313 -0.1254
14717TIP3    H165642   1.757   5.495  13.386 -0.2592  0.0379  0.9051
14717TIP3    H265643   1.774   5.398  13.271  1.1679  1.0054  0.2692
14718TIP3   OH265644   0.336   4.136  14.829 -0.4540 -0.1981 -0.0759
14718TIP3    H165645   0.302   4.095  14.908 -1.3026  0.4681 -0.0874
14718TIP3    H265646   0.341   4.229  14.850  0.0291 -0.1115 -0.5529
14719TIP3   OH265647   6.017   5.916   0.501 -0.0189  0.0690 -0.2133
14719TIP3    H165648   6.092   5.910   0.441  2.3581  0.1121  2.6482
14719TIP3    H265649   6.022   5.836   0.553 -0.7748  0.9997  1.3327
14720TIP3   OH265650   5.913   3.753  14.953 -0.1216 -0.4173 -0.0822
14720TIP3    H165651   5.973   3.714  15.015 -0.2045  0.1538  0.3649
14720TIP3    H265652   5.884   3.834  14.995 -1.0665 -0.5984 -0.3635
14721TIP3   OH265653   2.050   0.075  16.592 -0.2073  0.5429 -0.1435
14721TIP3    H165654   2.093   0.004  16.640  0.2865  1.7819  1.2948
14721TIP3    H265655   1.957   0.062  16.609 -0.0535  0.7934  0.9163
14722TIP3   OH265656   3.864   2.272   2.138  0.4314  0.1207 -0.0824
14722TIP3    H165657   3.859   2.252   2.232 -3.3977  2.5038  0.3288
14722TIP3    H265658   3.868   2.368   2.135  0.6624  0.0494 -2.3718
14723TIP3   OH265659   6.001   4.421   5.364 -0.2774  0.7086  0.7388
14723TIP3    H165660   5.909   4.445   5.377 -0.1862  1.1752  0.5438
14723TIP3    H265661   6.049   4.478   5.424 -0.1484  0.1646  1.1519
14724TIP3   OH265662   2.476   1.565  12.633 -0.1208  0.5020  0.0975
14724TIP3    H165663   2.553   1.511  12.612 -0.3886  0.3716 -0.5913
14724TIP3    H265664   2.489   1.645  12.583 -1.2093 -0.1739 -1.3420
14725TIP3   OH265665   3.281   2.603   5.715  0.1857  0.4076  0.7693
14725TIP3    H165666   3.298   2.697   5.710  2.0238  0.0429 -0.5859
14725TIP3    H265667   3.342   2.570   5.781  2.2201 -0.3480 -1.4050
14726TIP3   OH265668   1.896   4.470  14.961 -0.5327 -0.0986  0.6240
14726TIP3    H165669   1.895   4.564  14.940  0.8258  0.4172  2.6585
14726TIP3    H265670   1.988   4.452  14.984 -0.4087 -2.3584 -1.4763
14727TIP3   OH265671   5.561   3.797   4.270  0.1506 -0.3238  0.3629
14727TIP3    H165672   5.611   3.879   4.266  0.6239 -0.5812  0.8342
14727TIP3    H265673   5.489   3.809   4.208  0.8150  0.0407 -0.3408
14728TIP3   OH265674   4.679   1.576   5.140  0.4486  0.3387 -0.3964
14728TIP3    H165675   4.644   1.506   5.084  1.2118 -1.4116  1.2684
14728TIP3    H265676   4.731   1.630   5.080  0.1379 -0.7129 -1.6475
14729TIP3   OH265677   4.329   3.684   4.157 -0.3392  0.2544 -0.0651
14729TIP3    H165678   4.290   3.606   4.195 -0.1775  1.6753  3.2364
14729TIP3    H265679   4.309   3.754   4.220  2.2952  2.2170 -1.2855
14730TIP3   OH265680   0.201   3.329  11.970 -0.0923 -0.0126 -0.1927
14730TIP3    H165681   0.142   3.304  12.041  0.5198  5.7484  2.6354
14730TIP3    H265682   0.278   3.273  11.982 -1.8038 -2.1944  0.8845
14731TIP3   OH265683   4.274   2.451  13.272  0.1441 -0.8461  0.0212
14731TIP3    H165684   4.191   2.497  13.277  0.8946  1.3525 -4.6499
14731TIP3    H265685   4.251   2.363  13.240 -0.3829 -0.1497 -1.5465
14732TIP3   OH265686   0.102   4.703  12.180  0.1229  0.0089  0.2973
14732TIP3    H165687   0.013   4.685  12.153 -0.3110  0.9368  1.0815
14732TIP3    H265688   0.144   4.741  12.103 -0.1873 -0.3132 -0.0303
14733TIP3   OH265689   2.684   1.817  10.525 -0.2459 -0.6234 -0.6289
14733TIP3    H165690   2.602   1.802  10.572  0.2525 -0.6134  0.2547
14733TIP3    H265691   2.752   1.798  10.589  0.4388 -0.1012 -1.1948
14734TIP3   OH265692   4.343   1.507   2.338  0.8402 -0.4482  0.1867
14734TIP3    H165693   4.357   1.589   2.384 -0.5848  0.1413 -0.3997
14734TIP3    H265694   4.264   1.522   2.286 -0.1962 -2.6101  1.0689
14735TIP3   OH265695   5.165   5.641   5.986 -0.5655  0.4275 -0.6656
14735TIP3    H165696   5.147   5.549   6.004 -0.4727  0.0924 -2.1747
14735TIP3    H265697   5.129   5.688   6.061  2.1726 -1.0345  1.6366
14736TIP3   OH265698   0.921   3.908   2.995  0.3224 -0.3064 -0.5501
14736TIP3    H165699   0.908   3.998   3.024  1.0358 -0.1458 -0.7191
14736TIP3    H265700   0.898   3.909   2.903 -0.3603 -0.4518 -0.3780
14737TIP3   OH265701   2.238   3.706   4.358  0.3261 -0.5261  0.6019
14737TIP3    H165702   2.199   3.622   4.335  0.8124  0.0875 -2.6534
14737TIP3    H265703   2.281   3.735   4.278 -0.5685  3.2561  1.4239
14738TIP3   OH265704   0.703   2.155  13.588 -0.0524  0.4870 -0.3891
14738TIP3    H165705   0.769   2.152  13.518 -0.0563 -0.0678 -0.3692
14738TIP3    H265706   0.719   2.077  13.640 -0.0155  0.9288  0.2708
14739TIP3   OH265707   5.836   1.417  14.254  0.3835 -0.0900 -0.4553
14739TIP3    H165708   5.873   1.363  14.184 -1.2162 -0.1736 -1.2543
14739TIP3    H265709   5.847   1.507  14.223  0.9077 -0.0683 -0.2020
14740TIP3   OH265710   3.484   0.308   5.279 -0.7888 -0.5607 -0.2218
14740TIP3    H165711   3.564   0.282   5.234 -1.1444  0.0625 -1.2303
14740TIP3    H265712   3.418   0.312   5.210 -1.1357  1.2943  0.1816
14741TIP3   OH265713   3.748   5.379   6.290  0.2474  0.2843  0.1040
14741TIP3    H165714   3.739   5.384   6.195 -1.3760  0.9144  0.2829
14741TIP3    H265715   3.674   5.326   6.319  1.3816 -0.8744  0.9231
14742TIP3   OH265716   3.931   1.713  13.063  0.5014 -0.1434 -0.0919
14742TIP3    H165717   3.846   1.734  13.023  0.2705 -1.4990 -0.3465
14742TIP3    H265718   3.908   1.666  13.143  0.9875  1.6079  1.0961
14743TIP3   OH265719   4.475   3.943  16.867 -0.2012 -0.2082 -0.4027
14743TIP3    H165720   4.384   3.970  16.857  0.0518  1.4800  1.5108
14743TIP3    H265721   4.471   3.854  16.901 -1.1442  0.1346  0.3811
14744TIP3   OH265722   1.288   4.125  16.922 -0.5046  0.3324 -0.2528
14744TIP3    H165723   1.261   4.090  16.837 -0.3074 -0.6665  0.0900
14744TIP3    H265724   1.205   4.143  16.967 -0.6473 -2.0808  0.5329
14745TIP3   OH265725   6.249   5.416   5.205 -0.3600  0.4570 -0.3399
14745TIP3    H165726   6.329   5.422   5.258 -0.7621  1.0254  0.2205
14745TIP3    H265727   6.273   5.359   5.132 -0.0773 -1.1475  0.9679
14746TIP3   OH265728   4.807   0.694   4.035  0.7332  0.6784 -0.1571
14746TIP3    H165729   4.757   0.754   4.090 -2.4612 -1.0611 -0.9848
14746TIP3    H265730   4.869   0.652   4.095  0.1610  1.7896  1.2313
14747TIP3   OH265731   6.695   4.012  17.003 -0.1886  0.2529  0.4987
14747TIP3    H165732   6.669   3.930  17.044 -0.0780 -1.0459 -1.9582
14747TIP3    H265733   6.689   3.996  16.909  2.2239  2.2575 -0.0769
14748TIP3   OH265734   2.712   6.755  15.259  0.3875  0.0492  0.8394
14748TIP3    H165735   2.741   6.665  15.250  1.0187  0.1448  1.8150
14748TIP3    H265736   2.748   6.784  15.343 -1.5734  0.5286  1.5655
14749TIP3   OH265737   5.735   1.599  13.667  0.0743  0.4491  0.2535
14749TIP3    H165738   5.741   1.652  13.588  0.0802  0.7616  0.4632
14749TIP3    H265739   5.751   1.509  13.637 -0.5388  0.4877 -0.1939
14750TIP3   OH265740   5.052   3.537  14.465  0.6918 -0.1742  0.1195
14750TIP3    H165741   5.089   3.611  14.513 -0.4485  1.2837 -1.2527
14750TIP3    H265742   5.126   3.502  14.415  1.4515 -0.5682  1.4705
14751TIP3   OH265743   2.554   5.667  16.415  0.3452  0.3137 -0.9116
14751TIP3    H165744   2.468   5.702  16.440  0.1951 -1.0236  0.5617
14751TIP3    H265745   2.571   5.703  16.329 -0.6583  2.4520 -0.2455
14752TIP3   OH265746   0.797   0.004  13.594  0.2861 -0.3415 -0.3910
14752TIP3    H165747   0.755  -0.035  13.517 -1.9101  1.6588 -0.2539
14752TIP3    H265748   0.889   0.009  13.570  0.3677 -3.8903 -1.1060
14753TIP3   OH265749   6.331   2.631  13.643  0.0952  0.2207  0.1774
14753TIP3    H165750   6.329   2.628  13.547  0.8100  1.4085  0.1135
14753TIP3    H265751   6.263   2.695  13.666  0.4510  0.5137  0.4200
14754TIP3   OH265752   1.175   6.571  13.236  0.3474 -0.2161 -0.2925
14754TIP3    H165753   1.168   6.667  13.234 -0.7803 -0.2876 -3.2955
14754TIP3    H265754   1.265   6.553  13.262  0.5609  1.6598  0.3186
14755TIP3   OH265755   2.470   3.088  12.052  0.2519  0.7271  0.4028
14755TIP3    H165756   2.420   3.148  12.109 -1.7428  1.6435 -2.2215
14755TIP3    H265757   2.509   3.145  11.986 -0.1270 -0.6709 -1.0322
14756TIP3   OH265758   3.234   1.619   3.287 -0.0935  0.5772 -0.6925
14756TIP3    H165759   3.192   1.545   3.244 -0.7122  2.0385 -2.6753
14756TIP3    H265760   3.240   1.686   3.219  2.2100  1.6736  0.5266
14757TIP3   OH265761   4.137   3.463  12.759 -0.0184  0.2885 -0.3612
14757TIP3    H165762   4.176   3.393  12.707 -0.1445  0.1415 -0.2559
14757TIP3    H265763   4.078   3.508  12.699  1.4529  1.4563 -0.9535
14758TIP3   OH265764   5.770   2.242   6.240  0.0412  0.4188  0.2137
14758TIP3    H165765   5.815   2.306   6.295 -0.6134 -0.5913  1.9889
14758TIP3    H265766   5.731   2.181   6.303  0.2436 -1.4332 -1.4229
14759TIP3   OH265767   6.283   6.013  11.699 -0.5902 -0.2543  0.1448
14759TIP3    H165768   6.359   6.001  11.757 -0.0408  1.4268 -0.1896
14759TIP3    H265769   6.320   6.041  11.616 -1.6047  1.3886  0.2197
14760TIP3   OH265770   2.848   1.089   2.070 -0.5062  0.1943  0.1864
14760TIP3    H165771   2.759   1.122   2.076 -0.7174 -0.2498 -0.4749
14760TIP3    H265772   2.849   1.036   1.990  0.1928 -0.2628  0.4890
14761TIP3   OH265773   1.351   4.645   3.739 -0.1831 -0.3274  0.1757
14761TIP3    H165774   1.268   4.661   3.693 -0.2296  0.1598  0.4248
14761TIP3    H265775   1.375   4.555   3.715  0.4939  0.3736 -1.9338
14762TIP3   OH265776   3.107   6.138   2.748 -0.0920 -0.8356 -0.8880
14762TIP3    H165777   3.053   6.152   2.826  0.0286 -3.5199 -0.2837
14762TIP3    H265778   3.062   6.188   2.679 -0.4967  1.1259  0.7390
14763TIP3   OH265779   3.821   4.246   2.096 -0.1615  0.0152 -0.0644
14763TIP3    H165780   3.746   4.244   2.035  0.8742  1.0355 -1.4021
14763TIP3    H265781   3.829   4.338   2.121 -1.0496 -0.5005  2.2625
14764TIP3   OH265782   3.876   2.761   3.189  0.0359  0.1194  0.1801
14764TIP3    H165783   3.790   2.720   3.183 -0.3604  1.2111 -2.2327
14764TIP3    H265784   3.880   2.820   3.113  3.0143 -0.1297  0.0849
14765TIP3   OH265785   4.741   5.081  13.827 -0.6364  0.3945 -0.2957
14765TIP3    H165786   4.689   5.154  13.861  0.2925  0.7009  0.4583
14765TIP3    H265787   4.715   5.006  13.880 -0.8596  0.3864 -0.4155
14766TIP3   OH265788   1.462   0.414   3.323 -0.0242  0.2901  0.0261
14766TIP3    H165789   1.406   0.337   3.338  1.9672 -1.1293  0.3571
14766TIP3    H265790   1.448   0.468   3.401 -0.7278 -0.1742  0.2327
14767TIP3   OH265791   1.956   1.884  14.451  0.1976  0.5180 -0.3360
14767TIP3    H165792   1.939   1.811  14.510 -0.8590  0.0330 -1.2120
14767TIP3    H265793   2.042   1.866  14.414  0.4084  0.2877  0.2631
14768TIP3   OH265794   0.046   1.339   6.412 -0.1177  0.1151 -0.0340
14768TIP3    H165795   0.093   1.323   6.494  1.6684 -1.7480 -1.3704
14768TIP3    H265796   0.111   1.378   6.355  0.0554 -3.0497 -2.1174
14769TIP3   OH265797   0.631   5.996  16.438  0.3139  0.2651  0.4539
14769TIP3    H165798   0.609   5.944  16.516  0.3041 -0.5037 -0.0646
14769TIP3    H265799   0.554   6.051  16.424 -1.1210 -2.0600 -1.0587
14770TIP3   OH265800   0.277   3.691  13.283  0.3246  0.5238 -0.0269
14770TIP3    H165801   0.335   3.699  13.359  0.7790  0.6402 -0.3845
14770TIP3    H265802   0.328   3.640  13.220  0.0496  0.6571 -0.3534
14771TIP3   OH265803   5.047   2.071   5.205 -0.6836  0.0156 -0.3793
14771TIP3    H165804   5.086   2.061   5.292 -0.0373  0.6276 -0.5944
14771TIP3    H265805   4.954   2.055   5.218 -0.5851  0.0951  0.4290
14772TIP3   OH265806   4.736   6.549  16.568  0.1044 -0.3632  0.4425
14772TIP3    H165807   4.771   6.560  16.657 -2.8954 -1.6050  1.8434
14772TIP3    H265808   4.725   6.455  16.558 -2.3853 -0.0352 -0.0904
14773TIP3   OH265809   3.065   4.730  12.766 -0.0979 -0.6823  0.2263
14773TIP3    H165810   2.995   4.773  12.715 -1.3025 -1.9711  0.7509
14773TIP3    H265811   3.128   4.799  12.784 -1.2977  0.5336 -0.1792
14774TIP3   OH265812   2.344   5.917   2.049 -0.0062  0.2168  0.7407
14774TIP3    H165813   2.383   5.969   1.979 -0.3632  0.0784  0.4347
14774TIP3    H265814   2.258   5.891   2.014 -1.2963  2.3600  2.2331
14775TIP3   OH265815   4.828   5.740   3.390 -0.1450 -0.0950  0.2756
14775TIP3    H165816   4.769   5.770   3.321 -0.8430  1.0009  1.3355
14775TIP3    H265817   4.907   5.792   3.379 -1.0024  1.5270  1.5242
14776TIP3   OH265818   0.471   6.766   1.649  0.3287 -0.3307  0.4288
14776TIP3    H165819   0.406   6.740   1.583  0.6868  1.7066 -0.7784
14776TIP3    H265820   0.424   6.757   1.732 -1.3006  0.4081 -0.3676
14777TIP3   OH265821   3.715   1.677  15.094 -0.0324  0.1544  0.2643
14777TIP3    H165822   3.777   1.646  15.160  0.3817  0.6037  0.0901
14777TIP3    H265823   3.762   1.668  15.011 -0.7903 -1.0340 -0.0489
14778TIP3   OH265824   2.608   4.208   2.454 -0.7840 -0.2947  0.5007
14778TIP3    H165825   2.634   4.196   2.545 -1.4240 -0.7721  0.6226
14778TIP3    H265826   2.690   4.228   2.408 -0.5808  0.7918  1.3205
14779TIP3   OH265827   3.481   3.693   3.566  0.0115 -0.0824  0.2262
14779TIP3    H165828   3.540   3.622   3.538  0.0447  1.3466 -3.5187
14779TIP3    H265829   3.527   3.773   3.540 -2.5314  1.1194 -0.6619
14780TIP3   OH265830   4.528   5.612   3.895 -0.1205  0.1563 -0.2437
14780TIP3    H165831   4.563   5.632   3.809  0.9411  0.3727  0.2335
14780TIP3    H265832   4.453   5.670   3.905  0.3003  0.7677 -0.6559
14781TIP3   OH265833   5.802   1.156   3.147  0.0218  0.0422 -0.1361
14781TIP3    H165834   5.735   1.222   3.162 -2.1193 -1.0636 -4.1722
14781TIP3    H265835   5.851   1.187   3.071  1.9613 -0.8183  0.7063
14782TIP3   OH265836   0.194   0.728   5.484 -0.3900 -0.2905 -0.1453
14782TIP3    H165837   0.143   0.779   5.422  0.2134 -1.4936 -1.6580
14782TIP3    H265838   0.132   0.665   5.521 -0.8481  0.7027  0.8235
14783TIP3   OH265839   1.349   1.489  11.858  0.3902 -0.4699 -0.3743
14783TIP3    H165840   1.325   1.571  11.815  0.7285  0.8168  1.8165
14783TIP3    H265841   1.310   1.496  11.945  0.1451 -2.8012 -0.2610
14784TIP3   OH265842   5.355   2.253   1.233  0.4529  0.2052 -0.8380
14784TIP3    H165843   5.383   2.340   1.262  2.4407 -0.8314  0.4495
14784TIP3    H265844   5.435   2.212   1.201 -0.4551 -1.1948 -1.3514
14785TIP3   OH265845   1.482   5.293  13.237  0.0615 -0.0712  0.0331
14785TIP3    H165846   1.408   5.351  13.256 -0.0298 -0.4544  0.8892
14785TIP3    H265847   1.559   5.346  13.258 -0.0421 -0.5729  1.8298
14786TIP3   OH265848   1.769   6.202   2.717 -0.1312 -0.6439 -0.6759
14786TIP3    H165849   1.720   6.281   2.741  0.0930 -0.9443  0.8644
14786TIP3    H265850   1.706   6.131   2.728  0.4115 -0.9490  0.5491
14787TIP3   OH265851   5.580   2.721  13.619  0.5604  0.0987  0.1261
14787TIP3    H165852   5.617   2.769  13.545  0.7246 -0.8980 -0.4389
14787TIP3    H265853   5.541   2.643  13.580  0.5478 -0.3717  1.0819
14788TIP3   OH265854   1.300   5.982   2.018 -0.1421  0.1800  0.9270
14788TIP3    H165855   1.296   5.907   1.958  0.1103  0.0101  1.1213
14788TIP3    H265856   1.283   5.943   2.105 -0.7523  0.4589  0.9382
14789TIP3   OH265857   4.146   2.958  14.976  0.4306 -0.2526 -0.3195
14789TIP3    H165858   4.130   2.977  14.884  0.6380 -0.3176 -0.3703
14789TIP3    H265859   4.209   2.886  14.975  1.3562  0.5358 -0.1379
14790TIP3   OH265860   1.494   4.213  12.816  0.0641  0.0284 -0.4719
14790TIP3    H165861   1.573   4.246  12.774  0.9394 -1.4470 -0.0014
14790TIP3    H265862   1.473   4.134  12.766 -0.1233 -0.5406  0.5116
14791TIP3   OH265863   3.380   0.402  13.246 -0.1717 -0.1853 -0.0968
14791TIP3    H165864   3.387   0.492  13.213  1.0851  0.1040  0.9411
14791TIP3    H265865   3.305   0.405  13.306 -0.1613  0.1585 -0.0964
14792TIP3   OH265866   0.160   0.522  12.369  0.1629  0.1088  0.8989
14792TIP3    H165867   0.105   0.600  12.366  0.3860  0.2234 -1.0593
14792TIP3    H265868   0.249   0.555  12.383  0.7033  0.4975 -2.9671
14793TIP3   OH265869   2.468   5.355  14.081  0.8112  0.2550  0.4806
14793TIP3    H165870   2.503   5.274  14.044 -1.1834 -0.7674  0.7724
14793TIP3    H265871   2.375   5.338  14.094  0.1064  3.0227 -0.5672
14794TIP3   OH265872   6.165   0.225  15.459 -0.8034  0.0775  0.1405
14794TIP3    H165873   6.221   0.285  15.507  2.1816 -1.0714 -1.7928
14794TIP3    H265874   6.136   0.161  15.524 -0.4692  1.0949  1.2977
14795TIP3   OH265875   4.386   5.468   1.064  0.5454  0.2395  0.4473
14795TIP3    H165876   4.334   5.518   1.127 -2.8340 -2.5175 -0.0000
14795TIP3    H265877   4.342   5.480   0.980  3.6296  1.9198 -1.0269
14796TIP3   OH265878   3.264   3.804   1.090  0.3871 -0.2166 -0.0938
14796TIP3    H165879   3.227   3.858   1.159  0.3983  1.2986 -1.2470
14796TIP3    H265880   3.358   3.823   1.091  0.0649  1.7317 -2.1190
14797TIP3   OH265881   2.016   6.011   0.283 -0.1343  0.1717  0.4269
14797TIP3    H165882   1.942   5.952   0.272 -1.2112  1.7544 -0.8281
14797TIP3    H265883   2.090   5.964   0.244 -1.0070 -0.2993 -0.6836
14798TIP3   OH265884   0.355   2.006  15.293  0.2119 -0.2931 -0.1963
14798TIP3    H165885   0.380   2.096  15.275 -2.2029  0.3718 -0.4069
14798TIP3    H265886   0.295   1.982  15.222  2.0193 -2.5968 -0.9950
14799TIP3   OH265887   3.654   3.389  12.543  0.6862 -0.1905 -0.6304
14799TIP3    H165888   3.641   3.299  12.515 -0.0353 -0.5619  0.8562
14799TIP3    H265889   3.567   3.417  12.574  0.9725  0.9030 -0.7904
14800TIP3   OH265890   0.859   3.537   5.635  0.5009 -0.3136  0.0386
14800TIP3    H165891   0.886   3.464   5.579  3.0239  0.4344  0.2141
14800TIP3    H265892   0.866   3.614   5.578  1.0330  0.1946  0.7837
14801TIP3   OH265893   2.888   1.939   4.989 -0.1119  0.2825 -0.0817
14801TIP3    H165894   2.952   2.001   4.955  0.8976 -0.9282 -0.4618
14801TIP3    H265895   2.803   1.973   4.962  0.5117  0.7750 -1.4432
14802TIP3   OH265896   0.298   2.520  11.280 -0.0137 -0.1323 -0.0216
14802TIP3    H165897   0.361   2.567  11.335  1.6182 -1.2472 -0.8874
14802TIP3    H265898   0.352   2.478  11.213 -1.6350 -1.6148 -0.4261
14803TIP3   OH265899   3.596   3.653  11.335  0.2338 -0.5175  0.2937
14803TIP3    H165900   3.630   3.672  11.247 -2.1186  0.8424 -0.3731
14803TIP3    H265901   3.527   3.589  11.320  1.1562 -1.8117  1.4125
14804TIP3   OH265902   1.511   5.672  12.486 -0.6105  0.1107  0.0265
14804TIP3    H165903   1.581   5.638  12.542 -0.9956 -2.2808 -0.8732
14804TIP3    H265904   1.436   5.680  12.545  0.5621  3.4031  1.1649
14805TIP3   OH265905   4.445   2.523  13.830  0.4131 -0.0267  0.2605
14805TIP3    H165906   4.528   2.486  13.801  0.1659 -0.7244  0.4204
14805TIP3    H265907   4.405   2.453  13.882 -0.6071  0.0217 -0.4445
14806TIP3   OH265908   6.048   1.350   6.409  0.0768  0.2808  0.1130
14806TIP3    H165909   6.143   1.355   6.404  0.0137  0.9188 -0.6240
14806TIP3    H265910   6.030   1.292   6.483  1.0349  0.1656  0.2560
14807TIP3   OH265911   4.954   4.574  13.659 -0.6567  0.4160 -0.2191
14807TIP3    H165912   4.948   4.623  13.577 -2.0786  1.0212  0.2291
14807TIP3    H265913   5.026   4.513  13.645 -1.3586 -0.0106 -2.1894
14808TIP3   OH265914   0.267   1.289   0.783 -0.1726  0.4211  0.0504
14808TIP3    H165915   0.255   1.382   0.766  1.8265  1.0041  1.5680
14808TIP3    H265916   0.312   1.256   0.706 -0.7236  0.7592 -0.4155
14809TIP3   OH265917   5.000   3.018   6.607  0.3649  0.4631  0.2262
14809TIP3    H165918   5.006   3.082   6.537 -2.7727  0.0253 -0.5312
14809TIP3    H265919   4.925   3.047   6.660 -1.1498 -2.5187 -0.1656
14810TIP3   OH265920   1.131   4.138   3.836  0.4906  0.2337 -0.0218
14810TIP3    H165921   1.096   4.049   3.827  1.8190 -0.1208 -1.9673
14810TIP3    H265922   1.196   4.131   3.906 -0.6616  0.0935  1.0661
14811TIP3   OH265923   3.327   6.796   2.495 -0.5555 -0.4351  0.3624
14811TIP3    H165924   3.385   6.785   2.419 -0.1694 -0.0890  0.6038
14811TIP3    H265925   3.386   6.817   2.567 -0.9548 -0.4155  0.6835
14812TIP3   OH265926   4.377   2.097  13.066 -0.0719  0.4192  0.4133
14812TIP3    H165927   4.288   2.119  13.093  0.0250  0.4112  0.7362
14812TIP3    H265928   4.417   2.182  13.046  0.1683  0.5063  1.2505
14813TIP3   OH265929   0.967   4.313  15.159 -0.4953 -0.0950  0.0462
14813TIP3    H165930   0.960   4.398  15.115  0.9402  0.4301  0.7826
14813TIP3    H265931   1.045   4.321  15.213  0.2971 -2.2897 -0.7250
14814TIP3   OH265932   0.595   4.165   2.203  0.8914 -0.1596  0.3152
14814TIP3    H165933   0.552   4.234   2.254 -0.3844 -0.5440 -0.2158
14814TIP3    H265934   0.583   4.192   2.112  0.5849 -0.9641  0.1147
14815TIP3   OH265935   5.409   2.859  15.686  0.4545  0.2645  0.0728
14815TIP3    H165936   5.416   2.776  15.734  3.2403 -0.0417 -0.8066
14815TIP3    H265937   5.417   2.926  15.754  1.7023 -0.1741  0.3635
14816TIP3   OH265938   2.567   2.599  12.226  0.8973 -0.5056  0.2889
14816TIP3    H165939   2.594   2.691  12.219  2.9794 -1.0147  1.2990
14816TIP3    H265940   2.569   2.567  12.136  0.0322  0.4563 -0.0893
14817TIP3   OH265941   1.237   4.631  16.375 -0.0325  0.4823  0.0129
14817TIP3    H165942   1.261   4.559  16.316  2.4778  1.4790 -0.2340
14817TIP3    H265943   1.203   4.587  16.453 -0.1808 -0.9260 -0.8203
14818TIP3   OH265944   0.753   3.234   5.711  0.4880 -0.3441 -0.1716
14818TIP3    H165945   0.831   3.283   5.737 -0.3346  0.7912  0.1515
14818TIP3    H265946   0.727   3.186   5.790 -0.3332  0.8735  0.3048
14819TIP3   OH265947   1.803   0.731  16.921 -0.3811 -0.2297 -0.3302
14819TIP3    H165948   1.710   0.722  16.942 -0.5322 -0.1774 -0.9741
14819TIP3    H265949   1.808   0.712  16.828 -0.0563  1.8448 -0.7633
14820TIP3   OH265950   2.434   1.952  14.874  0.2048  0.1177 -0.3539
14820TIP3    H165951   2.503   2.002  14.915 -1.5663  1.3020  1.2785
14820TIP3    H265952   2.418   1.879  14.934 -2.9233  2.2814  1.5978
14821TIP3   OH265953   1.599   6.043   1.839  0.3044  0.3864 -0.3995
14821TIP3    H165954   1.575   6.099   1.913 -0.8475  0.7060 -0.9944
14821TIP3    H265955   1.545   5.964   1.850  1.3762 -0.2978  0.0260
14822TIP3   OH265956   1.700   1.081   0.005  0.3274  0.1653  0.1536
14822TIP3    H165957   1.784   1.125   0.013 -0.3585  1.2554  1.7277
14822TIP3    H265958   1.636   1.152   0.001 -0.5393 -0.6492 -0.8704
14823TIP3   OH265959   4.870   4.805  13.765 -0.0056  0.3231  0.0433
14823TIP3    H165960   4.918   4.734  13.722  0.4964  1.0366 -0.5952
14823TIP3    H265961   4.799   4.825  13.705 -1.5910 -1.2400  1.3351
14824TIP3   OH265962   5.872   4.387  15.922 -0.3523  0.2699 -0.1475
14824TIP3    H165963   5.910   4.351  15.842 -0.9755  0.6106 -0.6048
14824TIP3    H265964   5.941   4.378  15.987  0.7054  1.3301 -1.0853
14825TIP3   OH265965   0.494   3.678  16.230 -0.4334  0.4784 -0.3022
14825TIP3    H165966   0.449   3.726  16.300  0.1288  1.4208 -0.5801
14825TIP3    H265967   0.471   3.587  16.245 -1.9925  0.8916 -0.1189
14826TIP3   OH265968   0.832   4.892   1.567  0.1220 -0.5285  0.1081
14826TIP3    H165969   0.794   4.861   1.649  3.0326  1.0875  2.1344
14826TIP3    H265970   0.926   4.876   1.576  1.0499  3.5729 -1.0565
14827TIP3   OH265971   3.606   5.126  11.245 -0.2069 -0.4788 -0.0335
14827TIP3    H165972   3.613   5.125  11.340  0.8168  0.6420 -0.0764
14827TIP3    H265973   3.547   5.198  11.226  1.2785  0.6943 -0.3093
14828TIP3   OH265974   0.171   3.892  14.389 -0.0174 -0.7263  0.1321
14828TIP3    H165975   0.231   3.818  14.401 -0.9652 -1.3999  0.7929
14828TIP3    H265976   0.088   3.852  14.365 -0.4135  0.1633  0.0059
14829TIP3   OH265977   5.605   1.401   3.127  0.2249  0.2814  0.3807
14829TIP3    H165978   5.517   1.364   3.117 -0.3076  1.6178  0.0689
14829TIP3    H265979   5.605   1.439   3.215  0.8890 -0.7348  0.8357
14830TIP3   OH265980   3.436   6.365  16.518 -0.3795 -0.2676  0.2228
14830TIP3    H165981   3.347   6.339  16.540 -1.1574  1.4997 -0.7234
14830TIP3    H265982   3.444   6.454  16.552  0.5498  0.1145 -0.9509
14831TIP3   OH265983   4.641   2.352   6.820  0.1019  0.1644 -0.1184
14831TIP3    H165984   4.549   2.356   6.844  0.5564  2.1484  1.3789
14831TIP3    H265985   4.681   2.296   6.888  0.1241 -0.1551 -0.3927
14832TIP3   OH265986   1.229   0.686   1.038  0.0430  0.0581  0.0521
14832TIP3    H165987   1.263   0.687   1.128 -2.0270  0.6655  0.8615
14832TIP3    H265988   1.184   0.602   1.031  0.6911 -0.2322 -0.6087
14833TIP3   OH265989   2.953   1.478  10.762 -0.8630 -0.3287 -0.5065
14833TIP3    H165990   3.005   1.402  10.739 -0.5223 -0.2272 -0.0668
14833TIP3    H265991   2.862   1.447  10.758 -0.7150 -0.8232 -0.0693
14834TIP3   OH265992   3.601   6.537  11.054  0.2771 -0.1057  0.2167
14834TIP3    H165993   3.579   6.535  11.148  0.3458 -2.0103  0.2003
14834TIP3    H265994   3.539   6.477  11.013 -0.3570  1.4132 -1.1222
14835TIP3   OH265995   5.829   1.114  15.556  0.0308 -0.0673  0.2404
14835TIP3    H165996   5.839   1.023  15.530 -0.7936  0.1588 -0.9105
14835TIP3    H265997   5.827   1.111  15.652  1.6331 -1.0687  0.2640
14836TIP3   OH265998   1.071   5.077   5.148  0.2293 -0.1268 -0.0868
14836TIP3    H165999   1.086   5.148   5.210 -0.4167  0.3182 -0.4246
14836TIP3    H266000   1.060   4.999   5.202 -1.1583  0.4001  0.4227
14837TIP3   OH266001   2.363   2.181  17.070 -0.3346  0.2380  0.3902
14837TIP3    H166002   2.425   2.116  17.103 -1.3177 -0.2725  1.2608
14837TIP3    H266003   2.287   2.130  17.043 -0.0872  0.7897 -1.4122
14838TIP3   OH266004   4.939   4.523   3.324  0.0336 -0.3671  0.1851
14838TIP3    H166005   4.980   4.604   3.355  0.4747 -0.3181 -0.5310
14838TIP3    H266006   4.858   4.516   3.375 -0.1069  0.6266  0.1057
14839TIP3   OH266007   5.841   6.250  14.587  1.1491  0.2221 -0.6438
14839TIP3    H166008   5.750   6.236  14.560  1.3022 -1.3527 -0.3552
14839TIP3    H266009   5.835   6.281  14.677  0.9509 -1.1678 -0.1727
14840TIP3   OH266010   6.315   4.946  14.881 -0.2225  0.4154  0.4784
14840TIP3    H166011   6.284   4.993  14.803 -0.5780 -1.3058 -0.4506
14840TIP3    H266012   6.408   4.930  14.864 -0.1790  0.5078  0.6355
14841TIP3   OH266013   0.585   2.623  12.219 -0.0774 -0.1800  0.2322
14841TIP3    H166014   0.639   2.600  12.144 -0.2612 -0.1196  0.0779
14841TIP3    H266015   0.630   2.586  12.295  2.5723  3.7040  0.6562
14842TIP3   OH266016   0.879   3.327   0.636  0.0257 -0.4319  0.0256
14842TIP3    H166017   0.872   3.299   0.545 -0.3869 -1.0489  0.2473
14842TIP3    H266018   0.950   3.392   0.636 -1.8938  1.7390 -1.2493
14843TIP3   OH266019   3.377   1.170   6.795 -0.0475  0.3054 -0.2743
14843TIP3    H166020   3.371   1.257   6.833  1.0306 -0.0916  0.8652
14843TIP3    H266021   3.435   1.180   6.720  1.3799  0.2891  0.8001
14844TIP3   OH266022   6.518   6.820  10.295  0.0010  0.3222 -0.3824
14844TIP3    H166023   6.597   6.855  10.334 -0.2672  1.9855 -1.3133
14844TIP3    H266024   6.548   6.745  10.243  0.7896  0.1687  0.2928
14845TIP3   OH266025   1.972   5.861   5.249 -0.2840 -0.0721  1.0109
14845TIP3    H166026   1.951   5.852   5.342 -0.0370 -0.2051  1.0542
14845TIP3    H266027   2.054   5.813   5.238 -0.8545 -0.9630  0.5161
14846TIP3   OH266028   4.298   1.799  13.129  0.2104  0.1194 -0.0263
14846TIP3    H166029   4.265   1.716  13.165 -3.4861  1.4027 -0.2466
14846TIP3    H266030   4.330   1.847  13.205  0.0667 -0.5317  0.4509
14847TIP3   OH266031   5.101   1.082  14.142  0.6416 -0.7366  0.4970
14847TIP3    H166032   5.150   1.008  14.106  0.6124 -1.0713  1.1375
14847TIP3    H266033   5.148   1.160  14.112  0.2800 -0.9949 -0.7560
14848TIP3   OH266034   2.630   3.136   1.450 -0.4322  0.0837  0.3303
14848TIP3    H166035   2.634   3.124   1.545 -2.5777  0.2133  0.4645
14848TIP3    H266036   2.672   3.220   1.434 -0.8602  0.4771  1.2693
14849TIP3   OH266037   6.643   0.072   3.969  0.1479  0.4071  0.4304
14849TIP3    H166038   6.652  -0.012   3.924  1.3349 -0.9028  2.9840
14849TIP3    H266039   6.551   0.078   3.992 -0.2497  0.5730 -1.1770
14850TIP3   OH266040   0.910   4.713  14.569 -0.4010  0.2381 -0.0247
14850TIP3    H166041   0.962   4.760  14.504 -0.3507 -0.9799 -0.8981
14850TIP3    H266042   0.820   4.722  14.538 -0.3416 -0.6393 -0.4616
14851TIP3   OH266043   5.948   5.992  14.684 -0.1321  0.2263  0.1920
14851TIP3    H166044   5.929   6.072  14.633  0.3804 -0.9359 -1.8750
14851TIP3    H266045   5.862   5.952  14.698 -0.0258 -0.9723 -2.3604
14852TIP3   OH266046   4.530   1.083   4.601 -0.0769 -0.8500 -0.6270
14852TIP3    H166047   4.615   1.096   4.644  0.2132 -0.5202 -1.2991
14852TIP3    H266048   4.490   1.011   4.650 -1.3333  1.9146  2.6571
14853TIP3   OH266049   0.531   4.810  13.537 -0.1997  0.4383 -0.0956
14853TIP3    H166050   0.585   4.751  13.485 -1.4987 -0.9049  0.0351
14853TIP3    H266051   0.478   4.752  13.592 -1.1452  1.7346  0.3946
14854TIP3   OH266052   5.905   0.922  11.544  0.2304 -0.6028  0.0860
14854TIP3    H166053   5.827   0.912  11.598 -0.1137 -1.0053 -0.4777
14854TIP3    H266054   5.888   0.868  11.467  2.3289 -3.0637  1.2995
14855TIP3   OH266055   6.606   4.649   2.578  0.1377 -0.3559 -0.1465
14855TIP3    H166056   6.604   4.558   2.550  0.7986  0.5622 -3.3474
14855TIP3    H266057   6.515   4.679   2.570  0.0412 -0.5390  0.2500
14856TIP3   OH266058   4.876   2.448  13.040 -0.2517 -0.3629 -0.1825
14856TIP3    H166059   4.835   2.518  13.091  0.7239  0.0437  0.0680
14856TIP3    H266060   4.970   2.467  13.046 -0.0111 -1.4513 -0.4791
14857TIP3   OH266061   2.923   1.963  17.026 -0.0832  0.3841 -0.5677
14857TIP3    H166062   2.898   1.912  16.949 -0.7357 -0.2677  0.0641
14857TIP3    H266063   2.902   2.053  17.002 -1.1869  0.0813 -0.8129
14858TIP3   OH266064   5.318   5.433   3.835  0.3838 -0.1016  0.0245
14858TIP3    H166065   5.320   5.344   3.801  2.9193 -0.5941  1.2807
14858TIP3    H266066   5.309   5.423   3.930 -0.4895  1.0065  0.0680
14859TIP3   OH266067   4.150   3.055  16.959 -0.6775 -0.0857 -0.0591
14859TIP3    H166068   4.216   3.105  16.910 -1.3046 -1.0241 -1.9310
14859TIP3    H266069   4.165   3.078  17.050  1.4493  0.6478 -0.5701
14860TIP3   OH266070   0.589   3.102   0.183 -0.1255 -0.6975 -0.0293
14860TIP3    H166071   0.544   3.051   0.116 -0.3719 -1.9550  1.0803
14860TIP3    H266072   0.632   3.037   0.238  0.6700  0.3608  0.6132
14861TIP3   OH266073   4.706   6.689  17.268  0.0404  0.3336 -0.1319
14861TIP3    H166074   4.729   6.695  17.360 -0.8951 -0.6020  0.1788
14861TIP3    H266075   4.637   6.622  17.265  0.9550 -0.5626 -1.6677
14862TIP3   OH266076   4.000   5.692  16.845 -0.1384 -0.5881 -0.1351
14862TIP3    H166077   4.039   5.778  16.827  0.4490 -0.5618  1.1743
14862TIP3    H266078   3.963   5.664  16.762  1.1021  0.2069 -0.9688
14863TIP3   OH266079   6.477   6.398  14.446  0.1733 -0.0258  0.0593
14863TIP3    H166080   6.510   6.441  14.367  0.5154 -1.6773 -0.7282
14863TIP3    H266081   6.541   6.419  14.514 -0.1605  1.4642 -0.0757
14864TIP3   OH266082   6.572   5.871   4.952  0.1068  0.0343 -0.8730
14864TIP3    H166083   6.632   5.819   5.005  0.3959  0.2451 -0.9949
14864TIP3    H266084   6.491   5.820   4.951  0.6205 -0.7755 -1.6111
14865TIP3   OH266085   4.297   3.326  15.009 -0.2196 -0.2542  0.0120
14865TIP3    H166086   4.293   3.244  14.959  4.2089  0.4684 -1.8418
14865TIP3    H266087   4.256   3.305  15.093  0.1502 -4.1806 -0.6664
14866TIP3   OH266088   2.863   3.795  15.389  0.1308  1.0926 -0.6574
14866TIP3    H166089   2.928   3.816  15.456 -0.6890  1.8853 -0.0959
14866TIP3    H266090   2.914   3.764  15.314  1.3861  4.3894 -1.2627
14867TIP3   OH266091   0.970   1.445  15.040 -0.2558  0.2374 -0.2671
14867TIP3    H166092   0.983   1.412  14.950 -0.5923 -1.4204  0.2740
14867TIP3    H266093   1.005   1.376  15.096 -1.5023  0.5633  0.9351
14868TIP3   OH266094   2.853   6.729  12.338 -0.0182 -0.1279  0.3547
14868TIP3    H166095   2.760   6.740  12.322 -0.0650 -0.4311  0.4085
14868TIP3    H266096   2.888   6.696  12.255  0.0025 -0.2203  0.3998
14869TIP3   OH266097   0.628   4.170  14.732 -0.0441 -0.6795 -0.4025
14869TIP3    H166098   0.560   4.189  14.797  0.5109  0.5738 -0.1725
14869TIP3    H266099   0.580   4.141  14.655 -0.8288 -0.2037 -0.1048
14870TIP3   OH266100   5.506   0.564   6.301 -0.0491 -0.1438 -0.1879
14870TIP3    H166101   5.424   0.613   6.293  0.6298  0.9485 -0.7396
14870TIP3    H266102   5.545   0.595   6.382  0.1741 -0.0977 -0.3111
14871TIP3   OH266103   0.450   5.901   0.895  0.4925 -0.0257 -0.2066
14871TIP3    H166104   0.526   5.958   0.901 -0.3463  1.2856 -1.7354
14871TIP3    H266105   0.439   5.884   0.801 -0.9891 -0.3307  0.0018
14872TIP3   OH266106   0.231   2.872  14.867  0.3284 -0.0177  0.6667
14872TIP3    H166107   0.249   2.925  14.945 -0.3155  0.7022  0.3326
14872TIP3    H266108   0.153   2.912  14.829  1.9479  1.0723 -1.6044
14873TIP3   OH266109   5.719   5.522   6.072  0.4328 -0.3759  0.4801
14873TIP3    H166110   5.766   5.439   6.060  0.3914 -0.5085  1.1662
14873TIP3    H266111   5.714   5.533   6.167  1.8206  1.2220  0.3819
14874TIP3   OH266112   3.977   1.700   6.156 -0.2756 -0.4321  0.1582
14874TIP3    H166113   4.047   1.669   6.213  0.3245  0.0315 -0.3211
14874TIP3    H266114   3.960   1.627   6.096  1.0897  0.1138 -0.9281
14875TIP3   OH266115   0.318   1.675  14.007 -0.2039 -0.2942 -0.3010
14875TIP3    H166116   0.280   1.605  14.061  0.1365 -0.2249  0.0320
14875TIP3    H266117   0.250   1.696  13.943 -0.6044 -0.3989  0.0854
14876TIP3   OH266118   2.947   2.660   5.101 -0.0116  0.0475  0.6848
14876TIP3    H166119   2.919   2.683   5.190 -1.2946 -1.8797  0.7942
14876TIP3    H266120   2.918   2.733   5.047 -0.2540  0.6819  1.6600
14877TIP3   OH266121   0.521   2.578  16.188  0.1232 -0.3054 -0.2992
14877TIP3    H166122   0.554   2.489  16.200  1.4736  0.4110  1.5021
14877TIP3    H266123   0.585   2.634  16.232 -0.8131  1.5533 -1.2261
14878TIP3   OH266124   1.957   5.107  14.576  0.1094  0.0426  0.1049
14878TIP3    H166125   2.024   5.039  14.570 -0.2803 -0.3134 -0.2763
14878TIP3    H266126   1.874   5.059  14.586 -0.0461  0.4863  1.0641
14879TIP3   OH266127   1.736   0.418   4.012 -0.4801  0.0307  0.2744
14879TIP3    H166128   1.791   0.449   3.940  1.7225 -1.9778  1.0244
14879TIP3    H266129   1.675   0.357   3.971 -0.0775 -0.1204 -0.1015
14880TIP3   OH266130   2.899   6.493  13.201  0.0922 -0.7681 -0.1297
14880TIP3    H166131   2.948   6.566  13.237 -0.1549 -0.4012 -0.5362
14880TIP3    H266132   2.903   6.425  13.269  1.3815 -0.8378 -0.2738
14881TIP3   OH266133   3.630   3.150  11.355  0.2972 -0.0499  0.2826
14881TIP3    H166134   3.548   3.187  11.322 -0.1439 -0.5323  0.8416
14881TIP3    H266135   3.647   3.198  11.436  0.8777  0.4588 -0.1343
14882TIP3   OH266136   5.837   0.472   1.853  0.1102 -0.0846  0.2003
14882TIP3    H166137   5.774   0.490   1.922  1.4441 -0.3436  1.5208
14882TIP3    H266138   5.846   0.377   1.852 -0.9948 -0.1769 -1.3329
14883TIP3   OH266139   3.562   5.495   5.352 -0.0468  0.4002  0.2553
14883TIP3    H166140   3.642   5.442   5.343 -0.2386  0.4093 -1.9954
14883TIP3    H266141   3.492   5.431   5.365 -0.0740  0.1748 -0.9305
14884TIP3   OH266142   6.783   0.248  17.113 -0.1343  0.0483  0.1512
14884TIP3    H166143   6.727   0.216  17.184 -1.8659  1.2451 -0.6314
14884TIP3    H266144   6.789   0.342  17.128  0.7874  0.0831 -0.4001
14885TIP3   OH266145   5.646   4.817   3.077  0.4115  0.0719 -0.6246
14885TIP3    H166146   5.707   4.823   3.004 -1.2443  1.3612 -1.9483
14885TIP3    H266147   5.559   4.824   3.037 -0.5070  2.6115  1.6034
14886TIP3   OH266148   3.820   4.727   0.012  0.3952  0.1171 -0.1595
14886TIP3    H166149   3.753   4.762  -0.046  0.1458 -1.1295 -0.6330
14886TIP3    H266150   3.771   4.687   0.084  0.6915  1.2175  0.6691
14887TIP3   OH266151   1.241   0.041   3.188  0.4731 -0.0057 -0.0141
14887TIP3    H166152   1.234  -0.013   3.109 -2.2948 -1.8777  1.4235
14887TIP3    H266153   1.205   0.126   3.162  0.2031 -0.4008 -0.9531
14888TIP3   OH266154   4.646   3.016  13.054 -0.5362 -0.2985 -0.6048
14888TIP3    H166155   4.631   3.045  13.144 -1.0113 -0.0228 -0.7679
14888TIP3    H266156   4.613   2.926  13.052 -0.3145 -0.3844 -0.4458
14889TIP3   OH266157   5.548   4.348   2.943 -0.0286 -0.0850 -0.7312
14889TIP3    H166158   5.526   4.289   2.870 -2.1757  0.4635 -0.5721
14889TIP3    H266159   5.473   4.341   3.002  2.3542 -1.6877  2.2406
14890TIP3   OH266160   4.942   4.232   3.982  0.7116  0.0035  0.2981
14890TIP3    H166161   4.869   4.289   4.006  0.1432  0.1951 -1.8140
14890TIP3    H266162   4.928   4.152   4.034  0.6301  1.1267  2.0586
14891TIP3   OH266163   4.065   4.983  14.596 -0.1333 -0.6939  0.2000
14891TIP3    H166164   4.103   4.946  14.516 -1.1009  0.6423 -0.9020
14891TIP3    H266165   4.037   5.071  14.571 -0.9918 -0.4680  1.8649
14892TIP3   OH266166   1.875   5.845   2.062 -0.1336  0.0203 -0.2641
14892TIP3    H166167   1.890   5.799   2.144  2.7651 -0.7410 -1.1669
14892TIP3    H266168   1.862   5.776   1.997  4.2805  0.2752 -1.6323
14893TIP3   OH266169   1.377   4.712   2.981  0.3414 -0.0690  0.7129
14893TIP3    H166170   1.296   4.693   3.029 -1.3758  1.5616 -1.3975
14893TIP3    H266171   1.359   4.681   2.892  1.5760  1.4391 -0.0861
14894TIP3   OH266172   3.190   1.276  12.361 -0.0977 -0.2451 -0.6690
14894TIP3    H166173   3.212   1.184  12.374 -0.2748 -0.0881  0.9428
14894TIP3    H266174   3.182   1.311  12.450  0.4198  1.4350 -1.2599
14895TIP3   OH266175   3.377   4.508  13.200  0.1913  0.2416  0.4320
14895TIP3    H166176   3.394   4.580  13.261  1.1048  0.6944 -0.3456
14895TIP3    H266177   3.454   4.452  13.208  0.8093  0.8505 -1.0767
14896TIP3   OH266178   5.205   4.507  13.572  0.4536  0.0313  0.1830
14896TIP3    H166179   5.228   4.425  13.617  0.5934 -1.3930 -2.3822
14896TIP3    H266180   5.148   4.480  13.500 -0.0268  2.2759 -0.3209
14897TIP3   OH266181   1.727   5.784  13.460 -0.3123 -0.4295  0.0870
14897TIP3    H166182   1.715   5.721  13.531  2.0411  0.1880  1.1061
14897TIP3    H266183   1.810   5.757  13.420 -0.3982  0.7078 -0.8445
14898TIP3   OH266184   6.044   5.400   1.545 -0.4237 -0.1744  0.1765
14898TIP3    H166185   5.984   5.376   1.616 -0.0806 -2.0207 -0.1385
14898TIP3    H266186   6.130   5.403   1.587 -0.1911 -1.4664 -0.1738
14899TIP3   OH266187   2.358   1.864   3.715  0.5376  0.1288 -0.6709
14899TIP3    H166188   2.433   1.886   3.770  2.4332 -0.2364 -3.0505
14899TIP3    H266189   2.297   1.936   3.728  0.9498  0.0927  1.8373
14900TIP3   OH266190   3.532   6.552  14.871  0.8259 -0.5611  0.2060
14900TIP3    H166191   3.525   6.563  14.966  1.6197  2.0750  0.0166
14900TIP3    H266192   3.627   6.546  14.856  0.8141  1.0793 -0.5869
14901TIP3   OH266193   1.219   2.921  12.186  0.1077  0.3738 -0.3206
14901TIP3    H166194   1.270   2.912  12.105  0.0280 -1.6637 -0.1645
14901TIP3    H266195   1.279   2.959  12.249  0.0070  2.5383 -1.4862
14902TIP3   OH266196   5.693   0.908  16.252  0.0265 -0.1940  0.3428
14902TIP3    H166197   5.631   0.880  16.319 -0.0320 -1.5801 -0.2676
14902TIP3    H266198   5.775   0.865  16.276  0.2883  0.2089  0.1649
14903TIP3   OH266199   0.281   4.746   2.111 -0.5547 -0.3372  0.4615
14903TIP3    H166200   0.193   4.783   2.110 -0.6427 -0.5626 -0.1992
14903TIP3    H266201   0.332   4.806   2.166 -1.3957 -0.8450  1.8232
14904TIP3   OH266202   0.418   6.045   3.766 -0.1858  0.2310 -0.7607
14904TIP3    H166203   0.359   5.979   3.803 -0.4035 -0.5440 -2.4533
14904TIP3    H266204   0.362   6.120   3.748  0.1739  1.1209  1.7436
14905TIP3   OH266205   5.630   2.477  17.154 -0.3259 -0.0900  0.7735
14905TIP3    H166206   5.638   2.387  17.122 -2.4602 -0.3258  0.8440
14905TIP3    H266207   5.541   2.503  17.129 -0.4674  1.2522  2.6388
14906TIP3   OH266208   3.192   3.514   1.987  0.1569 -0.1753 -0.8071
14906TIP3    H166209   3.276   3.547   1.956  1.0909 -1.3221  0.4943
14906TIP3    H266210   3.213   3.437   2.039 -1.4871  0.7968  1.3998
14907TIP3   OH266211   5.081   3.467  12.917  0.0680  0.4160 -0.3440
14907TIP3    H166212   5.126   3.503  12.841  0.4844 -0.1817 -0.3764
14907TIP3    H266213   5.066   3.375  12.896  2.2242 -0.3523  1.2184
14908TIP3   OH266214   6.654   4.725  10.481 -0.8057  0.1987  0.4269
14908TIP3    H166215   6.733   4.779  10.482 -0.6049  0.0200 -2.4290
14908TIP3    H266216   6.582   4.788  10.481 -0.5730  0.5594 -3.0686
14909TIP3   OH266217   3.657   0.503  13.822 -0.0670 -0.0361  0.0992
14909TIP3    H166218   3.621   0.497  13.733 -0.9638 -0.9242  0.5169
14909TIP3    H266219   3.726   0.569  13.815 -1.5664  1.4871 -0.7924
14910TIP3   OH266220   4.067   2.363  13.981 -0.2179  0.0676  0.1559
14910TIP3    H166221   4.122   2.292  14.014  0.0133 -0.2369 -0.8478
14910TIP3    H266222   4.107   2.443  14.014 -0.0307 -0.2323  0.6505
14911TIP3   OH266223   1.812   4.405  14.599  0.3316 -0.2096  0.7747
14911TIP3    H166224   1.881   4.349  14.563  1.6239 -0.1227  3.0184
14911TIP3    H266225   1.805   4.378  14.691 -1.9429  0.4738  0.8378
14912TIP3   OH266226   5.404   0.545   3.257  0.0263 -0.1300  0.9995
14912TIP3    H166227   5.410   0.499   3.173  1.6115 -0.8876  1.5172
14912TIP3    H266228   5.340   0.494   3.307 -0.4438 -0.0466  0.4894
14913TIP3   OH266229   2.996   1.743  14.399  0.0073  0.2048  0.3483
14913TIP3    H166230   3.076   1.795  14.385 -0.3363  0.4646 -0.7326
14913TIP3    H266231   3.010   1.700  14.483  1.0419  0.7044  0.4466
14914TIP3   OH266232   6.709   1.686   4.175 -0.2679 -0.0780  0.5576
14914TIP3    H166233   6.792   1.645   4.149 -0.0699  0.8274 -0.2643
14914TIP3    H266234   6.643   1.642   4.120 -0.1596  0.1568  0.2401
14915TIP3   OH266235   2.633   4.892  14.181 -0.1059  0.3361  0.0523
14915TIP3    H166236   2.648   4.800  14.204 -0.9271 -0.3438 -1.9814
14915TIP3    H266237   2.552   4.915  14.227  0.4205  0.2181  1.0403
14916TIP3   OH266238   1.737   6.569   3.753 -0.3117 -0.7902 -0.5904
14916TIP3    H166239   1.814   6.575   3.696 -0.2061  1.5657 -0.2712
14916TIP3    H266240   1.763   6.508   3.822  1.9275  1.1969  0.4198
14917TIP3   OH266241   1.334   0.122   2.854  0.0628  0.2868 -0.5194
14917TIP3    H166242   1.351   0.149   2.764 -1.9102  0.8305 -0.7643
14917TIP3    H266243   1.282   0.041   2.846 -1.1510  0.9835  0.0801
14918TIP3   OH266244   6.637   0.966   0.855  0.5441 -0.0194  0.6413
14918TIP3    H166245   6.590   0.891   0.890 -0.8767  0.8712  0.6886
14918TIP3    H266246   6.701   0.989   0.923  1.9129 -2.0109  0.0396
14919TIP3   OH266247   2.240   4.041  16.510 -0.8981 -0.5143 -0.3827
14919TIP3    H166248   2.211   4.016  16.422 -1.8223 -0.2267 -0.1702
14919TIP3    H266249   2.262   3.958  16.552  1.6524 -0.4955 -1.5891
14920TIP3   OH266250   1.545   3.155  13.829 -0.3618  0.6644  0.2800
14920TIP3    H166251   1.632   3.158  13.788  0.0222  3.5491  1.2254
14920TIP3    H266252   1.556   3.095  13.902  0.6475  0.4604 -0.0273
14921TIP3   OH266253   0.642   2.389   4.524  0.0524  0.7863  0.1479
14921TIP3    H166254   0.644   2.319   4.589 -1.3205  2.7977  2.4358
14921TIP3    H266255   0.700   2.456   4.559 -1.8003  2.4887  0.0102
14922TIP3   OH266256   6.560   1.969  16.878  0.6420  0.0587 -0.1001
14922TIP3    H166257   6.587   2.059  16.897 -1.5879  0.2759  2.3043
14922TIP3    H266258   6.466   1.975  16.860  0.4703 -1.7500  0.0797
14923TIP3   OH266259   6.395   4.437   3.373 -0.3998 -0.5554 -0.3761
14923TIP3    H166260   6.470   4.469   3.322  0.8741 -0.6071  1.3938
14923TIP3    H266261   6.398   4.342   3.363 -1.8384 -0.4042 -2.4553
14924TIP3   OH266262   2.575   3.966  13.975 -0.1187 -0.4403  0.0509
14924TIP3    H166263   2.517   4.024  14.024  1.3914 -0.8536  2.4020
14924TIP3    H266264   2.591   4.012  13.893 -1.4386  1.0094  0.5711
14925TIP3   OH266265   4.569   3.761  14.565  0.3176  0.2129  0.4834
14925TIP3    H166266   4.534   3.726  14.647 -0.8896 -0.0655 -0.1353
14925TIP3    H266267   4.583   3.854  14.584  1.1947 -0.0881  1.3719
14926TIP3   OH266268   5.804   4.629  13.735 -0.4610  0.0604 -0.2850
14926TIP3    H166269   5.724   4.674  13.760 -0.0502  1.1299 -0.8368
14926TIP3    H266270   5.871   4.697  13.736  0.2139 -0.5767 -0.9539
14927TIP3   OH266271   4.082   2.031  11.576 -0.1515 -0.1583 -0.2490
14927TIP3    H166272   3.998   1.993  11.600 -0.3975  0.9058  0.6314
14927TIP3    H266273   4.062   2.121  11.550  0.6754  0.0401 -0.2377
14928TIP3   OH266274   4.354   2.237  11.807  0.1575 -0.3975 -0.2398
14928TIP3    H166275   4.282   2.237  11.870 -0.0923  1.1701 -0.5143
14928TIP3    H266276   4.317   2.277  11.728  1.4894  0.9145 -0.2077
14929TIP3   OH266277   3.525   4.081   1.406  0.6215 -0.7147  0.0825
14929TIP3    H166278   3.514   4.000   1.355  2.7621 -1.0038  0.0397
14929TIP3    H266279   3.581   4.056   1.479 -0.2995  0.3035  1.1450
14930TIP3   OH266280   3.830   2.969  11.341 -0.2354 -0.3727  0.2421
14930TIP3    H166281   3.779   3.050  11.332  2.6280  1.4497 -0.1839
14930TIP3    H266282   3.872   2.957  11.256  2.8532  0.1585  1.6186
14931TIP3   OH266283   4.397   4.211   5.814  0.1254 -0.6940 -0.3908
14931TIP3    H166284   4.460   4.258   5.760  0.6804 -0.3483  0.5616
14931TIP3    H266285   4.444   4.133   5.844 -0.0188 -0.6273  0.0098
14932TIP3   OH266286   5.066   5.004   3.557  0.0083 -0.6306 -0.3471
14932TIP3    H166287   4.982   5.018   3.601  0.4955 -1.5061  0.8801
14932TIP3    H266288   5.125   5.068   3.597  0.6013 -1.8199  0.7125
14933TIP3   OH266289   3.206   6.186   5.635 -0.6627 -0.2860 -0.0855
14933TIP3    H166290   3.272   6.128   5.597 -0.0808  0.7985 -0.7700
14933TIP3    H266291   3.253   6.234   5.703 -0.9838 -0.1913  0.0674
14934TIP3   OH266292   1.293   3.410   2.581  0.6278 -0.2685  0.1726
14934TIP3    H166293   1.229   3.463   2.533  1.0118 -0.2329 -0.3097
14934TIP3    H266294   1.243   3.370   2.652 -0.0902 -0.8077 -0.6225
14935TIP3   OH266295   4.086   4.415  16.983 -0.0454 -0.6889  0.3638
14935TIP3    H166296   4.148   4.464  17.037  0.2501  1.2040 -1.6206
14935TIP3    H266297   4.016   4.477  16.964 -0.1046 -1.2742 -1.4800
14936TIP3   OH266298   4.715   4.260   2.502 -0.2760 -0.3581 -0.3771
14936TIP3    H166299   4.698   4.170   2.474 -0.5024 -0.2981 -0.4364
14936TIP3    H266300   4.808   4.273   2.486 -0.2969 -0.4975 -0.6111
14937TIP3   OH266301   4.537   1.331  14.266 -0.2823  0.3308 -0.3265
14937TIP3    H166302   4.464   1.362  14.212 -0.4315  2.5685  1.1283
14937TIP3    H266303   4.614   1.373  14.228  0.3641 -2.2891 -2.0700
14938TIP3   OH266304   6.474   6.256   3.745 -0.3410  0.2150 -0.7997
14938TIP3    H166305   6.383   6.268   3.717 -0.6738  0.1971  0.2452
14938TIP3    H266306   6.467   6.225   3.835  0.7150  1.6597 -0.1972
14939TIP3   OH266307   2.996   4.156  15.326 -0.4145 -0.3755 -0.4133
14939TIP3    H166308   2.967   4.095  15.258 -1.9093  0.4951 -0.6009
14939TIP3    H266309   3.063   4.209  15.283 -0.3101 -0.7905 -0.7658
14940TIP3   OH266310   3.478   1.669  13.935  0.0221 -0.3617 -1.2857
14940TIP3    H166311   3.559   1.720  13.945 -0.0670 -0.8791  2.4428
14940TIP3    H266312   3.409   1.730  13.960 -0.1517 -1.9579  2.3705
14941TIP3   OH266313   4.699   2.394   1.831  0.1127 -0.6081  0.4569
14941TIP3    H166314   4.697   2.450   1.753  1.1975 -1.2426 -0.0402
14941TIP3    H266315   4.608   2.369   1.846  0.0566 -1.5884 -1.4146
14942TIP3   OH266316   1.243   5.537   3.207 -0.2277 -0.0710 -0.1974
14942TIP3    H166317   1.193   5.603   3.255  0.8304  0.3146  0.3942
14942TIP3    H266318   1.295   5.586   3.144 -0.8455 -0.4971 -1.0419
14943TIP3   OH266319   6.550   1.140   2.667 -0.0264 -0.2509  0.3557
14943TIP3    H166320   6.479   1.076   2.674  0.3231 -0.8335 -1.0833
14943TIP3    H266321   6.544   1.172   2.577  0.0850  1.4215  0.9255
14944TIP3   OH266322   3.955   4.626  14.227  0.0128  0.6483  0.5519
14944TIP3    H166323   3.909   4.710  14.217  0.6245  0.9455  0.1765
14944TIP3    H266324   3.902   4.564  14.177  0.3279  1.1113 -0.3812
14945TIP3   OH266325   4.729   4.797  15.888 -0.1908  0.1445  0.3934
14945TIP3    H166326   4.702   4.770  15.800 -0.0442  1.8475 -0.1926
14945TIP3    H266327   4.753   4.889  15.879 -0.1731  0.3474  2.2207
14946TIP3   OH266328   1.498   5.923   2.279  0.0159 -0.0575 -0.5466
14946TIP3    H166329   1.513   6.008   2.238 -1.3455  1.0597  1.1982
14946TIP3    H266330   1.406   5.903   2.260  0.1291 -0.8198 -0.3251
14947TIP3   OH266331   6.743   6.371  13.980  0.1627 -0.3363 -0.3137
14947TIP3    H166332   6.723   6.371  13.887 -1.2176  1.5500 -0.0384
14947TIP3    H266333   6.781   6.457  13.996  0.4917 -0.6916  0.8487
14948TIP3   OH266334   1.178   3.529   3.063  0.4918 -0.3503 -0.8485
14948TIP3    H166335   1.223   3.613   3.058 -1.2083  0.5450 -1.5981
14948TIP3    H266336   1.133   3.531   3.147  0.3990 -0.4782 -0.8954
14949TIP3   OH266337   3.392   3.132   4.585 -0.4920 -0.2136 -0.2393
14949TIP3    H166338   3.305   3.151   4.620 -1.7986 -0.6761 -3.1561
14949TIP3    H266339   3.392   3.037   4.573  0.3555 -0.1840 -0.4711
14950TIP3   OH266340   2.724   2.256  11.936 -0.3951  0.0685 -0.3194
14950TIP3    H166341   2.698   2.188  11.873 -0.3086 -0.8494  0.6134
14950TIP3    H266342   2.657   2.323  11.929 -1.3161 -0.8275 -0.1685
14951TIP3   OH266343   4.610   2.748  14.562  0.2180 -0.2154  0.2216
14951TIP3    H166344   4.551   2.813  14.525  1.8615 -0.0704 -2.2386
14951TIP3    H266345   4.662   2.796  14.627 -1.9286 -0.2238  1.9941
14952TIP3   OH266346   2.441   1.766  16.237 -0.2711  0.0392 -0.3880
14952TIP3    H166347   2.381   1.841  16.238 -1.1768 -0.6893  1.3837
14952TIP3    H266348   2.395   1.700  16.185  0.8366  0.9145 -2.5621
14953TIP3   OH266349   2.228   2.184   2.888  0.4551 -0.0547  0.3018
14953TIP3    H166350   2.270   2.188   2.803 -0.1962 -1.2139 -0.0861
14953TIP3    H266351   2.210   2.275   2.911  2.9282  0.4489  0.3746
14954TIP3   OH266352   0.057   5.598  13.449 -0.1269 -0.2101  0.3088
14954TIP3    H166353   0.110   5.676  13.465 -1.2574  0.8439 -0.9458
14954TIP3    H266354   0.101   5.528  13.497  1.9525  0.8136 -0.0737
14955TIP3   OH266355   5.787   6.694   5.740 -0.1046 -0.0341 -0.1893
14955TIP3    H166356   5.825   6.607   5.730  1.4108  0.4028  1.5399
14955TIP3    H266357   5.770   6.723   5.650  3.1401 -0.4933 -0.9899
14956TIP3   OH266358   2.652   0.718   1.894 -0.1647 -0.2258  0.1820
14956TIP3    H166359   2.607   0.648   1.846 -0.2586  0.8256 -1.3077
14956TIP3    H266360   2.583   0.762   1.942 -0.2196 -0.6874  0.5284
14957TIP3   OH266361   1.199   2.584   3.909 -0.0340  0.5570  0.5306
14957TIP3    H166362   1.286   2.601   3.943  0.0224  1.5997 -0.1061
14957TIP3    H266363   1.186   2.490   3.921  0.6275  0.6265  1.8862
14958TIP3   OH266364   3.303   5.233   4.666 -0.6385  0.6145  0.1409
14958TIP3    H166365   3.238   5.303   4.672 -0.3251  0.8929  0.2580
14958TIP3    H266366   3.387   5.278   4.664 -0.3621  0.1840  1.6392
14959TIP3   OH266367   3.537   6.531   4.305  0.0075 -0.3609  0.2046
14959TIP3    H166368   3.462   6.480   4.334  0.9963 -0.9611  1.7655
14959TIP3    H266369   3.614   6.482   4.335  1.0205  0.7148 -0.5361
14960TIP3   OH266370   2.523   5.935  13.518 -0.6202 -0.1292  0.0815
14960TIP3    H166371   2.526   5.850  13.563  0.9807  0.2502  0.7140
14960TIP3    H266372   2.515   5.999  13.589  1.8338  0.4751 -0.1356
14961TIP3   OH266373   0.373   6.728   1.910  0.0311  0.2348 -0.1470
14961TIP3    H166374   0.422   6.646   1.900 -0.9994 -0.2637 -1.1801
14961TIP3    H266375   0.360   6.736   2.005  2.5457  0.6549  0.2030
14962TIP3   OH266376   4.733   1.642  11.383 -0.0373  0.0360 -0.5001
14962TIP3    H166377   4.738   1.600  11.297 -0.2909 -1.0533  0.0067
14962TIP3    H266378   4.758   1.573  11.444  0.6562  0.9622  0.2571
14963TIP3   OH266379   3.083   6.642   3.051  0.1078  0.4433 -0.0860
14963TIP3    H166380   3.008   6.661   2.994 -0.4211  1.4371  0.9216
14963TIP3    H266381   3.075   6.549   3.071 -0.4597  0.3880 -0.5479
14964TIP3   OH266382   5.478   3.890   3.004 -0.1675 -0.1543  0.5571
14964TIP3    H166383   5.421   3.815   3.020  0.9265 -1.8617 -2.9992
14964TIP3    H266384   5.566   3.858   3.019  0.2868  0.5477 -0.5158
14965TIP3   OH266385   2.128   2.101   2.267 -0.1657  0.4197  0.1397
14965TIP3    H166386   2.180   2.177   2.244 -1.2745  0.9716 -0.6351
14965TIP3    H266387   2.186   2.026   2.252  0.5557  1.0488 -0.2135
14966TIP3   OH266388   1.736   4.379   1.164 -0.2097  0.0794 -0.3355
14966TIP3    H166389   1.754   4.473   1.163  1.0972 -0.1571 -1.8160
14966TIP3    H266390   1.716   4.359   1.256  1.3228  1.4629  0.3217
14967TIP3   OH266391   5.342   6.346   2.212 -0.2644 -0.6166 -0.7438
14967TIP3    H166392   5.366   6.391   2.130  0.7234 -0.1360 -0.2076
14967TIP3    H266393   5.383   6.260   2.204 -0.5458 -0.7348 -0.9429
14968TIP3   OH266394   5.849   3.731   3.727  1.0030 -0.3581 -0.1105
14968TIP3    H166395   5.880   3.684   3.651  0.6818 -0.6969 -0.0350
14968TIP3    H266396   5.877   3.822   3.714  0.5028 -0.3125 -0.8782
14969TIP3   OH266397   5.376   3.152   3.535 -0.7195  0.5421  0.1129
14969TIP3    H166398   5.381   3.074   3.480 -0.8583  0.1313  0.6783
14969TIP3    H266399   5.291   3.145   3.579 -1.7010  2.1067 -1.4565
14970TIP3   OH266400   3.540   0.522   2.421  0.6001 -0.1351  0.1935
14970TIP3    H166401   3.462   0.508   2.368 -0.9790  0.9761  2.1426
14970TIP3    H266402   3.553   0.617   2.420  3.0084 -0.4232 -1.5628
14971TIP3   OH266403   0.769   5.924   1.294 -0.3171  0.1434 -0.7685
14971TIP3    H166404   0.824   5.951   1.220  1.4329 -0.5298  0.2498
14971TIP3    H266405   0.702   5.868   1.255  0.4940 -0.0699 -1.8791
14972TIP3   OH266406   5.453   3.480  15.340  0.1938 -0.4738  0.7610
14972TIP3    H166407   5.427   3.481  15.248  2.0750  1.1325  0.2125
14972TIP3    H266408   5.371   3.466  15.387 -1.1123  0.6918 -1.0622
14973TIP3   OH266409   4.691   0.923  16.797 -0.0284  0.5050 -0.5094
14973TIP3    H166410   4.767   0.930  16.740 -0.8431 -0.0667 -1.6674
14973TIP3    H266411   4.724   0.945  16.884  0.9826  2.4588 -1.3645
14974TIP3   OH266412   2.887   2.509  16.219  0.3268 -0.8556 -0.9128
14974TIP3    H166413   2.799   2.541  16.199 -0.4685 -1.5331  1.2495
14974TIP3    H266414   2.889   2.421  16.183 -1.2080 -2.2002  2.1081
14975TIP3   OH266415   2.742   5.596  12.582  0.2188 -0.0919  0.3788
14975TIP3    H166416   2.782   5.510  12.570  1.6494  0.2886  2.1754
14975TIP3    H266417   2.814   5.658  12.567 -0.4331  0.7320  0.6040
14976TIP3   OH266418   5.540   3.951  15.669 -0.1742  0.3924 -0.9425
14976TIP3    H166419   5.516   3.860  15.689 -0.6965  0.3334 -1.8015
14976TIP3    H266420   5.487   4.003  15.729  1.8542  0.0700  1.2042
14977TIP3   OH266421   6.598   1.557  16.491  0.4066 -0.1154 -0.1822
14977TIP3    H166422   6.516   1.571  16.539  0.9485 -1.3553  1.1328
14977TIP3    H266423   6.648   1.637  16.506 -0.1909  0.2716 -0.2321
14978TIP3   OH266424   6.533   6.478   1.973  0.2043  0.0655 -0.8133
14978TIP3    H166425   6.625   6.455   1.964  0.1234 -1.1119  1.0476
14978TIP3    H266426   6.530   6.537   2.049 -0.7028 -0.9412 -0.0357
14979TIP3   OH266427   3.574   3.712  12.342  0.5381 -0.4621  0.2060
14979TIP3    H166428   3.576   3.804  12.370 -1.0894 -0.6590  1.0384
14979TIP3    H266429   3.661   3.696  12.306  1.5693  0.7999  2.0545
14980TIP3   OH266430   1.202   6.507   3.173  0.5138 -0.0865  0.8245
14980TIP3    H166431   1.291   6.482   3.150 -0.0424 -1.8339  0.5244
14980TIP3    H266432   1.209   6.543   3.261  1.5613  0.1292  0.6620
14981TIP3   OH266433   0.105   2.644  12.051  0.3380 -0.2837 -0.7538
14981TIP3    H166434   0.096   2.704  12.126  0.9984 -0.3602 -0.6131
14981TIP3    H266435   0.092   2.699  11.974  0.6314 -0.0189 -0.6143
14982TIP3   OH266436   3.408   4.531   6.051 -0.4996  0.0984 -0.7785
14982TIP3    H166437   3.501   4.552   6.063 -0.8536  0.7782  1.0062
14982TIP3    H266438   3.383   4.575   5.970 -0.1654  3.1577  0.6863
14983TIP3   OH266439   1.630   2.841  14.907  0.1981 -0.5210  0.0045
14983TIP3    H166440   1.710   2.798  14.878  1.2255  0.3641  1.4708
14983TIP3    H266441   1.622   2.818  14.999 -0.6152  0.3494  0.1583
14984TIP3   OH266442   2.305   0.047   3.127 -0.7394 -0.5571 -0.0024
14984TIP3    H166443   2.258   0.014   3.050  0.4725 -1.1843 -0.4898
14984TIP3    H266444   2.374  -0.017   3.142  0.9269  1.1378 -0.2391
14985TIP3   OH266445   5.511   5.388   3.350  0.4228 -0.0185 -0.4545
14985TIP3    H166446   5.525   5.373   3.256  1.8653 -0.2642 -0.2132
14985TIP3    H266447   5.591   5.432   3.379  0.8476 -1.7137  1.0377
14986TIP3   OH266448   4.108   4.551  15.712 -0.4139 -0.8179 -0.2157
14986TIP3    H166449   4.112   4.505  15.796 -2.0196 -2.7681 -1.1628
14986TIP3    H266450   4.169   4.505  15.656 -0.7525 -0.7198 -0.6711
14987TIP3   OH266451   1.983   0.834   2.074  0.4939  0.8230  0.2945
14987TIP3    H166452   2.030   0.760   2.036  0.3743  1.1652 -0.5401
14987TIP3    H266453   2.044   0.871   2.138  0.7406  0.2935  0.3667
14988TIP3   OH266454   2.097   6.765  11.965  0.3953 -0.1392  0.0284
14988TIP3    H166455   2.166   6.826  11.941  0.9181 -0.6003  0.3407
14988TIP3    H266456   2.016   6.810  11.943  0.7942  0.4502 -0.2356
14989TIP3   OH266457   4.602   4.248   0.084 -0.2888 -0.0280  0.5137
14989TIP3    H166458   4.690   4.229   0.116  0.9590 -0.1142 -2.7834
14989TIP3    H266459   4.550   4.172   0.109  0.7013 -0.2498  1.9502
14990TIP3   OH266460   5.647   6.707  14.962 -0.5033 -0.0803 -0.1099
14990TIP3    H166461   5.659   6.666  15.048  0.9605  1.1012  0.2746
14990TIP3    H266462   5.735   6.707  14.923 -0.8192  1.0527 -0.8343
14991TIP3   OH266463   4.493   0.166   3.967  0.5545  0.1568  0.4115
14991TIP3    H166464   4.472   0.103   4.036 -1.0909  0.4639  0.2199
14991TIP3    H266465   4.574   0.207   3.996  1.8937 -2.3202  0.3402
14992TIP3   OH266466   0.873   6.460  10.616  0.0529  0.0499  0.1661
14992TIP3    H166467   0.829   6.387  10.659  0.3787 -0.7356 -0.8319
14992TIP3    H266468   0.880   6.435  10.524  0.1210  1.3580 -0.2040
14993TIP3   OH266469   2.336   5.761  13.663  0.1999  0.3451 -0.1895
14993TIP3    H166470   2.327   5.692  13.729 -1.6143 -0.6332 -1.3921
14993TIP3    H266471   2.256   5.813  13.672 -0.0310  0.2478 -1.5242
14994TIP3   OH266472   0.389   5.443   5.091 -0.1822 -0.0055  0.0713
14994TIP3    H166473   0.356   5.415   5.005 -2.4620 -0.3958  1.0413
14994TIP3    H266474   0.425   5.530   5.075 -1.1534  0.1890 -1.1558
14995TIP3   OH266475   1.289   2.395   2.683 -0.6497 -0.9353 -0.4586
14995TIP3    H166476   1.243   2.466   2.639 -0.3561 -0.7746 -0.5060
14995TIP3    H266477   1.317   2.337   2.613 -1.4658 -1.4411 -0.3695
14996TIP3   OH266478   5.481   4.091  11.819  0.0966  0.4298  0.7110
14996TIP3    H166479   5.392   4.108  11.848 -0.1356  1.9948 -0.7847
14996TIP3    H266480   5.522   4.177  11.815  0.5028  0.1814 -2.1886
14997TIP3   OH266481   0.089   0.815  14.978  0.5223  0.0987  0.3086
14997TIP3    H166482   0.071   0.753  14.908  0.2576  0.1904  0.2956
14997TIP3    H266483   0.052   0.774  15.056 -0.0207  0.4296  0.2283
14998TIP3   OH266484   0.964   0.165   1.435 -0.5351 -0.3856 -0.7116
14998TIP3    H166485   0.952   0.258   1.454 -2.1791 -0.6486 -0.3511
14998TIP3    H266486   0.928   0.121   1.512  0.8645 -1.3115 -0.5796
14999TIP3   OH266487   3.936   1.732   0.123  0.0199  0.2935 -0.1483
14999TIP3    H166488   4.002   1.739   0.055  1.5369  0.1546  1.2846
14999TIP3    H266489   3.926   1.638   0.137  0.8777  0.3593  0.9290
15000TIP3   OH266490   1.238   0.297   3.034  0.0073 -0.1497 -0.3539
15000TIP3    H166491   1.279   0.220   2.994 -0.1591 -0.8452  0.7836
15000TIP3    H266492   1.252   0.367   2.971 -1.7712 -1.5906 -2.4434
15001TIP3   OH266493   1.399   4.845  14.566 -0.5280 -0.7887  0.6546
15001TIP3    H166494   1.326   4.882  14.517 -0.5937  0.1699  1.4587
15001TIP3    H266495   1.431   4.918  14.620  2.9946 -0.2613 -1.9138
15002TIP3   OH266496   3.578   4.684  13.057 -0.0849 -0.3404 -0.0849
15002TIP3    H166497   3.574   4.603  13.108  0.6989  0.0237  0.5437
15002TIP3    H266498   3.585   4.654  12.966 -0.4266 -0.9788  0.0952
15003TIP3   OH266499   6.708   3.956  14.518  0.6275  0.0557  0.4675
15003TIP3    H166500   6.619   3.968  14.553  1.0075  1.5261  0.9696
15003TIP3    H266501   6.700   3.976  14.425  0.8606  2.4718  0.9342
15004TIP3   OH266502   4.136   3.938  14.478 -0.2140 -0.8173  0.7451
15004TIP3    H166503   4.216   3.885  14.484 -0.8019 -1.6392  1.3362
15004TIP3    H266504   4.144   4.002  14.549  1.2235  0.9223 -0.9083
15005TIP3   OH266505   2.298   6.173   3.146  0.4576  0.7391  0.1444
15005TIP3    H166506   2.343   6.248   3.106  1.9025  0.5133  1.3168
15005TIP3    H266507   2.364   6.133   3.203 -0.4128 -1.2043 -0.1792
15006TIP3   OH266508   1.872   0.453  12.182  0.4105 -0.3191 -0.4003
15006TIP3    H166509   1.966   0.451  12.161  1.0801 -1.7655  2.4291
15006TIP3    H266510   1.865   0.511  12.257 -0.8854 -0.6171 -0.2756
15007TIP3   OH266511   6.811   3.648   5.664 -0.2833 -0.0241  0.3585
15007TIP3    H166512   6.885   3.673   5.720 -0.5484  0.6969  0.3960
15007TIP3    H266513   6.806   3.717   5.598 -0.6536 -0.2933  0.1027
15008TIP3   OH266514   6.800   1.881   4.696 -0.6984  0.6621 -0.4989
15008TIP3    H166515   6.839   1.940   4.760  1.3093 -1.2660  0.0918
15008TIP3    H266516   6.860   1.882   4.622 -0.3016 -1.1020 -0.2272
15009TIP3   OH266517   0.778   1.023   1.773 -0.7528 -0.1827  0.3120
15009TIP3    H166518   0.802   1.048   1.684  3.7261 -1.0039  1.1945
15009TIP3    H266519   0.763   1.106   1.817 -2.5729  0.2451 -1.0347
15010TIP3   OH266520   2.730   2.739  11.719  0.1699 -0.7961 -0.3926
15010TIP3    H166521   2.714   2.779  11.805  2.7338 -0.1362 -0.1970
15010TIP3    H266522   2.724   2.812  11.657 -0.1850 -1.0118 -0.6150
15011TIP3   OH266523   0.052   2.737   4.164 -0.2975  0.3237 -0.3057
15011TIP3    H166524   0.049   2.730   4.259 -0.5828 -2.9254 -0.4813
15011TIP3    H266525   0.145   2.735   4.142 -0.2903 -1.0841 -0.1849
15012TIP3   OH266526   0.475   5.254  11.294 -0.0811 -0.3940 -0.2812
15012TIP3    H166527   0.517   5.188  11.238 -0.9413 -1.8473  0.7484
15012TIP3    H266528   0.534   5.330  11.291  0.5001 -0.8986 -2.1617
15013TIP3   OH266529   2.048   2.579   5.540 -0.1022  0.6573  0.0329
15013TIP3    H166530   2.042   2.674   5.553 -0.1661  0.4776  1.2872
15013TIP3    H266531   1.968   2.544   5.580  1.6935 -0.2627  2.9215
15014TIP3   OH266532   3.339   0.308   1.334 -0.4307 -0.1115 -0.3324
15014TIP3    H166533   3.244   0.300   1.327 -0.5440  1.0567 -0.1289
15014TIP3    H266534   3.355   0.402   1.339  0.8164 -0.2349 -1.6012
15015TIP3   OH266535   5.479   6.820  12.050  0.2481  0.2172  0.0256
15015TIP3    H166536   5.500   6.741  12.101  0.0898 -0.5679 -1.0949
15015TIP3    H266537   5.420   6.870  12.107 -1.2101 -1.4020  0.0168
15016TIP3   OH266538   3.858   0.269   0.983  0.1393 -0.4375 -0.2496
15016TIP3    H166539   3.876   0.363   0.982 -0.2314 -0.3498  0.7642
15016TIP3    H266540   3.830   0.249   0.894  0.5713  0.3456 -0.5669
15017TIP3   OH266541   6.459   5.407   4.214 -0.7694  0.6275 -0.2314
15017TIP3    H166542   6.506   5.339   4.167 -1.4434  0.2337 -0.3427
15017TIP3    H266543   6.520   5.481   4.218  0.8814 -0.8314  2.0470
15018TIP3   OH266544   4.195   1.699   4.577  0.0890 -0.2968 -0.3149
15018TIP3    H166545   4.146   1.699   4.659 -0.0095  1.3671 -0.3443
15018TIP3    H266546   4.169   1.618   4.534 -0.5581 -0.7511  0.8906
15019TIP3   OH266547   2.852   5.383   6.257 -0.0320  0.4675 -0.0410
15019TIP3    H166548   2.817   5.450   6.316  1.6101  1.8617 -0.6378
15019TIP3    H266549   2.804   5.304   6.281  1.2073  0.7750  3.8245
15020TIP3   OH266550   5.026   6.476   4.469  0.1338  0.6460 -1.3143
15020TIP3    H166551   5.088   6.407   4.445  1.0235  0.1818  2.0111
15020TIP3    H266552   4.946   6.428   4.494  0.5496  0.8054  0.4055
15021TIP3   OH266553   6.749   3.221  16.529 -0.3956 -0.4524 -0.0514
15021TIP3    H166554   6.770   3.168  16.452  0.9341 -2.0685  1.3992
15021TIP3    H266555   6.798   3.302  16.516  0.6135 -1.1106 -0.4354
15022TIP3   OH266556   6.803   3.062   1.311  0.6293  0.0552 -0.7229
15022TIP3    H166557   6.846   3.123   1.371  0.1660  0.2486 -0.5862
15022TIP3    H266558   6.709   3.077   1.324  0.3911 -3.0836  1.9014
15023TIP3   OH266559   6.006   3.498   2.285 -0.2105 -0.2791  0.4821
15023TIP3    H166560   6.079   3.462   2.234 -0.0924 -1.3877  1.4256
15023TIP3    H266561   6.013   3.456   2.370 -1.5107  0.1879  0.8281
15024TIP3   OH266562   2.581   6.686   1.600  0.0806  0.5539  0.1965
15024TIP3    H166563   2.667   6.687   1.558 -0.7627 -1.2785 -1.6520
15024TIP3    H266564   2.597   6.723   1.687  2.5621  1.0473 -0.4197
15025TIP3   OH266565   4.341   1.678   3.150  0.2344 -0.0605 -0.7708
15025TIP3    H166566   4.319   1.596   3.194 -4.4167  2.5441  2.2920
15025TIP3    H266567   4.415   1.713   3.199 -1.6772  0.3566  1.9816
15026TIP3   OH266568   0.101   3.356   2.264 -0.5319 -0.5303 -0.0806
15026TIP3    H166569   0.169   3.355   2.331 -2.3367  2.6581  1.9488
15026TIP3    H266570   0.147   3.337   2.182  2.7731  1.3657  1.2507
15027TIP3   OH266571   4.627   0.861  13.755  0.3214  0.0844  0.9201
15027TIP3    H166572   4.626   0.832  13.847 -0.0185  0.6573  1.1030
15027TIP3    H266573   4.592   0.950  13.758  2.6076  1.0190  0.5522
15028TIP3   OH266574   2.440   5.037   2.912 -0.0595  0.3531  0.1217
15028TIP3    H166575   2.493   4.979   2.967 -1.8284 -1.4718 -0.0496
15028TIP3    H266576   2.416   4.983   2.837  0.6207  2.1918 -1.4508
15029TIP3   OH266577   2.996   5.334   6.008 -0.4389 -0.0305  0.1426
15029TIP3    H166578   2.958   5.333   6.096 -1.7994 -1.4649 -0.4388
15029TIP3    H266579   3.017   5.243   5.990  1.0823  0.4316 -0.5099
15030TIP3   OH266580   2.420   5.617  15.585 -0.2288  0.5649 -0.2050
15030TIP3    H166581   2.462   5.554  15.526  0.1079  0.3657  0.2496
15030TIP3    H266582   2.329   5.586  15.591 -0.0763  0.1529 -0.0220
15031TIP3   OH266583   4.304   6.589  15.479  0.3513  0.2320  0.0960
15031TIP3    H166584   4.219   6.551  15.502  1.0792 -0.5440  1.5694
15031TIP3    H266585   4.342   6.527  15.417  0.0428  0.3372 -0.1973
15032TIP3   OH266586   2.589   4.504   1.059 -0.4897  0.2145 -0.2178
15032TIP3    H166587   2.498   4.512   1.030 -0.3426  2.6489 -0.1209
15032TIP3    H266588   2.597   4.569   1.128  0.8548 -1.2602  1.0541
15033TIP3   OH266589   1.344   0.356  11.417  0.1243  0.2187 -0.1298
15033TIP3    H166590   1.254   0.381  11.438  0.3767  0.0955  1.0997
15033TIP3    H266591   1.354   0.381  11.325 -1.9761 -2.0484 -1.0290
15034TIP3   OH266592   2.755   2.489   3.247  0.3537  0.2239  0.2192
15034TIP3    H166593   2.676   2.447   3.281  1.0694 -1.9995 -0.7210
15034TIP3    H266594   2.735   2.582   3.245 -1.8351 -0.2058  1.0401
15035TIP3   OH266595   3.590   5.535  16.408 -0.0032 -0.3105  0.1367
15035TIP3    H166596   3.564   5.581  16.328  0.1171  0.7942  0.7225
15035TIP3    H266597   3.619   5.605  16.467 -0.6906 -1.0575  1.3756
15036TIP3   OH266598   0.435   4.560   3.423 -0.0036  0.2293 -0.0206
15036TIP3    H166599   0.345   4.541   3.395 -0.5134  0.5553  1.3702
15036TIP3    H266600   0.450   4.503   3.498  0.1702  1.7148  1.1134
15037TIP3   OH266601   0.722   4.791   1.819 -0.1148  0.0287  0.6292
15037TIP3    H166602   0.727   4.715   1.877  2.4952 -0.0981  0.2978
15037TIP3    H266603   0.663   4.852   1.863 -0.7664 -1.4167  1.7926
15038TIP3   OH266604   4.541   0.406  15.333 -1.0623  0.2740  0.1626
15038TIP3    H166605   4.492   0.452  15.264  0.2009  0.8350 -0.3844
15038TIP3    H266606   4.633   0.426  15.313 -0.6625 -0.0503  1.6733
15039TIP3   OH266607   2.384   5.053  12.852  0.2393  0.4596  0.1445
15039TIP3    H166608   2.370   4.995  12.777 -1.2560  0.2599  0.5508
15039TIP3    H266609   2.460   5.017  12.896  1.2271  0.6702 -1.3614
15040TIP3   OH266610   0.981   0.028  16.660 -0.5659 -0.1777  0.3681
15040TIP3    H166611   1.006   0.061  16.574  0.7205 -0.6232  0.5603
15040TIP3    H266612   1.053  -0.030  16.686 -1.3391 -0.7213  1.3737
15041TIP3   OH266613   4.166   3.987  16.015 -0.1666 -0.1810 -1.1938
15041TIP3    H166614   4.151   3.926  15.943 -1.3994  0.3569 -1.3952
15041TIP3    H266615   4.143   3.938  16.093  1.0091 -0.7081 -1.1586
15042TIP3   OH266616   3.256   3.675   6.461  0.0948 -0.3766  0.3316
15042TIP3    H166617   3.248   3.723   6.378 -1.9449 -0.2166  0.5751
15042TIP3    H266618   3.195   3.720   6.520  0.3867 -1.4414  1.4588
15043TIP3   OH266619   5.456   3.434  12.225 -0.3222 -0.2587 -0.0575
15043TIP3    H166620   5.436   3.500  12.159 -1.2363  0.8646  1.3298
15043TIP3    H266621   5.541   3.460  12.260  0.8398 -1.6490 -1.7326
15044TIP3   OH266622   0.340   4.868   5.012 -0.4714 -0.5876  0.0892
15044TIP3    H166623   0.320   4.864   5.106 -0.8335 -0.1941  0.0302
15044TIP3    H266624   0.416   4.927   5.006 -2.0785  1.5042 -0.1117
15045TIP3   OH266625   4.138   4.227   5.836  0.6505 -0.2190  0.0458
15045TIP3    H166626   4.224   4.252   5.804  0.9475 -0.7302  0.4222
15045TIP3    H266627   4.154   4.146   5.886 -0.1317 -0.6354 -0.3731
15046TIP3   OH266628   4.615   2.639   2.218 -0.1606  0.4503 -0.1700
15046TIP3    H166629   4.538   2.583   2.202  0.3419  0.0871 -1.3903
15046TIP3    H266630   4.615   2.654   2.313  0.6077 -2.9832  0.4419
15047TIP3   OH266631   1.618   6.432   2.723  0.0806  0.0791 -0.1714
15047TIP3    H166632   1.557   6.419   2.796  0.6843 -0.2579  0.2812
15047TIP3    H266633   1.571   6.486   2.661  0.2326  1.9730  1.3287
15048TIP3   OH266634   1.973   4.271   3.533 -0.2246  0.1185 -0.1502
15048TIP3    H166635   1.959   4.266   3.438 -0.2639  1.6581 -0.2269
15048TIP3    H266636   2.066   4.292   3.543  0.3253 -2.2837  0.2207
15049TIP3   OH266637   5.905   4.497   4.468  0.1718 -0.0723  0.7882
15049TIP3    H166638   5.874   4.570   4.414 -0.8772 -0.1738  1.2417
15049TIP3    H266639   5.945   4.436   4.406  2.9475  1.8186  0.6145
15050TIP3   OH266640   3.878   0.325  13.272  1.5249 -0.2893 -0.9783
15050TIP3    H166641   3.819   0.373  13.214  2.1829  1.3644 -0.3351
15050TIP3    H266642   3.844   0.236  13.273 -0.5938  0.4769 -1.1221
15051TIP3   OH266643   0.851   0.827  15.916  0.2275 -0.4193 -0.3513
15051TIP3    H166644   0.934   0.818  15.869  1.1326 -4.2309  1.7585
15051TIP3    H266645   0.785   0.831  15.848  1.7659 -2.2280 -2.0087
15052TIP3   OH266646   1.608   1.150   4.608 -0.5223  0.3441 -0.2674
15052TIP3    H166647   1.539   1.143   4.674 -0.2604  0.5221  0.0228
15052TIP3    H266648   1.679   1.096   4.642 -1.8524 -2.8096 -2.2722
15053TIP3   OH266649   0.150   5.654   2.283 -0.0686 -0.7231  0.0384
15053TIP3    H166650   0.224   5.712   2.265 -1.9326  1.7278 -0.0430
15053TIP3    H266651   0.188   5.567   2.287  2.9378  0.5659  0.7852
15054TIP3   OH266652   6.153   0.529  14.016  0.2579 -0.4621  0.6199
15054TIP3    H166653   6.097   0.514  13.939 -0.5876  1.9480  0.7051
15054TIP3    H266654   6.144   0.450  14.068 -2.0158 -0.6842 -0.0519
15055TIP3   OH266655   2.305   0.511  14.011  0.0463  0.1405 -0.6101
15055TIP3    H166656   2.381   0.543  14.060  1.6352 -1.9225 -1.6395
15055TIP3    H266657   2.282   0.429  14.053 -0.3626 -0.2240 -1.5382
15056TIP3   OH266658   6.175   0.555  16.132 -0.5078 -0.3301  0.4213
15056TIP3    H166659   6.162   0.484  16.070  1.4798  0.4553 -0.9583
15056TIP3    H266660   6.158   0.635  16.081  0.3658  0.2910  1.0691
15057TIP3   OH266661   2.920   1.777   3.009 -0.1720  0.2957  0.3450
15057TIP3    H166662   2.977   1.709   3.046 -0.1360  0.2081  0.1251
15057TIP3    H266663   2.833   1.757   3.044  0.0268  0.7481  1.1260
15058TIP3   OH266664   5.565   0.037  11.487 -0.0429  0.2825 -0.1887
15058TIP3    H166665   5.478  -0.004  11.477 -0.6911  1.7489 -0.6499
15058TIP3    H266666   5.546   0.129  11.501  1.4442  0.5290  0.2261
15059TIP3   OH266667   4.967   0.666   5.577  0.4664 -0.9203 -0.4751
15059TIP3    H166668   5.027   0.718   5.524  1.2421 -2.7832 -1.4727
15059TIP3    H266669   4.885   0.665   5.527 -0.0543  0.6448  0.3204
15060TIP3   OH266670   0.574   3.263   1.336 -0.0636  0.1784 -0.4801
15060TIP3    H166671   0.641   3.330   1.352 -0.5624  0.7445 -0.7314
15060TIP3    H266672   0.554   3.270   1.242  0.1950 -0.6218 -0.5986
15061TIP3   OH266673   0.150   1.528   5.466 -0.2059 -0.0970  0.0403
15061TIP3    H166674   0.096   1.503   5.541 -1.2791  0.7928 -0.4094
15061TIP3    H266675   0.218   1.584   5.504 -1.1212  0.8781  0.2887
15062TIP3   OH266676   6.068   4.470  12.313  0.6409  0.3016 -0.0572
15062TIP3    H166677   6.099   4.433  12.396  2.2597  0.1472 -0.7079
15062TIP3    H266678   6.142   4.459  12.253  0.0842  1.9282 -1.0690
15063TIP3   OH266679   1.905   3.995   1.916 -0.3249 -0.1992  0.1111
15063TIP3    H166680   1.967   3.942   1.866 -1.6516 -1.3730 -0.3213
15063TIP3    H266681   1.844   4.028   1.850 -0.7228  0.1638  0.6548
15064TIP3   OH266682   5.445   6.126   6.198 -0.1901 -0.5135  0.2634
15064TIP3    H166683   5.501   6.176   6.257 -0.0172  0.5722 -0.7893
15064TIP3    H266684   5.505   6.076   6.143 -0.3606 -1.8164  1.2345
15065TIP3   OH266685   3.518   5.556  11.684  0.0461 -0.1956  0.6256
15065TIP3    H166686   3.466   5.492  11.636  0.0504  0.7895 -0.7132
15065TIP3    H266687   3.604   5.553  11.643  0.5631 -0.5589  1.6941
15066TIP3   OH266688   4.073   4.308  14.213 -0.2859 -0.0069 -0.2718
15066TIP3    H166689   4.137   4.236  14.216  4.3354  3.8578  0.7107
15066TIP3    H266690   4.079   4.341  14.124 -0.9888  0.3453 -0.1874
15067TIP3   OH266691   6.114   2.259   6.324  0.1000 -0.3502  0.3633
15067TIP3    H166692   6.156   2.243   6.408 -0.3576  0.1219  0.6867
15067TIP3    H266693   6.043   2.321   6.344  0.3298  0.1842 -0.4573
15068TIP3   OH266694   4.926   0.686  15.549 -0.6027 -0.0006 -0.6019
15068TIP3    H166695   4.974   0.603  15.542 -0.3932  0.0188  0.5878
15068TIP3    H266696   4.848   0.665  15.601 -0.2759  0.6699  0.1673
15069TIP3   OH266697   5.722   1.174  12.891  0.3889 -0.2798  0.1411
15069TIP3    H166698   5.634   1.141  12.910 -0.1319  0.3014 -1.2164
15069TIP3    H266699   5.727   1.177  12.795  0.9262  2.2212  0.2201
15070TIP3   OH266700   0.919   1.539   0.193 -0.2941  0.0476 -0.1805
15070TIP3    H166701   0.833   1.554   0.231 -0.7329  0.5288 -1.3554
15070TIP3    H266702   0.953   1.626   0.175  0.2196 -0.1594 -0.2201
15071TIP3   OH266703   2.608   0.868   4.255 -0.4728 -0.2028 -0.6853
15071TIP3    H166704   2.527   0.877   4.305  0.6707 -1.7191  1.5176
15071TIP3    H266705   2.664   0.939   4.286 -0.8579  0.7304 -2.0700
15072TIP3   OH266706   6.796   4.420   4.739 -0.5958 -0.1286 -0.2736
15072TIP3    H166707   6.760   4.335   4.713 -1.2305  0.5101 -1.5527
15072TIP3    H266708   6.792   4.419   4.834  0.4690 -1.9752 -0.2245
15073TIP3   OH266709   6.763   3.643  15.267  0.3233 -0.0160 -0.4225
15073TIP3    H166710   6.788   3.711  15.205 -0.8499 -0.7087 -1.6910
15073TIP3    H266711   6.675   3.617  15.240 -1.8880  2.4128  3.9558
15074TIP3   OH266712   1.825   4.030  14.452  0.6989  0.0544 -0.0067
15074TIP3    H166713   1.811   4.050  14.360 -0.7853 -1.9468 -0.2539
15074TIP3    H266714   1.741   4.047  14.494 -0.1631 -3.8821  0.0427
15075TIP3   OH266715   5.944   3.358  12.443 -0.3181 -0.4007 -0.9097
15075TIP3    H166716   5.971   3.445  12.415 -0.0654 -0.9446 -2.4466
15075TIP3    H266717   5.950   3.359  12.538  0.6410  0.9423 -0.9784
15076TIP3   OH266718   6.022   4.057  15.340 -0.0118  0.1521  0.9309
15076TIP3    H166719   5.990   4.122  15.403 -0.0628  0.2007  0.8547
15076TIP3    H266720   5.976   4.077  15.259 -0.3375 -0.2394  1.0194
15077TIP3   OH266721   5.526   6.408  10.896 -0.3350 -0.3070  0.5955
15077TIP3    H166722   5.530   6.499  10.867  2.0005 -0.3284  0.7810
15077TIP3    H266723   5.457   6.408  10.964 -0.7365  1.1916  0.2032
15078TIP3   OH266724   2.931   0.033  13.567  0.1658  0.0826  0.4014
15078TIP3    H166725   3.018   0.065  13.543  0.3521  1.0933  2.3378
15078TIP3    H266726   2.945  -0.058  13.592  0.4401 -0.1414 -0.5522
15079TIP3   OH266727   2.400   5.155  15.068 -0.0547  0.2970 -0.5658
15079TIP3    H166728   2.449   5.073  15.062  0.8907  0.6999  1.2763
15079TIP3    H266729   2.465   5.219  15.096 -1.3232  1.1526  0.4738
15080TIP3   OH266730   3.627   3.090  17.165 -0.6720 -0.0729  0.6129
15080TIP3    H166731   3.579   3.012  17.192 -0.6245 -0.0445  0.7764
15080TIP3    H266732   3.684   3.111  17.239 -1.3252  0.6368  0.9244
15081TIP3   OH266733   0.277   3.742   3.214  0.3170  0.3890 -0.3930
15081TIP3    H166734   0.266   3.708   3.303  1.8413 -0.2583 -0.4436
15081TIP3    H266735   0.351   3.802   3.221 -0.4705  1.4424 -0.9380
15082TIP3   OH266736   2.725   0.419  13.624  0.4105  0.3026  0.7427
15082TIP3    H166737   2.644   0.466  13.605  0.4424  0.3324  0.6805
15082TIP3    H266738   2.722   0.341  13.569  0.9916  0.9169 -0.1815
15083TIP3   OH266739   4.751   3.409   2.817  0.2612 -0.1345 -0.1230
15083TIP3    H166740   4.737   3.407   2.912 -0.3234 -1.3476 -0.2347
15083TIP3    H266741   4.762   3.502   2.797  0.7181  0.1090  1.1776
15084TIP3   OH266742   2.479   2.967   4.687  0.3257 -0.7147 -0.2095
15084TIP3    H166743   2.480   3.023   4.765 -0.0960  0.2511 -0.8818
15084TIP3    H266744   2.571   2.964   4.659  0.0135  2.0016 -1.7862
15085TIP3   OH266745   4.287   5.152   1.323  0.4953  0.3290  0.0785
15085TIP3    H166746   4.362   5.211   1.328  0.8420 -0.1574  0.7727
15085TIP3    H266747   4.215   5.206   1.290  1.0289  0.9158 -0.1284
15086TIP3   OH266748   0.068   2.845   3.056 -0.2261 -0.4128 -0.1709
15086TIP3    H166749   0.035   2.780   2.994 -0.1415  0.3378 -1.0158
15086TIP3    H266750   0.036   2.815   3.141 -2.3140 -0.2273 -0.8567
15087TIP3   OH266751   3.514   0.508  13.569  0.0776  0.0840 -0.2193
15087TIP3    H166752   3.525   0.431  13.513  0.4038  0.9397 -1.3496
15087TIP3    H266753   3.424   0.503  13.599 -0.2130 -0.2087 -1.1031
15088TIP3   OH266754   2.905   4.000   2.722  0.0747 -0.0802  0.2898
15088TIP3    H166755   2.843   3.942   2.677 -0.2935 -0.0017  0.6915
15088TIP3    H266756   2.972   3.941   2.756 -0.6786 -0.3606  1.3153
15089TIP3   OH266757   2.324   3.479   2.587 -0.1518 -0.0975  0.5717
15089TIP3    H166758   2.304   3.572   2.575 -0.1707 -0.0410  1.0126
15089TIP3    H266759   2.314   3.465   2.681 -2.9794 -1.2153  0.1442
15090TIP3   OH266760   3.946   4.943  17.135 -0.1223 -0.5088 -0.0423
15090TIP3    H166761   3.883   5.015  17.138  0.6861  0.2073 -0.0972
15090TIP3    H266762   3.913   4.880  17.199 -2.2683 -1.2971 -1.8571
15091TIP3   OH266763   4.376   3.994  15.059  0.0198  0.3416  0.5527
15091TIP3    H166764   4.359   4.026  14.971 -0.5926  0.6256  0.7771
15091TIP3    H266765   4.312   4.038  15.115 -0.0554 -0.3582  1.0365
15092TIP3   OH266766   0.264   3.809  10.078 -0.2830  0.3129  0.4944
15092TIP3    H166767   0.179   3.800  10.120  0.0725  0.0914  1.1815
15092TIP3    H266768   0.283   3.903  10.082  0.3415  0.1372  2.0377
15093TIP3   OH266769   5.797   5.830   3.980  0.4534 -0.0113 -0.4045
15093TIP3    H166770   5.747   5.752   3.958  1.3743 -0.4872 -0.8668
15093TIP3    H266771   5.801   5.880   3.899 -0.7875  0.9041  0.0837
15094TIP3   OH266772   3.342   2.914   5.655 -0.1270 -0.0414 -0.2188
15094TIP3    H166773   3.384   2.933   5.739 -0.7210 -1.3595  0.3969
15094TIP3    H266774   3.413   2.920   5.591  0.6743 -0.6170  0.5948
15095TIP3   OH266775   4.070   5.126   1.649  0.1017 -0.5135 -0.2534
15095TIP3    H166776   4.070   5.220   1.667  1.3432 -0.5638  0.0543
15095TIP3    H266777   4.006   5.090   1.710 -0.3945  0.1396 -0.3855
15096TIP3   OH266778   1.036   3.458  13.059  0.9433  0.1174  0.5109
15096TIP3    H166779   1.116   3.464  13.009  0.4365  0.0580 -0.3122
15096TIP3    H266780   0.985   3.390  13.016  0.4906  0.0917  1.0772
15097TIP3   OH266781   4.658   0.349  15.821  0.0863  0.1004 -1.2855
15097TIP3    H166782   4.648   0.438  15.856 -1.0805 -0.4646 -0.1010
15097TIP3    H266783   4.657   0.293  15.899  1.9301 -0.8712 -1.9488
15098TIP3   OH266784   3.212   0.779  16.682 -0.7327  0.2488  0.4661
15098TIP3    H166785   3.211   0.825  16.766  1.4003  0.9397  0.1362
15098TIP3    H266786   3.267   0.834  16.626 -0.0604 -1.5357 -0.6365
15099TIP3   OH266787   1.046   4.594   3.843  0.3580 -0.2701  0.6041
15099TIP3    H166788   0.994   4.655   3.790 -2.2233 -0.2356  3.0272
15099TIP3    H266789   0.999   4.511   3.837  1.0564 -0.7267  1.3384
15100TIP3   OH266790   4.611   0.822  12.126  0.2824  0.6984 -0.1175
15100TIP3    H166791   4.690   0.864  12.160  0.2156  0.9994 -0.3324
15100TIP3    H266792   4.603   0.741  12.177  1.0418  0.3881 -0.4655
15101TIP3   OH266793   6.439   3.975  14.599 -0.2503  0.0883  0.3495
15101TIP3    H166794   6.405   4.060  14.571  0.1461  0.4816  1.0482
15101TIP3    H266795   6.416   3.969  14.691  1.2800  0.2318  0.7656
15102TIP3   OH266796   3.916   0.713   3.590  0.1923 -0.1086 -0.3455
15102TIP3    H166797   3.954   0.626   3.597  1.2623  0.3907  0.1341
15102TIP3    H266798   3.905   0.727   3.496  0.1035 -0.7158 -0.4283
15103TIP3   OH266799   4.895   4.921  15.301  0.3912 -0.1441 -0.5968
15103TIP3    H166800   4.973   4.872  15.276  0.3648 -0.9291  0.8039
15103TIP3    H266801   4.902   5.003  15.253  2.3724  0.0365 -0.0657
15104TIP3   OH266802   4.483   3.499   2.200 -1.1161 -0.0559  0.0202
15104TIP3    H166803   4.550   3.510   2.268  1.4166  1.4337 -2.5745
15104TIP3    H266804   4.513   3.424   2.149 -1.7226  0.2649 -0.8118
15105TIP3   OH266805   1.168   2.861   0.044  0.8446 -0.4253  0.1432
15105TIP3    H166806   1.173   2.947   0.085 -0.7571 -0.6846  0.8954
15105TIP3    H266807   1.242   2.860  -0.017  0.6636  1.6230 -0.1513
15106TIP3   OH266808   0.876   4.241  14.797 -0.0171 -0.4482  0.3456
15106TIP3    H166809   0.791   4.231  14.754  0.0298 -1.2682  0.4275
15106TIP3    H266810   0.922   4.307  14.746 -0.9027  0.3863  0.6035
15107TIP3   OH266811   1.323   3.030   3.735 -0.0838 -0.1770 -0.1083
15107TIP3    H166812   1.347   2.986   3.654 -1.7258 -1.1676 -0.0605
15107TIP3    H266813   1.376   2.987   3.802  1.0821  0.4692 -0.5975
15108TIP3   OH266814   4.913   4.170  12.669  0.5875 -0.4552 -0.2974
15108TIP3    H166815   5.001   4.206  12.678  0.0660  0.5198  1.1788
15108TIP3    H266816   4.879   4.209  12.589  0.5666  1.2606  0.5117
15109TIP3   OH266817   1.177   6.089  14.442 -0.1245  0.1812  0.2485
15109TIP3    H166818   1.140   6.087  14.354 -1.7447 -0.2691  0.9269
15109TIP3    H266819   1.238   6.163  14.440 -1.0072  0.9053 -0.9132
15110TIP3   OH266820   4.156   4.505   3.159 -0.1622  0.3690 -0.2493
15110TIP3    H166821   4.231   4.550   3.120 -1.1011  2.6564  0.4888
15110TIP3    H266822   4.166   4.518   3.253  0.8104 -3.0739  0.2080
15111TIP3   OH266823   3.527   4.360  16.503  0.1247  0.4079 -0.0705
15111TIP3    H166824   3.568   4.374  16.587 -1.7379  2.4183  0.5526
15111TIP3    H266825   3.590   4.392  16.439  1.1667 -0.2904  0.6036
15112TIP3   OH266826   6.533   5.792   5.678 -0.0276  0.2217 -0.4810
15112TIP3    H166827   6.593   5.867   5.682  1.6274 -1.1022  0.2761
15112TIP3    H266828   6.505   5.789   5.587  1.6671  0.4206 -1.0374
15113TIP3   OH266829   0.663   2.309  10.865  0.5967  0.4971 -0.1013
15113TIP3    H166830   0.644   2.218  10.840  0.7792  0.8547 -1.5477
15113TIP3    H266831   0.633   2.361  10.791  2.7701  1.4516 -0.3423
15114TIP3   OH266832   6.513   5.948  14.027 -0.4616 -0.6943 -0.0250
15114TIP3    H166833   6.522   6.022  13.967 -1.7197  0.3296  1.0192
15114TIP3    H266834   6.604   5.924  14.048 -0.0360  0.1912 -0.7867
15115TIP3   OH266835   5.761   0.600  11.644  0.4219  0.5702  0.6797
15115TIP3    H166836   5.854   0.620  11.633  0.9978 -2.2658  0.0928
15115TIP3    H266837   5.749   0.594  11.739  0.3947  2.7619  0.8431
15116TIP3   OH266838   5.236   6.647  17.131  0.9076  0.6518 -0.1861
15116TIP3    H166839   5.267   6.629  17.043 -0.7836 -1.3536 -0.3936
15116TIP3    H266840   5.141   6.656  17.123  0.6579 -0.1214  1.4887
15117TIP3   OH266841   4.193   3.148   1.178  0.0398 -0.4470  0.0657
15117TIP3    H166842   4.172   3.109   1.093 -0.2946  2.0002 -1.0102
15117TIP3    H266843   4.264   3.209   1.160  2.4901 -2.5223  2.2194
15118TIP3   OH266844   5.833   6.734   2.396 -0.0128 -0.6794  0.1320
15118TIP3    H166845   5.901   6.787   2.437  1.0933 -2.6683  0.9595
15118TIP3    H266846   5.782   6.796   2.344  1.4671  1.1073  0.7548
15119TIP3   OH266847   5.903   5.607   1.171  0.8589 -0.2785 -0.7692
15119TIP3    H166848   5.986   5.565   1.194  1.2734  0.8458 -0.1593
15119TIP3    H266849   5.899   5.601   1.075  1.9021  0.1382 -0.8467
15120TIP3   OH266850   2.533   2.486   0.827 -0.9497  0.7894  0.0606
15120TIP3    H166851   2.550   2.402   0.870 -0.6746  1.2096  0.7904
15120TIP3    H266852   2.604   2.496   0.764  0.1379  1.4021  1.3787
15121TIP3   OH266853   0.029   6.446  16.107 -0.6213 -0.2392 -0.5683
15121TIP3    H166854  -0.057   6.450  16.149 -0.6601 -1.0263 -0.5613
15121TIP3    H266855   0.011   6.466  16.015 -0.6682  0.5776 -0.3842
15122TIP3   OH266856   1.402   0.173  11.641 -0.0692 -0.1607 -0.2485
15122TIP3    H166857   1.419   0.082  11.618  0.7585 -0.2534  0.6794
15122TIP3    H266858   1.379   0.216  11.558 -1.2863 -1.3823 -0.5645
15123TIP3   OH266859   1.069   4.746  12.472 -0.4074  0.0599 -0.3377
15123TIP3    H166860   1.091   4.786  12.556  0.6818  2.5115 -1.7308
15123TIP3    H266861   1.153   4.736  12.428 -1.2501  1.6298 -2.3513
15124TIP3   OH266862   1.048   1.815   6.169 -0.0916  0.0357 -0.1807
15124TIP3    H166863   1.113   1.883   6.186 -0.4890 -0.0186  1.6342
15124TIP3    H266864   1.082   1.738   6.214 -2.2477  0.4762  2.3418
15125TIP3   OH266865   2.340   2.016  15.790 -0.3801  0.0861 -0.1762
15125TIP3    H166866   2.309   2.103  15.815 -0.7978 -0.3261  0.7619
15125TIP3    H266867   2.303   2.001  15.703 -1.9679  0.0451  0.4816
15126TIP3   OH266868   0.315   4.953   1.033  0.5120  0.3783  0.4826
15126TIP3    H166869   0.298   4.877   0.978  1.4502  0.7654 -0.3562
15126TIP3    H266870   0.255   5.020   0.999 -0.6563 -0.1155  1.5305
15127TIP3   OH266871   4.211   0.762   5.163 -0.0203  0.6765 -0.0831
15127TIP3    H166872   4.254   0.842   5.191 -2.2728  2.0247 -0.3717
15127TIP3    H266873   4.127   0.762   5.210 -0.3355 -1.1619 -0.6080
15128TIP3   OH266874   6.232   5.923   3.610  0.0700  0.0282 -0.1380
15128TIP3    H166875   6.327   5.918   3.623  0.1630  0.9954 -0.4203
15128TIP3    H266876   6.221   5.992   3.545 -0.8280 -0.0821 -0.0995
15129TIP3   OH266877   6.188   6.734   3.213 -0.3217  0.0834 -0.1183
15129TIP3    H166878   6.180   6.726   3.308 -0.8054  0.4172 -0.1312
15129TIP3    H266879   6.134   6.809   3.190  0.2742  0.3752 -0.5899
15130TIP3   OH266880   0.991   5.749   1.928 -0.3181 -0.2279  0.2378
15130TIP3    H166881   0.938   5.825   1.952  1.3596  1.1578 -0.2614
15130TIP3    H266882   1.038   5.727   2.009 -1.7230 -1.5434  0.7201
15131TIP3   OH266883   3.092   3.428  17.088  0.3247 -0.0663  0.1426
15131TIP3    H166884   3.184   3.453  17.077  0.6425 -0.9335  0.7491
15131TIP3    H266885   3.094   3.360  17.156 -0.6701 -0.6454 -0.3944
15132TIP3   OH266886   5.921   4.802  17.121 -0.2550  0.4430 -0.3657
15132TIP3    H166887   5.895   4.840  17.205 -0.2278  0.7118 -0.4788
15132TIP3    H266888   5.873   4.719  17.117  2.2625 -1.1697  1.3937
15133TIP3   OH266889   3.290   1.603  14.501 -0.3288 -0.1493  0.5815
15133TIP3    H166890   3.326   1.678  14.550  1.7314 -1.4739  1.1866
15133TIP3    H266891   3.230   1.561  14.563  1.2027 -1.0099  1.5173
15134TIP3   OH266892   1.887   3.871   5.380  0.2187  0.4775  0.3268
15134TIP3    H166893   1.868   3.906   5.467  1.5064  1.1823  0.3381
15134TIP3    H266894   1.972   3.909   5.357  0.9742 -1.5267 -0.2704
15135TIP3   OH266895   3.106   4.645   3.302  0.0969  0.2995 -0.4652
15135TIP3    H166896   3.098   4.551   3.284 -0.8660  0.5320 -1.2913
15135TIP3    H266897   3.184   4.652   3.356 -1.5256 -1.3418  2.2442
15136TIP3   OH266898   0.223   4.158   5.409  0.6651 -0.6243 -0.4567
15136TIP3    H166899   0.156   4.137   5.344  1.3519 -2.2154 -0.6628
15136TIP3    H266900   0.173   4.179   5.488 -0.1067 -2.2193 -0.4891
15137TIP3   OH266901   3.541   6.122   1.131  0.5891  0.1083  0.4714
15137TIP3    H166902   3.460   6.171   1.149  0.9962  1.1263 -0.4172
15137TIP3    H266903   3.525   6.076   1.049  1.3057  1.2289 -0.3146
15138TIP3   OH266904   5.640   5.176   1.883  0.1678  0.3996 -0.1367
15138TIP3    H166905   5.681   5.100   1.924  0.1572  0.0509 -0.7770
15138TIP3    H266906   5.554   5.145   1.854 -0.2330  0.9154  0.4770
15139TIP3   OH266907   1.186   4.308  10.864  0.4334  0.0868  0.0092
15139TIP3    H166908   1.239   4.272  10.792  2.1219 -1.5151  1.9911
15139TIP3    H266909   1.238   4.381  10.897  0.1149  0.2120  0.2339
15140TIP3   OH266910   6.474   6.017   6.067  0.3643 -0.4687  0.0732
15140TIP3    H166911   6.553   5.964   6.062  1.0541  0.6232 -0.8161
15140TIP3    H266912   6.504   6.103   6.098 -0.5800 -0.2678  0.4598
15141TIP3   OH266913   5.008   2.511  12.775  0.0427  0.1777  0.0970
15141TIP3    H166914   4.964   2.448  12.719  0.8661  1.6196 -2.2679
15141TIP3    H266915   4.949   2.523  12.850 -2.2868  0.0565 -1.6827
15142TIP3   OH266916   6.390   1.258   3.456  0.0829 -0.0037 -0.2109
15142TIP3    H166917   6.462   1.195   3.446  0.2890  0.1945  0.0266
15142TIP3    H266918   6.405   1.322   3.386  0.1953  0.0960 -0.0942
15143TIP3   OH266919   0.540   6.013   2.375  0.1245 -0.1469 -0.1531
15143TIP3    H166920   0.635   6.010   2.367  0.2202  1.7593  0.1615
15143TIP3    H266921   0.522   5.982   2.464  0.5370  0.7110  0.2313
15144TIP3   OH266922   0.564   1.232   3.966 -0.5733  0.6600 -0.1239
15144TIP3    H166923   0.574   1.308   4.023  0.8060 -0.0134  0.5498
15144TIP3    H266924   0.653   1.201   3.951 -0.9155  0.7528 -2.5551
15145TIP3   OH266925   3.583   2.917  11.806 -0.0478  0.5695 -0.1521
15145TIP3    H166926   3.677   2.918  11.788  0.1934  0.4483  1.0564
15145TIP3    H266927   3.562   2.824  11.817 -0.4639  0.5371 -1.1859
15146TIP3   OH266928   2.814   2.239  15.237  0.1174  0.3887 -0.3199
15146TIP3    H166929   2.726   2.266  15.265  0.3653  2.0156 -1.0568
15146TIP3    H266930   2.870   2.258  15.312  0.1774  1.2642 -0.5892
15147TIP3   OH266931   2.497   3.267  15.027 -0.0938  0.0022 -0.1716
15147TIP3    H166932   2.432   3.245  14.961 -0.7103 -0.0682  0.4626
15147TIP3    H266933   2.513   3.185  15.073  1.7584 -0.4036 -1.4711
15148TIP3   OH266934   4.004   5.302   5.649 -0.4114  0.1856  0.6779
15148TIP3    H166935   4.097   5.309   5.627 -0.5667 -1.1369 -0.5203
15148TIP3    H266936   3.998   5.224   5.705 -0.8033  0.2078  0.6709
15149TIP3   OH266937   6.455   0.136   2.150 -0.3488 -0.0396  0.1883
15149TIP3    H166938   6.393   0.204   2.177  1.4604  0.6708  2.7246
15149TIP3    H266939   6.538   0.182   2.139  0.2965 -1.4006 -0.7478
15150TIP3   OH266940   6.409   6.024  15.260 -0.1036 -0.2413  0.4256
15150TIP3    H166941   6.322   6.044  15.226 -0.1442 -1.2276 -0.0782
15150TIP3    H266942   6.401   5.936  15.296  0.1565  0.4689  2.2723
15151TIP3   OH266943   1.324   6.252  10.726 -0.1614 -0.2981 -0.0179
15151TIP3    H166944   1.258   6.292  10.669 -1.8937  0.3565  2.3530
15151TIP3    H266945   1.282   6.248  10.812  3.2419  1.0140  1.8069
15152TIP3   OH266946   0.470   4.911   1.647 -0.0601  0.6248 -0.5291
15152TIP3    H166947   0.452   4.839   1.587 -1.8357 -0.1990  0.9689
15152TIP3    H266948   0.408   4.900   1.718  0.0239  3.3068  0.0293
15153TIP3   OH266949   0.506   2.666  17.239 -0.6758 -0.0319  0.5262
15153TIP3    H166950   0.487   2.589  17.293  0.8528 -0.2667  0.7550
15153TIP3    H266951   0.510   2.632  17.150  0.9774 -0.4168  0.7291
15154TIP3   OH266952   4.695   2.234   0.843 -0.6669  0.5151  0.0315
15154TIP3    H166953   4.680   2.298   0.912  0.1720  1.5796 -0.7495
15154TIP3    H266954   4.668   2.279   0.763  0.3369  0.0633 -0.5724
15155TIP3   OH266955   5.703   3.274   2.966  0.6623  0.2586 -0.0971
15155TIP3    H166956   5.658   3.356   2.944 -1.1274 -0.6759 -0.0413
15155TIP3    H266957   5.794   3.288   2.939  0.1585  1.8836 -1.0237
15156TIP3   OH266958   5.654   1.266   1.255  0.2766  0.4259 -0.2614
15156TIP3    H166959   5.627   1.323   1.328  1.6175  0.1233  0.4840
15156TIP3    H266960   5.660   1.179   1.294 -0.4574 -0.0042 -1.0923
15157TIP3   OH266961   6.142   0.810  12.672  0.4319 -0.6111 -0.4110
15157TIP3    H166962   6.221   0.832  12.722  0.4481 -3.4683  0.9755
15157TIP3    H266963   6.142   0.871  12.598  3.1527  0.3901  0.3426
15158TIP3   OH266964   5.211   0.947   5.652 -0.1447 -0.2607  0.6058
15158TIP3    H166965   5.247   0.880   5.594 -1.0435 -0.9777  0.8784
15158TIP3    H266966   5.282   0.965   5.715  1.0918  1.0178 -1.0949
15159TIP3   OH266967   6.641   1.527   5.477  0.3150 -0.2463  0.1974
15159TIP3    H166968   6.622   1.601   5.534 -1.0264  0.0500 -0.6181
15159TIP3    H266969   6.623   1.450   5.532  0.1421  0.0335  0.5404
15160TIP3   OH266970   5.999   4.573  16.896  0.1116  0.1061  0.1325
15160TIP3    H166971   5.957   4.656  16.874  0.0666  0.2296  0.6698
15160TIP3    H266972   5.933   4.506  16.876 -0.3848  0.3072  1.0934
15161TIP3   OH266973   3.524   1.157  13.978  0.5228 -0.2315  0.3152
15161TIP3    H166974   3.608   1.125  14.014  1.3950  1.0120 -0.5840
15161TIP3    H266975   3.509   1.240  14.023  0.7784  0.5202 -0.9732
15162TIP3   OH266976   4.045   5.674  15.660 -0.5538 -0.2678  0.1199
15162TIP3    H166977   4.082   5.761  15.673 -0.4631 -0.5989  2.1610
15162TIP3    H266978   4.013   5.675  15.570  0.8777  1.3426 -0.3899
15163TIP3   OH266979   0.347   5.635   1.319  0.0751 -0.7373  0.0261
15163TIP3    H166980   0.258   5.601   1.305  0.6153 -1.4128 -2.0702
15163TIP3    H266981   0.338   5.730   1.312 -0.4193 -0.8297 -0.7287
15164TIP3   OH266982   6.013   6.664  16.237  0.2210 -0.2733 -0.0879
15164TIP3    H166983   6.029   6.732  16.302 -0.3651  0.8917 -1.1403
15164TIP3    H266984   6.060   6.587  16.270  3.5757  1.5423 -0.4851
15165TIP3   OH266985   4.588   0.768   0.770 -0.3134 -0.2068 -0.1038
15165TIP3    H166986   4.649   0.785   0.698  0.1821  1.8284  0.7484
15165TIP3    H266987   4.554   0.855   0.793 -3.0497 -1.2300 -0.1283
15166TIP3   OH266988   6.479   0.834  12.708  0.3983 -0.0316  0.4514
15166TIP3    H166989   6.567   0.870  12.700  0.3450 -0.2173 -1.2381
15166TIP3    H266990   6.491   0.739  12.711  0.5686  0.0297  5.3287
15167TIP3   OH266991   0.490   6.784  12.217 -0.0804  0.1733 -0.2299
15167TIP3    H166992   0.511   6.771  12.309  0.0034 -0.4109 -0.3351
15167TIP3    H266993   0.574   6.788  12.173 -0.1260  0.2640 -0.3090
15168TIP3   OH266994   4.716   0.781   1.520 -0.4931  0.2303 -0.1802
15168TIP3    H166995   4.687   0.744   1.603 -0.4859 -0.0063 -0.2828
15168TIP3    H266996   4.690   0.873   1.524  1.5555  0.7997  1.0687
15169TIP3   OH266997   1.615   4.373   5.845 -0.2061  0.9608  0.0144
15169TIP3    H166998   1.551   4.341   5.909  0.3838  1.1220  0.6912
15169TIP3    H266999   1.609   4.469   5.851  0.5351  0.9855  0.5405
15170TIP3   OH267000   1.739   1.285  11.659  0.1102  0.3526  0.4928
15170TIP3    H167001   1.832   1.284  11.682  0.3470 -0.9494 -0.4481
15170TIP3    H267002   1.734   1.346  11.585  0.7169 -1.7346 -1.3301
15171TIP3   OH267003   0.895   1.645   5.958  0.5850 -0.0853  0.3176
15171TIP3    H167004   0.984   1.610   5.963  0.1201 -1.2893  0.1617
15171TIP3    H267005   0.904   1.736   5.987  2.1881  0.3827 -1.5382
15172TIP3   OH267006   1.252   3.073  14.150 -0.3574  0.5857  0.2724
15172TIP3    H167007   1.285   3.141  14.091  1.0537  0.4428  0.8821
15172TIP3    H267008   1.177   3.113  14.194 -1.7627  0.5217 -1.9929
15173TIP3   OH267009   3.399   3.232  11.625  0.4189 -0.2532 -0.1176
15173TIP3    H167010   3.490   3.222  11.598  0.6246 -1.5930  1.0608
15173TIP3    H267011   3.365   3.143  11.633 -0.6032  0.1980  0.7756
15174TIP3   OH267012   5.301   4.601  16.122  0.2584  0.1813 -0.8949
15174TIP3    H167013   5.385   4.573  16.159  0.4059  0.3912 -1.0734
15174TIP3    H267014   5.240   4.596  16.196  0.5563  0.6148 -0.6171
15175TIP3   OH267015   1.379   6.630  12.088 -0.5255 -0.4814  0.8041
15175TIP3    H167016   1.308   6.628  12.024  0.7167 -1.1282 -0.5664
15175TIP3    H267017   1.410   6.539  12.092  0.5472 -0.1056  1.0511
15176TIP3   OH267018   5.900   4.710   3.905 -0.4734  0.3271 -0.3492
15176TIP3    H167019   5.893   4.626   3.859  1.5794 -0.7377  1.2179
15176TIP3    H267020   5.815   4.721   3.948 -0.0727 -1.9826  1.1448
15177TIP3   OH267021   3.979   3.723   1.504  0.2711  0.0412  0.3259
15177TIP3    H167022   3.982   3.694   1.595 -1.8970 -0.3588  0.2884
15177TIP3    H267023   4.010   3.813   1.507 -0.9100  0.4202  1.6289
15178TIP3   OH267024   2.374   1.349   6.149  0.0101  0.4026  0.0136
15178TIP3    H167025   2.444   1.377   6.209 -1.3472  1.7347  1.0110
15178TIP3    H267026   2.311   1.421   6.151 -2.0709 -1.3865  0.1949
15179TIP3   OH267027   3.797   3.505  15.285  0.3688 -0.0546 -0.7108
15179TIP3    H167028   3.779   3.558  15.207  0.2061 -0.4403 -0.9363
15179TIP3    H267029   3.739   3.430  15.277 -2.5520  1.7997  1.7467
15180TIP3   OH267030   0.565   5.103  12.393 -0.2757 -0.2001  0.2522
15180TIP3    H167031   0.656   5.124  12.415 -0.0143 -1.3253  0.2560
15180TIP3    H267032   0.566   5.010  12.369 -1.1148  0.2084 -1.4557
15181TIP3   OH267033   5.866   3.520   5.462 -0.8566  0.1484 -0.0509
15181TIP3    H167034   5.945   3.467   5.451 -0.1735  0.4566  3.1184
15181TIP3    H267035   5.889   3.605   5.425  0.4483  0.3817  1.2941
15182TIP3   OH267036   0.379   0.153  14.387 -0.1394  0.2727  0.0727
15182TIP3    H167037   0.420   0.130  14.303 -3.4957  1.4329 -1.9804
15182TIP3    H267038   0.416   0.239  14.408 -0.1762  0.5100 -0.8208
15183TIP3   OH267039   1.992   2.899  13.930  0.0483 -0.0738  0.0972
15183TIP3    H167040   1.926   2.921  13.997 -0.7591  0.4763 -0.8720
15183TIP3    H267041   2.065   2.957  13.949 -0.8952  1.3804 -0.5996
15184TIP3   OH267042   4.032   6.201  12.519 -0.0196  0.0781 -0.6761
15184TIP3    H167043   4.022   6.156  12.435 -1.2453  1.3407 -1.2277
15184TIP3    H267044   3.956   6.259  12.525 -0.4347 -0.6551  1.7376
15185TIP3   OH267045   1.607   4.403  15.692 -0.4144  0.1884 -0.0904
15185TIP3    H167046   1.538   4.409  15.758 -0.0677  0.2815  0.2681
15185TIP3    H267047   1.635   4.311  15.695 -0.5668  0.1350 -0.2797
15186TIP3   OH267048   3.662   2.345   5.435 -0.5631  0.4909 -0.1312
15186TIP3    H167049   3.711   2.383   5.362 -2.2808  1.2994 -0.8902
15186TIP3    H267050   3.728   2.329   5.503  0.4768  3.3588 -0.4091
15187TIP3   OH267051   0.809   3.132   1.677 -0.0896 -0.2627 -0.5095
15187TIP3    H167052   0.717   3.110   1.669  0.2385 -0.8996 -3.0178
15187TIP3    H267053   0.847   3.063   1.731 -0.9938 -0.2073  0.1995
15188TIP3   OH267054   6.646   0.705  13.747  0.0740 -0.5328 -0.3423
15188TIP3    H167055   6.621   0.626  13.795  1.4097 -0.8466 -0.1388
15188TIP3    H267056   6.742   0.706  13.751  0.1521  0.0525 -2.0234
15189TIP3   OH267057   4.329   1.344  16.822  0.4003  0.7619  0.0632
15189TIP3    H167058   4.373   1.295  16.753 -0.4182  0.1034 -0.0038
15189TIP3    H267059   4.235   1.334  16.803  0.0756 -1.0290  2.3152
15190TIP3   OH267060   0.862   4.489  16.387  0.0717  0.2681 -0.0190
15190TIP3    H167061   0.939   4.433  16.374 -1.3168 -1.3203 -1.8455
15190TIP3    H267062   0.838   4.476  16.479  2.2356  1.1264  0.6831
15191TIP3   OH267063   1.520   0.152   4.672 -0.1352 -0.1560 -0.1161
15191TIP3    H167064   1.526   0.228   4.614 -1.4513  0.2520  0.2578
15191TIP3    H267065   1.511   0.189   4.760 -0.9722 -0.7309  0.0461
15192TIP3   OH267066   2.178   1.572   6.116  0.8503 -0.0528  0.2591
15192TIP3    H167067   2.146   1.653   6.157  1.0243 -0.0001  0.2929
15192TIP3    H267068   2.193   1.596   6.025  0.3376 -0.2056  0.1338
15193TIP3   OH267069   3.483   1.112   3.281  0.4814 -0.0567 -0.3584
15193TIP3    H167070   3.566   1.159   3.269  1.1051 -0.9139  0.5499
15193TIP3    H267071   3.440   1.158   3.352  0.0119  0.5964 -1.0524
15194TIP3   OH267072   1.953   4.894   1.525 -0.1104  0.0111 -0.0412
15194TIP3    H167073   2.009   4.929   1.456  2.2211 -1.1506  1.1996
15194TIP3    H267074   1.994   4.922   1.606  0.4758 -3.4498  0.9437
15195TIP3   OH267075   1.784   4.044  10.874  0.2500 -0.7419 -0.0529
15195TIP3    H167076   1.696   4.079  10.859  0.5302 -0.0229 -0.0472
15195TIP3    H267077   1.842   4.102  10.823  0.8885 -0.2409  1.2154
15196TIP3   OH267078   5.810   3.965  15.597  0.5559  0.1010 -0.5580
15196TIP3    H167079   5.769   3.925  15.520  0.5609 -0.0072 -0.5034
15196TIP3    H267080   5.740   3.972  15.661  0.3365  1.0164 -0.8898
15197TIP3   OH267081   2.602   4.280   5.568 -0.6631  0.4016  0.3088
15197TIP3    H167082   2.686   4.256   5.608 -1.1417  2.5687  2.8007
15197TIP3    H267083   2.541   4.214   5.600 -0.1787 -0.3797 -0.3729
15198TIP3   OH267084   0.918   1.838   3.307  0.3354  0.0874 -0.0595
15198TIP3    H167085   0.975   1.767   3.336  2.0535  1.8960  1.0826
15198TIP3    H267086   0.914   1.897   3.382 -2.3563  0.4411 -0.4342
15199TIP3   OH267087   0.914   0.082   3.144  0.0263  0.2558 -0.1609
15199TIP3    H167088   0.953   0.032   3.216 -1.6727 -0.7861  0.0496
15199TIP3    H267089   0.953   0.169   3.152 -1.9285  0.8849  3.4987
15200TIP3   OH267090   4.120   4.509  11.565  0.1559 -0.1246  0.1327
15200TIP3    H167091   4.135   4.567  11.640 -1.5697  0.5219 -0.0024
15200TIP3    H267092   4.181   4.541  11.498  1.4002 -0.4282  1.0884
15201TIP3   OH267093   3.493   2.126  14.379  0.4086  0.2973 -0.3039
15201TIP3    H167094   3.523   2.168  14.459  0.6578 -1.1219  0.3685
15201TIP3    H267095   3.474   2.036  14.405  3.4673 -1.0793 -2.4959
15202TIP3   OH267096   4.318   6.373   4.515  0.2541 -0.0155  0.6170
15202TIP3    H167097   4.330   6.376   4.610 -0.3141 -2.0434  0.7670
15202TIP3    H267098   4.223   6.365   4.503  0.5896 -3.5849  0.0127
15203TIP3   OH267099   3.510   0.643  12.785 -0.0110 -0.4969  0.6724
15203TIP3    H167100   3.548   0.555  12.789  0.0463 -0.4439  1.2773
15203TIP3    H267101   3.481   0.661  12.874 -3.6170 -1.4959 -0.2204
15204TIP3   OH267102   1.085   0.278  16.200  0.4397  0.5117 -0.4367
15204TIP3    H167103   1.066   0.287  16.106 -0.2835 -1.1789 -0.4899
15204TIP3    H267104   1.007   0.313  16.243 -1.2966 -2.9477 -0.5871
15205TIP3   OH267105   5.627   0.489   4.409 -0.0947 -0.3588  0.2033
15205TIP3    H167106   5.639   0.397   4.388  1.3435  0.0574 -0.8742
15205TIP3    H267107   5.665   0.536   4.334  0.9769  1.1195  1.6583
15206TIP3   OH267108   1.443   2.028   5.788  0.0244 -0.7241  0.2620
15206TIP3    H167109   1.510   2.097   5.787 -1.6835  0.9999 -1.9517
15206TIP3    H267110   1.369   2.068   5.833 -0.2796 -1.8272  0.7302
15207TIP3   OH267111   6.286   1.545  12.623 -0.5667 -0.1750  0.4792
15207TIP3    H167112   6.299   1.491  12.700 -0.4833 -0.1199  0.5040
15207TIP3    H267113   6.355   1.611  12.628  0.4512 -1.1390 -0.4849
15208TIP3   OH267114   3.006   1.372   4.239 -0.1786  0.4631  0.0009
15208TIP3    H167115   2.933   1.402   4.184  0.4880  1.1899 -0.4902
15208TIP3    H267116   3.065   1.327   4.180  0.0413  0.3436  0.3094
15209TIP3   OH267117   5.169   2.859  12.970  0.1956 -0.2013 -0.5135
15209TIP3    H167118   5.212   2.790  13.020 -0.5869 -1.8594 -2.0710
15209TIP3    H267119   5.185   2.836  12.878 -2.2661  0.2199 -1.1087
15210TIP3   OH267120   4.554   2.644  14.039  0.4543 -0.8095 -0.3292
15210TIP3    H167121   4.526   2.597  13.960 -1.0750  0.5348 -0.6101
15210TIP3    H267122   4.550   2.579  14.108  0.9279 -1.7703 -1.1909
15211TIP3   OH267123   5.841   2.378   4.957 -0.0840  0.1891  0.0468
15211TIP3    H167124   5.847   2.425   4.874  0.2198 -0.0136 -0.0461
15211TIP3    H267125   5.894   2.430   5.017  0.3499 -0.1034 -0.0862
15212TIP3   OH267126   3.196   3.708   6.794  0.5244 -0.3231  0.4908
15212TIP3    H167127   3.209   3.786   6.848 -1.7690 -0.7284  1.6687
15212TIP3    H267128   3.280   3.696   6.749  1.7213  1.3339  2.2193
15213TIP3   OH267129   3.467   6.012   2.951 -0.3099  0.0692  0.2273
15213TIP3    H167130   3.519   5.932   2.959  0.0353 -0.0209 -2.4341
15213TIP3    H267131   3.515   6.078   3.001  0.7230 -0.7993  0.3884
15214TIP3   OH267132   2.709   5.832  15.412 -0.0479  0.2963 -0.0960
15214TIP3    H167133   2.626   5.859  15.371  0.2697 -0.3128 -1.1623
15214TIP3    H267134   2.770   5.823  15.338  0.4861 -1.0242  0.4914
15215TIP3   OH267135   4.697   4.480  13.174 -0.4510 -0.2693 -0.2214
15215TIP3    H167136   4.726   4.398  13.134 -1.7473 -0.8541  0.0171
15215TIP3    H267137   4.721   4.472  13.266  0.7487  0.2434 -0.4838
15216TIP3   OH267138   6.750   1.570   6.709 -0.1594  0.1845 -0.0569
15216TIP3    H167139   6.800   1.603   6.635 -1.0373  0.4028 -0.5554
15216TIP3    H267140   6.689   1.641   6.730  0.8623  0.6030  1.6117
15217TIP3   OH267141   0.034   5.557  16.478 -0.1793 -0.1981 -0.5893
15217TIP3    H167142   0.047   5.465  16.502 -0.9943  0.6703  3.6037
15217TIP3    H267143   0.123   5.592  16.470  0.1955 -1.8277 -4.6339
15218TIP3   OH267144   0.735   5.027  13.994  0.0595  0.3170 -0.2949
15218TIP3    H167145   0.688   4.944  14.007  1.0377 -0.5387 -1.9263
15218TIP3    H267146   0.701   5.061  13.911  0.3843  1.0433 -0.1376
15219TIP3   OH267147   4.648   1.504   4.198  0.0872 -0.2354 -0.6935
15219TIP3    H167148   4.620   1.525   4.287 -1.3878  0.6264 -1.3515
15219TIP3    H267149   4.642   1.408   4.193  1.0178 -0.3544  0.4021
15220TIP3   OH267150   2.538   1.659   2.715 -0.2886  0.3937  0.3621
15220TIP3    H167151   2.546   1.754   2.707  0.5394  0.3336  0.4082
15220TIP3    H267152   2.525   1.629   2.625 -0.3172  0.5268  0.3218
15221TIP3   OH267153   5.868   6.604  11.747 -0.2664 -0.5057 -0.3022
15221TIP3    H167154   5.812   6.562  11.682  2.7118 -1.9545 -2.0453
15221TIP3    H267155   5.908   6.678  11.701 -0.1999  0.0786  0.6810
15222TIP3   OH267156   1.733   3.627  13.880  0.1310  0.4463  1.2266
15222TIP3    H167157   1.726   3.682  13.958  1.9242  1.9164  0.3771
15222TIP3    H267158   1.810   3.573  13.896  1.5124  1.9262 -0.2057
15223TIP3   OH267159   3.760   5.075  15.853  0.0895  0.0029  0.4968
15223TIP3    H167160   3.753   4.989  15.810 -1.6122  0.7259 -0.7444
15223TIP3    H267161   3.718   5.063  15.938  0.3442 -0.5314  0.5495
15224TIP3   OH267162   5.253   2.902   2.950  0.5639  0.1337  0.2187
15224TIP3    H167163   5.298   2.986   2.961 -0.7885  0.8746  0.1761
15224TIP3    H267164   5.222   2.880   3.038 -0.7081  0.6116 -0.1025
15225TIP3   OH267165   2.679   6.575   4.578 -0.5454 -0.3661  0.6561
15225TIP3    H167166   2.665   6.653   4.631 -0.9541  0.4036 -0.5786
15225TIP3    H267167   2.746   6.526   4.625  0.7753  1.4317  0.6814
15226TIP3   OH267168   5.496   5.792   4.664  0.1611  0.2619 -0.0509
15226TIP3    H167169   5.558   5.774   4.594 -1.1925  0.0761 -1.2136
15226TIP3    H267170   5.548   5.837   4.731  1.6742 -0.4328 -0.7366
15227TIP3   OH267171   3.389   2.591   3.032 -0.3793 -0.1364  0.4717
15227TIP3    H167172   3.334   2.609   3.109 -0.7251 -2.0474  0.7026
15227TIP3    H267173   3.329   2.601   2.958  0.0700  2.1916  0.3774
15228TIP3   OH267174   4.785   0.621   4.349 -0.1326  0.3273  0.1096
15228TIP3    H167175   4.873   0.648   4.325  0.4049 -0.3326  1.3195
15228TIP3    H267176   4.784   0.527   4.337 -0.6724  0.3268  0.1155
15229TIP3   OH267177   5.735   6.007   3.745 -0.0098  0.8849 -0.1799
15229TIP3    H167178   5.701   6.096   3.754 -1.7447  0.1729  0.4019
15229TIP3    H267179   5.659   5.950   3.756  1.0025 -0.6689 -0.9826
15230TIP3   OH267180   1.769   4.627  16.148 -0.3671 -0.2044 -0.0408
15230TIP3    H167181   1.839   4.638  16.213  0.3825  4.2117 -1.4098
15230TIP3    H267182   1.690   4.656  16.193  0.1225  2.6733 -0.8801
15231TIP3   OH267183   3.971   3.410  11.607  0.3804 -0.2202 -0.1975
15231TIP3    H167184   3.956   3.411  11.701 -1.4127 -0.5784 -0.4663
15231TIP3    H267185   4.036   3.479  11.592 -0.6688  1.0682  1.0667
15232TIP3   OH267186   0.374   0.785  15.656 -0.0373 -0.4434  0.0990
15232TIP3    H167187   0.375   0.878  15.633  0.1469  0.1824  2.4920
15232TIP3    H267188   0.281   0.763  15.664 -0.0647 -0.2299  0.3855
15233TIP3   OH267189   2.378   3.814  16.197  0.2211  0.6054  0.0227
15233TIP3    H167190   2.424   3.732  16.178 -0.8688 -0.6125  2.4022
15233TIP3    H267191   2.427   3.853  16.269  0.0553  1.4563 -0.3239
15234TIP3   OH267192   4.847   3.838  13.150  0.4263  0.4532  0.0434
15234TIP3    H167193   4.777   3.874  13.203 -0.8374 -1.0600 -0.5559
15234TIP3    H267194   4.906   3.912  13.134 -0.1850  1.3660  1.8886
15235TIP3   OH267195   0.484   3.082  11.418 -0.0650 -0.4693  0.5779
15235TIP3    H167196   0.456   3.155  11.473 -1.3147 -1.2209  0.9509
15235TIP3    H267197   0.560   3.045  11.464  0.2454  0.2663  0.6560
15236TIP3   OH267198   0.913   5.067   2.080  0.2738 -0.5091  0.2888
15236TIP3    H167199   0.921   4.972   2.078 -0.8240 -0.6185  0.9293
15236TIP3    H267200   0.905   5.093   1.988  0.3381 -1.0562  0.1309
15237TIP3   OH267201   0.544   2.681  10.493 -0.4507 -0.1840  0.2709
15237TIP3    H167202   0.489   2.628  10.551  0.6989 -0.0219  1.5330
15237TIP3    H267203   0.633   2.649  10.509  0.0048  0.5975 -0.6364
15238TIP3   OH267204   4.617   1.101   5.320 -0.6094 -0.3696  0.0040
15238TIP3    H167205   4.693   1.071   5.371  0.6915  2.1090 -0.3896
15238TIP3    H267206   4.544   1.099   5.382  0.2522 -0.6408  1.0168
15239TIP3   OH267207   4.706   0.512  13.656  0.2080 -0.5755 -0.3094
15239TIP3    H167208   4.774   0.456  13.693  0.1583 -0.1656  0.4127
15239TIP3    H267209   4.754   0.583  13.613  0.2926 -1.5322 -1.8408
15240TIP3   OH267210   2.956   0.856   0.639 -0.0195 -0.0874  0.4889
15240TIP3    H167211   2.894   0.787   0.614  1.4479 -0.6493 -1.7874
15240TIP3    H267212   2.936   0.929   0.580  1.7515 -0.4574 -0.6366
15241TIP3   OH267213   1.347   5.643  13.618 -0.3675  0.4935 -0.2535
15241TIP3    H167214   1.372   5.558  13.582  0.1276  1.4329 -2.1910
15241TIP3    H267215   1.256   5.631  13.646 -0.0460 -0.8958  0.2356
15242TIP3   OH267216   5.503   0.160   0.145  0.1808  0.3681  0.4964
15242TIP3    H167217   5.458   0.218   0.206  0.2895  0.8160  0.1556
15242TIP3    H267218   5.553   0.101   0.200 -1.5344 -0.7253  0.9200
15243TIP3   OH267219   6.677   0.002  13.801  0.5530  0.3858 -0.1365
15243TIP3    H167220   6.670   0.037  13.712  0.0537  0.5397 -0.0352
15243TIP3    H267221   6.698   0.078  13.855  1.7349  0.1544 -0.2418
15244TIP3   OH267222   5.146   5.456  14.389 -0.6295 -0.5956  0.2941
15244TIP3    H167223   5.208   5.523  14.419  0.1944 -0.2207 -2.1687
15244TIP3    H267224   5.060   5.495  14.403 -0.2035  0.2911  0.4653
15245TIP3   OH267225   1.902   0.912  13.210 -0.2241 -0.6738 -0.4116
15245TIP3    H167226   1.835   0.978  13.226  0.3616 -0.1475 -0.1115
15245TIP3    H267227   1.921   0.918  13.117 -0.6100 -0.8368 -0.4996
15246TIP3   OH267228   4.957   3.243  15.623 -0.0441  0.2119  0.6509
15246TIP3    H167229   5.043   3.235  15.583 -1.0553  1.5834 -1.9918
15246TIP3    H267230   4.963   3.319  15.680  0.9234 -0.6532  1.7065
15247TIP3   OH267231   0.616   3.499  15.640 -0.1015 -0.0024  0.0501
15247TIP3    H167232   0.711   3.508  15.646 -0.3625  1.8421  1.6633
15247TIP3    H267233   0.591   3.458  15.723 -0.4782 -2.9201 -1.4228
15248TIP3   OH267234   6.669   3.807   4.368 -0.2968 -0.2535  0.1725
15248TIP3    H167235   6.581   3.827   4.334 -0.2006  1.4533  0.8733
15248TIP3    H267236   6.719   3.780   4.291 -1.4460 -1.3362 -0.2211
15249TIP3   OH267237   3.445   0.532  11.832  0.0231 -0.3825  0.1567
15249TIP3    H167238   3.533   0.540  11.869 -0.1996 -0.9396  0.8061
15249TIP3    H267239   3.387   0.569  11.899 -0.1043  1.4461 -0.9224
15250TIP3   OH267240   1.921   2.061   0.666  0.0823 -0.3587  0.4510
15250TIP3    H167241   2.003   2.019   0.641  0.7178  0.9329  0.3338
15250TIP3    H267242   1.860   2.036   0.596  0.3267 -1.4206  0.6051
15251TIP3   OH267243   6.686   3.558  13.989  0.3513  0.4245  0.2156
15251TIP3    H167244   6.719   3.647  13.984  1.0755  0.1441  0.0452
15251TIP3    H267245   6.755   3.509  14.033  0.7071 -0.4141 -1.2400
15252TIP3   OH267246   2.513   1.869   3.960 -1.0403 -0.2318  0.2811
15252TIP3    H167247   2.541   1.793   4.011  0.3805 -0.0556 -0.2124
15252TIP3    H267248   2.506   1.939   4.025  0.1163 -0.1662  0.3376
15253TIP3   OH267249   3.713   1.453   0.047  0.8956 -0.5089  0.5788
15253TIP3    H167250   3.668   1.510  -0.014  0.1210 -1.1373  0.5495
15253TIP3    H267251   3.806   1.464   0.027  0.7326  0.5270  0.4027
15254TIP3   OH267252   6.665   6.702  16.472 -0.0008  0.0683 -0.2855
15254TIP3    H167253   6.578   6.671  16.450 -0.1916  0.0693  0.4393
15254TIP3    H267254   6.662   6.715  16.567  0.6821  0.3842 -0.3035
15255TIP3   OH267255   1.686   2.656  15.371 -0.2063 -0.3873  0.1118
15255TIP3    H167256   1.733   2.728  15.415 -1.9398  0.2749  0.9187
15255TIP3    H267257   1.718   2.577  15.414  0.4298  0.0302  0.4127
15256TIP3   OH267258   2.538   3.262   3.322  0.2249 -0.2750 -0.2161
15256TIP3    H167259   2.595   3.296   3.391 -2.2660 -1.2758  2.4615
15256TIP3    H267260   2.562   3.170   3.314 -1.4497 -0.8901  1.4593
15257TIP3   OH267261   6.660   2.816   1.419 -0.4569  0.4551 -0.2076
15257TIP3    H167262   6.728   2.867   1.374  0.2753 -1.6978 -1.5847
15257TIP3    H267263   6.707   2.742   1.457 -2.0803 -1.2889 -1.5486
15258TIP3   OH267264   4.150   4.044  12.944  0.2050 -0.2035 -0.1652
15258TIP3    H167265   4.238   4.080  12.928 -0.7260  1.1294 -2.5149
15258TIP3    H267266   4.120   4.089  13.023  0.3301  1.9137 -1.2638
15259TIP3   OH267267   4.720   1.234   0.729 -0.3171  0.4481 -0.1485
15259TIP3    H167268   4.644   1.290   0.714 -0.4764 -0.0607 -1.3242
15259TIP3    H267269   4.755   1.263   0.813 -0.7764  1.8785 -0.4315
15260TIP3   OH267270   3.277   1.791  11.424  0.0545 -0.1364  0.2092
15260TIP3    H167271   3.356   1.797  11.476 -0.3351  2.6779  0.5523
15260TIP3    H267272   3.206   1.815  11.484 -0.5734  1.5453 -1.1408
15261TIP3   OH267273   1.179   2.156  12.040  0.0744 -0.1451 -0.0596
15261TIP3    H167274   1.224   2.080  12.002  1.1878  0.5481 -0.1530
15261TIP3    H267275   1.136   2.197  11.965 -1.7914 -1.5095  0.2256
15262TIP3   OH267276   1.553   4.100   5.698 -0.1445 -0.5500 -0.1989
15262TIP3    H167277   1.592   4.078   5.783 -1.2018 -0.4748  0.3117
15262TIP3    H267278   1.476   4.045   5.692 -2.1883  2.1095  0.5741
15263TIP3   OH267279   1.731   0.545  15.597 -0.0879 -0.0363  0.5928
15263TIP3    H167280   1.710   0.575  15.686  1.0442 -1.7152  1.4639
15263TIP3    H267281   1.652   0.501  15.567 -0.7281  1.1773  0.4706
15264TIP3   OH267282   3.181   2.212  15.972  0.3834  0.0644 -0.0543
15264TIP3    H167283   3.105   2.162  16.001  0.0734  0.4588 -0.1785
15264TIP3    H267284   3.217   2.250  16.052  1.3135 -1.3051  0.1870
15265TIP3   OH267285   2.716   4.669   2.986 -0.5565 -0.6945  0.6879
15265TIP3    H167286   2.681   4.752   3.019 -1.4457 -0.4842 -0.7376
15265TIP3    H267287   2.655   4.603   3.020 -0.7455 -0.6029  0.5322
15266TIP3   OH267288   1.441   0.173  14.212 -0.2675  0.4101 -0.3225
15266TIP3    H167289   1.405   0.162  14.300  1.4287 -2.6603  0.0346
15266TIP3    H267290   1.528   0.211  14.226 -0.0651  0.0876 -0.6942
15267TIP3   OH267291   0.746   0.403   0.507  0.2758  0.0335 -0.2053
15267TIP3    H167292   0.707   0.456   0.437  0.8003  1.4812  0.5738
15267TIP3    H267293   0.707   0.317   0.497 -0.8310  0.6529 -1.3140
15268TIP3   OH267294   5.704   2.501  14.850 -0.0329 -0.8388  0.3508
15268TIP3    H167295   5.740   2.588  14.829  0.0682 -1.0751 -0.4657
15268TIP3    H267296   5.772   2.459  14.902 -0.9747  0.3813  2.6405
15269TIP3   OH267297   2.628   3.740  12.080 -0.3245  0.2413 -0.4137
15269TIP3    H167298   2.670   3.704  12.002  0.1611  2.0268 -0.9909
15269TIP3    H267299   2.632   3.835  12.069 -1.4941  0.5010  1.1319
15270TIP3   OH267300   1.893   5.359  14.456  0.2898  0.0781 -0.1724
15270TIP3    H167301   1.898   5.376  14.362  1.0240 -1.7018 -0.4728
15270TIP3    H267302   1.914   5.266  14.465 -3.3418 -0.6915  1.3810
15271TIP3   OH267303   2.526   6.606   0.452  0.2147 -0.4666 -0.6504
15271TIP3    H167304   2.562   6.630   0.366  1.3716 -0.9470 -0.3047
15271TIP3    H267305   2.568   6.522   0.473  0.1606 -0.2093  0.5153
15272TIP3   OH267306   1.437   5.880   4.324 -0.0001  0.1798  0.0048
15272TIP3    H167307   1.452   5.969   4.292  0.3421 -0.5987 -2.1346
15272TIP3    H267308   1.521   5.853   4.360  0.2694  0.2620 -0.5570
15273TIP3   OH267309   5.129   5.953   4.811 -0.5020 -0.4710 -0.3970
15273TIP3    H167310   5.139   5.886   4.744  2.7045 -0.3142 -0.1801
15273TIP3    H267311   5.194   5.929   4.878 -0.5634  1.8189  0.5275
15274TIP3   OH267312   6.477   4.913  11.156  0.0082  0.5880 -0.1501
15274TIP3    H167313   6.454   4.943  11.068  1.8500 -0.2664 -0.9279
15274TIP3    H267314   6.563   4.874  11.147 -0.3384 -0.6902  1.7991
15275TIP3   OH267315   4.041   4.650   1.093 -0.1184  0.0231 -0.1038
15275TIP3    H167316   3.970   4.652   1.028 -1.0855 -2.0616  0.8714
15275TIP3    H267317   4.008   4.702   1.166  0.2857  0.9342 -0.5558
15276TIP3   OH267318   5.670   3.290  16.714  0.5983  0.2767 -0.2384
15276TIP3    H167319   5.717   3.373  16.718  1.2802 -0.1561  0.7525
15276TIP3    H267320   5.738   3.223  16.723 -0.3084 -0.3422  2.4745
15277TIP3   OH267321   2.444   4.579  12.167 -0.4437  0.3068 -0.1688
15277TIP3    H167322   2.459   4.666  12.131 -3.4322  0.3781 -1.3646
15277TIP3    H267323   2.495   4.520  12.110 -1.6989  0.8641 -1.9032
15278TIP3   OH267324   5.882   2.930   1.246  0.1550 -0.4508  0.1883
15278TIP3    H167325   5.946   2.972   1.190  0.1971  0.6331  1.0462
15278TIP3    H267326   5.836   2.869   1.188  2.0865 -1.4024 -0.3830
15279TIP3   OH267327   1.654   3.401   1.480  0.1124 -0.2460  0.1487
15279TIP3    H167328   1.651   3.321   1.428  1.2942 -0.1921 -0.0073
15279TIP3    H267329   1.747   3.421   1.489 -0.0703 -0.3603  2.4712
15280TIP3   OH267330   3.116   4.067  11.522 -0.0475  0.7738 -0.5582
15280TIP3    H167331   3.099   4.146  11.573 -1.0412  0.1970  0.0310
15280TIP3    H267332   3.086   4.089  11.433  0.0392  1.1914 -0.4831
15281TIP3   OH267333   1.421   3.539   5.243 -0.1786  1.2204 -0.3937
15281TIP3    H167334   1.514   3.537   5.264  0.0653  0.6174 -1.5153
15281TIP3    H267335   1.414   3.494   5.159 -1.3202  2.3177 -0.9075
15282TIP3   OH267336   6.767   1.473  13.416  0.6242 -0.1814  0.6337
15282TIP3    H167337   6.811   1.483  13.500  0.7272  2.0496  0.3376
15282TIP3    H267338   6.831   1.428  13.361  1.1156 -0.3027  1.2949
15283TIP3   OH267339   1.175   1.354   0.562 -0.3554 -0.1672 -0.2899
15283TIP3    H167340   1.084   1.383   0.552 -0.1029  1.2518  1.3244
15283TIP3    H267341   1.170   1.258   0.565 -1.8005 -0.0978 -0.1589
15284TIP3   OH267342   5.996   2.639  14.015 -0.2295  0.0871 -0.1599
15284TIP3    H167343   6.056   2.714  14.016  1.5255 -1.2520 -1.7721
15284TIP3    H267344   6.051   2.563  14.034 -1.7192 -1.0042 -0.0568
15285TIP3   OH267345   0.405   2.355   3.921  0.5940 -0.5914 -0.2309
15285TIP3    H167346   0.336   2.308   3.967  0.6777 -1.5051 -1.0181
15285TIP3    H267347   0.480   2.295   3.922  0.6723 -0.5237 -1.3324
15286TIP3   OH267348   4.052   2.530   5.541 -0.2512 -0.1847  0.1190
15286TIP3    H167349   4.067   2.519   5.635  0.2106 -0.5772  0.0010
15286TIP3    H267350   4.049   2.625   5.529  1.7761 -0.0677  0.2192
15287TIP3   OH267351   1.582   1.956  13.437  0.8266 -0.4888 -0.5002
15287TIP3    H167352   1.492   1.924  13.441  1.7336 -3.0920  0.2063
15287TIP3    H267353   1.633   1.889  13.483  3.2846  0.2820 -2.0186
15288TIP3   OH267354   6.507   4.220   2.149  1.3735 -0.3261  0.4538
15288TIP3    H167355   6.491   4.210   2.056  0.3698  3.8298  0.0771
15288TIP3    H267356   6.597   4.190   2.162  0.8105 -2.9791 -1.3846
15289TIP3   OH267357   5.098   4.109   0.030  0.5550  0.2450 -0.0155
15289TIP3    H167358   5.026   4.119  -0.032  0.4634 -1.2094 -0.1511
15289TIP3    H267359   5.145   4.032   0.000  0.5062 -0.4778  1.7074
15290TIP3   OH267360   2.289   0.510  12.788  0.3113 -0.3965  0.4402
15290TIP3    H167361   2.220   0.569  12.756  1.5709 -0.0273 -1.6989
15290TIP3    H267362   2.251   0.423  12.781  0.1756 -0.2312 -1.0758
15291TIP3   OH267363   6.202   0.120  12.404  0.5119 -0.1300 -0.1154
15291TIP3    H167364   6.240   0.198  12.443  1.5653 -0.6641 -0.0366
15291TIP3    H267365   6.153   0.152  12.328  1.9564  0.4991 -0.8101
15292TIP3   OH267366   3.061   6.269   5.408  0.2933 -0.2587  0.0298
15292TIP3    H167367   2.997   6.204   5.436  1.6525 -1.7816 -0.2685
15292TIP3    H267368   3.124   6.274   5.480  1.0263 -0.4232 -0.5899
15293TIP3   OH267369   5.769   5.031  12.860 -0.3881 -0.2880 -0.0799
15293TIP3    H167370   5.694   5.070  12.905 -0.6466 -0.3707 -0.4383
15293TIP3    H267371   5.828   5.004  12.931 -0.2654  0.6330  0.1777
15294TIP3   OH267372   3.245   5.645  16.061 -0.9607  0.6198  0.4733
15294TIP3    H167373   3.228   5.561  16.018  0.7666  0.6232 -0.2652
15294TIP3    H267374   3.232   5.627  16.154 -2.2245 -0.0410  0.1776
15295TIP3   OH267375   4.764   5.260   2.087 -0.3053  0.3668  0.4915
15295TIP3    H167376   4.692   5.240   2.147  0.3910 -1.0318  0.8827
15295TIP3    H267377   4.760   5.355   2.076 -1.6379  0.4128  1.2294
15296TIP3   OH267378   6.253   5.675  14.850  0.2602 -0.3030  0.4664
15296TIP3    H167379   6.251   5.738  14.922  1.2516 -0.0516  0.2914
15296TIP3    H267380   6.259   5.728  14.771  0.2701 -0.5997  0.2648
15297TIP3   OH267381   5.082   1.971   3.947 -0.0376 -0.3228  0.1883
15297TIP3    H167382   5.146   2.036   3.918 -1.6200  0.9862 -0.4855
15297TIP3    H267383   5.133   1.893   3.965  1.7445  0.6980 -0.3270
15298TIP3   OH267384   5.340   5.740  11.442  0.0272 -0.1269 -0.7694
15298TIP3    H167385   5.357   5.733  11.348 -1.4399  1.5159 -1.1892
15298TIP3    H267386   5.406   5.802  11.474  3.0078 -3.5214  0.0671
15299TIP3   OH267387   3.367   6.755   0.609  0.3809  0.1967 -0.2358
15299TIP3    H167388   3.319   6.673   0.614  0.4156  0.2906  1.7054
15299TIP3    H267389   3.306   6.821   0.642  0.4605  0.9224 -1.4994
15300TIP3   OH267390   2.040   0.379   2.660 -0.1654 -0.5326 -0.0479
15300TIP3    H167391   2.085   0.299   2.689 -1.7946 -1.5810 -0.3499
15300TIP3    H267392   2.021   0.364   2.568 -0.5501  0.1889 -0.0892
15301TIP3   OH267393   2.860   5.756   0.339 -0.4623 -0.0032  0.6746
15301TIP3    H167394   2.946   5.798   0.342  0.3894 -1.7379  0.7899
15301TIP3    H267395   2.813   5.802   0.269  0.5734  0.9075  0.5662
15302TIP3   OH267396   0.042   2.496  12.966  0.3054  0.3179  0.4801
15302TIP3    H167397   0.023   2.578  13.011 -0.1217  0.1297  0.6474
15302TIP3    H267398   0.110   2.518  12.903 -0.6499  1.0708 -0.3115
15303TIP3   OH267399   3.275   3.571   1.246  0.6214 -0.0746  0.1707
15303TIP3    H167400   3.254   3.629   1.172 -2.0656  0.5924  1.3900
15303TIP3    H267401   3.340   3.618   1.297  0.1734  0.8561 -0.1077
15304TIP3   OH267402   1.363   0.259   3.518 -0.0419  0.3949  0.2388
15304TIP3    H167403   1.364   0.166   3.495  0.9778 -0.0095  1.8637
15304TIP3    H267404   1.274   0.276   3.549 -0.1047 -0.1412  0.3472
15305TIP3   OH267405   1.197   6.508  10.702 -0.1010  0.6054 -0.3271
15305TIP3    H167406   1.150   6.462  10.631 -1.2761  0.4382  0.5369
15305TIP3    H267407   1.195   6.600  10.676  0.4588  0.4153 -1.0630
15306TIP3   OH267408   4.999   1.218  11.666 -0.2723  0.8000 -0.4460
15306TIP3    H167409   5.089   1.189  11.684 -0.0840  1.3857 -0.4294
15306TIP3    H267410   4.956   1.216  11.752 -0.4177  0.0270 -0.5368
15307TIP3   OH267411   0.145   2.591  16.363  0.3023  0.0844 -0.2019
15307TIP3    H167412   0.116   2.583  16.272 -1.1578  0.8294  0.1800
15307TIP3    H267413   0.147   2.685  16.379 -0.0816 -0.0583  0.7312
15308TIP3   OH267414   0.744   1.725   1.347  0.1782  0.2393 -0.4566
15308TIP3    H167415   0.769   1.645   1.393  2.2713  0.7811 -0.5855
15308TIP3    H267416   0.790   1.720   1.263  2.5477  2.7928  0.6096
15309TIP3   OH267417   0.895   4.363   4.456 -0.4269  0.2453 -0.2488
15309TIP3    H167418   0.812   4.410   4.458  0.0560  1.1195 -0.2726
15309TIP3    H267419   0.871   4.271   4.455 -1.4106  0.5012 -0.9763
15310TIP3   OH267420   4.130   5.501   2.667  0.1820  0.1506  0.4753
15310TIP3    H167421   4.126   5.430   2.731  0.8278 -1.2699 -1.0246
15310TIP3    H267422   4.041   5.505   2.631 -0.0812  0.6969  1.1704
15311TIP3   OH267423   4.103   4.767  16.881  0.1607  0.2541 -0.1005
15311TIP3    H167424   4.112   4.854  16.841 -0.5585  0.4911  0.2565
15311TIP3    H267425   4.159   4.771  16.959  0.0592  0.4263 -0.0380
15312TIP3   OH267426   2.579   5.185  13.252 -0.8672  0.6101  0.1663
15312TIP3    H167427   2.509   5.120  13.240 -0.1503 -0.0138 -0.7803
15312TIP3    H267428   2.660   5.136  13.233 -0.3212  1.7822 -0.5886
15313TIP3   OH267429   3.351   6.813  15.982 -0.1254 -0.1734  0.0800
15313TIP3    H167430   3.337   6.769  15.898  0.8466 -3.3470  1.5246
15313TIP3    H267431   3.275   6.790  16.035 -0.8432  1.9940  0.0559
15314TIP3   OH267432   6.019   2.154   2.683 -0.5086 -0.4892 -0.4483
15314TIP3    H167433   6.014   2.094   2.609  1.3520 -0.9157 -0.2431
15314TIP3    H267434   5.996   2.239   2.647 -0.0730 -0.7787 -1.4097
15315TIP3   OH267435   0.008   3.240  12.692 -0.1044  0.4322 -0.5075
15315TIP3    H167436   0.042   3.329  12.681  3.4996 -0.8918 -0.6787
15315TIP3    H267437  -0.025   3.216  12.606  4.2150 -0.4295 -2.0270
15316TIP3   OH267438   2.752   1.867  12.679  0.2314  0.4773  0.4051
15316TIP3    H167439   2.818   1.936  12.669  1.6196 -0.8341  0.3759
15316TIP3    H267440   2.773   1.824  12.762 -1.1379  0.6041  0.8396
15317TIP3   OH267441   5.062   0.552  11.119 -0.5353 -0.0865  0.1085
15317TIP3    H167442   5.016   0.510  11.045  0.5802  0.3906 -0.8762
15317TIP3    H267443   5.074   0.642  11.091  1.3284 -0.2977  0.1958
15318TIP3   OH267444   1.261   3.517  14.692  0.2279 -0.3116 -0.5023
15318TIP3    H167445   1.230   3.605  14.713  1.7119 -0.0441  0.6394
15318TIP3    H267446   1.220   3.461  14.759  0.2047 -0.3220 -0.5253
15319TIP3   OH267447   3.017   3.193  11.201  0.3394 -0.0130 -0.3569
15319TIP3    H167448   3.090   3.226  11.150 -0.3209 -0.7465 -1.8140
15319TIP3    H267449   2.966   3.271  11.224 -0.2149  0.1665 -2.1768
15320TIP3   OH267450   0.587   6.075  14.415 -0.4003  0.5619 -0.6286
15320TIP3    H167451   0.581   6.089  14.320  1.2357  1.4966 -0.6161
15320TIP3    H267452   0.591   6.163  14.451 -3.4194  0.2990  0.5339
15321TIP3   OH267453   0.056   1.592  14.394 -0.0771 -0.4530  0.3920
15321TIP3    H167454   0.132   1.542  14.423 -0.3210 -2.2344 -1.9352
15321TIP3    H267455   0.079   1.624  14.307 -1.5898 -0.1737  0.0670
15322TIP3   OH267456   3.560   4.668   2.883 -0.4372 -0.2543  0.3950
15322TIP3    H167457   3.556   4.741   2.821  2.4382  0.1381  0.6220
15322TIP3    H267458   3.649   4.634   2.875  0.1919  0.1743  4.7041
15323TIP3   OH267459   4.719   5.788  12.929  1.0434 -0.4518 -0.0416
15323TIP3    H167460   4.669   5.722  12.976 -1.0782  1.1278 -0.0415
15323TIP3    H267461   4.662   5.865  12.927  2.4450  0.5691 -2.2627
15324TIP3   OH267462   0.464   4.552   3.022  0.0169  0.4276 -0.6984
15324TIP3    H167463   0.503   4.638   3.037  1.1514 -0.0490 -0.8640
15324TIP3    H267464   0.380   4.556   3.067  1.6306  0.3473  2.4718
15325TIP3   OH267465   2.944   0.041  10.455  0.1392  0.0105  0.1300
15325TIP3    H167466   2.925   0.036  10.548 -1.0154  2.0798  0.0357
15325TIP3    H267467   2.890   0.113  10.423  2.0192  0.6523 -1.7490
15326TIP3   OH267468   5.321   3.554   4.997 -0.4436 -0.2539 -0.3733
15326TIP3    H167469   5.368   3.601   4.929  1.5557 -2.3130 -0.5050
15326TIP3    H267470   5.367   3.577   5.078 -0.8725 -0.2201 -0.1390
15327TIP3   OH267471   0.742   0.637   3.579  0.3433  0.5476  0.1389
15327TIP3    H167472   0.725   0.573   3.649  0.0667 -0.1191 -0.5201
15327TIP3    H267473   0.835   0.628   3.561  0.0343 -0.6810 -0.9071
15328TIP3   OH267474   2.874   6.556  15.623  0.0523  0.5491 -0.1050
15328TIP3    H167475   2.823   6.575  15.702 -0.9128  0.2714 -0.6519
15328TIP3    H267476   2.832   6.479  15.585  1.4708 -0.2647 -0.0589
15329TIP3   OH267477   0.499   1.405   6.566  0.0075  0.5150  0.1543
15329TIP3    H167478   0.437   1.456   6.515  1.2564  2.3647  0.4238
15329TIP3    H267479   0.499   1.446   6.653  0.5676 -0.3357  0.5740
15330TIP3   OH267480   3.867   1.381   4.007 -0.3116 -0.1867 -0.0380
15330TIP3    H167481   3.963   1.377   3.998 -0.3684 -0.8053 -0.3844
15330TIP3    H267482   3.846   1.473   3.996  0.2527 -0.0415  0.0743
15331TIP3   OH267483   5.000   6.571  12.770 -0.2250 -0.6376 -0.3157
15331TIP3    H167484   5.032   6.654  12.734  0.3053 -0.8056 -0.2422
15331TIP3    H267485   4.924   6.549  12.717  0.1625 -0.5484 -0.9097
15332TIP3   OH267486   1.524   1.714  12.166 -0.3534  0.0791 -0.2735
15332TIP3    H167487   1.610   1.675  12.149  0.3899  1.6308 -0.1624
15332TIP3    H267488   1.515   1.713  12.261 -1.3311 -1.8957 -0.3724
15333TIP3   OH267489   3.408   3.113  12.400 -0.1946  0.0804  0.3333
15333TIP3    H167490   3.371   3.201  12.410 -2.6073 -0.9316  0.8143
15333TIP3    H267491   3.429   3.106  12.307  1.3646  1.6660  0.5521
15334TIP3   OH267492   4.815   1.006   0.907  0.4564  0.2809  0.3442
15334TIP3    H167493   4.834   0.937   0.843 -1.5184 -0.5274  0.6107
15334TIP3    H267494   4.738   0.976   0.954  0.1634  2.2075  1.1719
15335TIP3   OH267495   6.699   4.931  17.048  0.4695 -0.2423  0.2104
15335TIP3    H167496   6.627   4.939  16.986  0.4052 -0.5835  0.2414
15335TIP3    H267497   6.673   4.860  17.107 -0.5384  1.5805  2.0696
15336TIP3   OH267498   5.695   2.167   5.057  0.0144  0.1346  0.0000
15336TIP3    H167499   5.755   2.234   5.027  0.4380 -0.8404 -1.3564
15336TIP3    H267500   5.631   2.159   4.986 -0.6357 -0.1526  0.6155
15337TIP3   OH267501   0.844   1.885   1.686 -0.1215  0.1035 -1.0496
15337TIP3    H167502   0.823   1.924   1.601 -2.1537  0.0364 -0.6050
15337TIP3    H267503   0.861   1.793   1.667  0.6791  0.3554 -1.5533
15338TIP3   OH267504   0.239   6.646  12.160  0.2298 -0.4981  0.1405
15338TIP3    H167505   0.327   6.677  12.178 -0.4889  1.0613  1.1256
15338TIP3    H267506   0.199   6.715  12.107 -0.4628 -1.0871 -0.1197
15339TIP3   OH267507   4.610   3.820  13.011  0.1035  0.2484  0.3400
15339TIP3    H167508   4.703   3.836  13.023  0.1591  1.7975 -1.9110
15339TIP3    H267509   4.567   3.882  13.069  0.4394 -1.1760  2.1697
15340TIP3   OH267510   4.258   4.718  14.748 -0.4643  0.4582 -0.4678
15340TIP3    H167511   4.304   4.686  14.670 -0.7676  0.6494 -0.7286
15340TIP3    H267512   4.165   4.705  14.728 -0.4588 -1.7410  0.8517
15341TIP3   OH267513   0.436   0.572   4.273  0.9044 -0.1301 -0.3163
15341TIP3    H167514   0.346   0.559   4.245 -0.2140  3.1383  1.4543
15341TIP3    H267515   0.457   0.493   4.323 -0.4981 -1.4856 -1.8096
15342TIP3   OH267516   2.429   1.013   0.532  0.1201  0.2763 -0.2774
15342TIP3    H167517   2.430   1.047   0.443  0.9337 -1.3519 -0.9036
15342TIP3    H267518   2.432   1.091   0.588 -0.8073  1.3090 -1.6666
15343TIP3   OH267519   5.287   0.273   4.632 -0.1792  0.2244 -0.2978
15343TIP3    H167520   5.218   0.208   4.648  1.2545 -1.3321 -0.3673
15343TIP3    H267521   5.278   0.294   4.539  1.8318 -2.8347 -1.2443
15344TIP3   OH267522   0.737   5.487  15.087 -0.2376 -0.6046 -0.2328
15344TIP3    H167523   0.690   5.569  15.100 -1.4655 -0.9799 -2.1057
15344TIP3    H267524   0.729   5.441  15.170 -0.3970  0.7263  0.5052
15345TIP3   OH267525   1.540   5.897  12.084 -0.3537 -0.5541 -0.1616
15345TIP3    H167526   1.602   5.842  12.133 -0.4404 -1.8818 -1.4869
15345TIP3    H267527   1.457   5.850  12.090 -0.6313 -0.1172 -0.5713
15346TIP3   OH267528   4.245   4.546  16.786  0.5060 -0.4614  0.0924
15346TIP3    H167529   4.188   4.617  16.816 -1.5661 -1.1922 -1.9568
15346TIP3    H267530   4.236   4.479  16.854 -0.0743 -0.0455  0.4366
15347TIP3   OH267531   1.097   4.854   5.380 -0.0529  0.4151  0.1258
15347TIP3    H167532   1.006   4.873   5.359  0.3771  1.8226 -0.5668
15347TIP3    H267533   1.093   4.783   5.443 -1.6767  1.2654  1.0197
15348TIP3   OH267534   4.178   5.515   0.553  0.3279  0.4704  0.1957
15348TIP3    H167535   4.090   5.504   0.516  0.0685  1.4719  0.4862
15348TIP3    H267536   4.168   5.491   0.645 -0.2799  3.1178  0.8725
15349TIP3   OH267537   6.641   5.733   0.342  0.1849 -0.1963 -0.2520
15349TIP3    H167538   6.706   5.757   0.276  1.6890  0.0332  1.2696
15349TIP3    H267539   6.682   5.755   0.426 -1.4294 -1.0530  0.8070
15350TIP3   OH267540   5.556   0.310   3.291 -0.1514 -0.0933  0.1823
15350TIP3    H167541   5.566   0.366   3.215 -0.7760 -0.4752 -0.1878
15350TIP3    H267542   5.641   0.313   3.335  0.1742  0.2184 -0.4680
15351TIP3   OH267543   1.612   0.326   5.337  0.4006  0.0350  0.1488
15351TIP3    H167544   1.556   0.275   5.278 -1.2039  1.5180  0.3141
15351TIP3    H267545   1.701   0.309   5.307 -0.2395 -1.1220 -1.1670
15352TIP3   OH267546   1.608   6.502   1.697 -0.4344 -0.6329 -0.0983
15352TIP3    H167547   1.658   6.432   1.656 -0.6531 -0.6455 -0.3427
15352TIP3    H267548   1.535   6.458   1.740 -0.7431 -0.5230 -0.5128
15353TIP3   OH267549   2.602   2.688   2.578  0.2308 -0.4981  0.4031
15353TIP3    H167550   2.609   2.655   2.488  1.9810  0.3200  0.2098
15353TIP3    H267551   2.590   2.609   2.631 -0.1654 -1.0455 -0.4796
15354TIP3   OH267552   4.024   4.970  15.849  0.3695  0.1619  0.0453
15354TIP3    H167553   3.957   5.018  15.801  0.3280  0.2459  0.1902
15354TIP3    H267554   4.069   4.919  15.781 -0.2919 -0.4321  0.0524
15355TIP3   OH267555   1.545   2.240   1.258  0.1650  0.0073 -0.5859
15355TIP3    H167556   1.539   2.312   1.196  0.4343  1.0187  0.5561
15355TIP3    H267557   1.594   2.172   1.211 -0.0297  0.5809 -1.6327
15356TIP3   OH267558   5.716   4.803  11.220  0.1924 -0.5334  0.7032
15356TIP3    H167559   5.785   4.865  11.196  0.4152 -1.5519 -1.4064
15356TIP3    H267560   5.636   4.841  11.184 -0.1846  0.1320  2.2415
15357TIP3   OH267561   0.004   1.418  16.153 -0.2760 -0.5438  0.1227
15357TIP3    H167562  -0.006   1.344  16.093  1.9002 -0.5416 -0.2845
15357TIP3    H267563  -0.053   1.486  16.117  1.2407 -0.4281 -2.1892
15358TIP3   OH267564   6.029   6.397  12.367  0.7929 -1.0291  0.4925
15358TIP3    H167565   5.978   6.339  12.423 -3.3451  2.4594  0.5915
15358TIP3    H267566   6.105   6.422  12.420 -0.4023 -1.7306  2.5599
15359TIP3   OH267567   0.613   2.308  13.826  0.0976  0.4540  0.4877
15359TIP3    H167568   0.639   2.231  13.776 -2.0489  1.0726 -1.6732
15359TIP3    H267569   0.676   2.376  13.801 -0.4862  0.5335 -0.7851
15360TIP3   OH267570   0.599   4.949  16.173  0.1934 -0.4032 -0.1216
15360TIP3    H167571   0.639   5.036  16.165 -1.3239  0.4802  1.3576
15360TIP3    H267572   0.506   4.965  16.158 -0.3022 -1.5265  1.6799
15361TIP3   OH267573   0.234   6.502   2.604 -0.8269  0.0870 -0.8538
15361TIP3    H167574   0.289   6.531   2.531  0.1043  1.1914  0.2549
15361TIP3    H267575   0.171   6.572   2.616  0.9770  1.3986  1.3672
15362TIP3   OH267576   4.158   4.550  15.191 -0.0000  0.5024 -0.3050
15362TIP3    H167577   4.240   4.572  15.147 -0.8971  2.6473 -0.9739
15362TIP3    H267578   4.094   4.614  15.157 -1.4104  0.3048  1.8709
15363TIP3   OH267579   3.869   0.229  11.811  0.1290  0.3251  0.0964
15363TIP3    H167580   3.884   0.145  11.856 -5.4957  0.4395  2.5542
15363TIP3    H267581   3.828   0.204  11.728  1.1141  0.5878 -0.4818
15364TIP3   OH267582   6.151   5.943  13.127 -0.0112 -0.6386 -0.6950
15364TIP3    H167583   6.144   5.849  13.109 -1.2420 -0.7399  0.2508
15364TIP3    H267584   6.069   5.965  13.170  0.6494  0.6984 -0.0967
15365TIP3   OH267585   2.268   0.571   1.448 -0.0286 -0.3247  0.1889
15365TIP3    H167586   2.259   0.635   1.518 -0.2011 -1.1745  0.9463
15365TIP3    H267587   2.355   0.533   1.461  0.2205 -0.0090 -0.4758
15366TIP3   OH267588   2.246   0.810  12.712 -0.2127 -0.0846  0.7324
15366TIP3    H167589   2.191   0.875  12.668 -0.4355 -0.7169  0.0538
15366TIP3    H267590   2.300   0.773  12.641  1.4456  0.8779  1.4669
15367TIP3   OH267591   2.117   2.845  13.180  0.4830  0.7300  0.1333
15367TIP3    H167592   2.099   2.792  13.258 -0.7473 -0.3302 -0.8539
15367TIP3    H267593   2.051   2.914  13.182 -1.3446 -0.9036 -1.4092
15368TIP3   OH267594   3.010   0.012  15.758 -0.3584  0.1577  0.1867
15368TIP3    H167595   3.019   0.026  15.664  0.9949 -0.1887  0.2525
15368TIP3    H267596   2.989   0.099  15.793  0.1113  0.4812 -0.3198
15369TIP3   OH267597   4.616   3.642   4.619 -0.0245  0.4568 -0.1713
15369TIP3    H167598   4.617   3.555   4.578  1.3596  0.7695 -0.8330
15369TIP3    H267599   4.605   3.703   4.547  0.8479  0.9274  0.0823
15370TIP3   OH267600   1.776   0.916  12.665  0.1601  0.0891  0.6937
15370TIP3    H167601   1.733   0.963  12.737  0.8157  1.1824  0.3827
15370TIP3    H267602   1.806   0.985  12.606  2.7155 -0.6248  1.1061
15371TIP3   OH267603   0.913   6.645  16.348 -0.7693 -0.0269  0.3857
15371TIP3    H167604   0.908   6.588  16.424 -1.0038 -1.5457 -0.7403
15371TIP3    H267605   0.822   6.669  16.328 -0.8884 -1.2231 -0.5722
15372TIP3   OH267606   0.022   6.642   2.988  0.2541  0.4256 -0.0656
15372TIP3    H167607  -0.031   6.659   3.066  0.4251  3.7186 -0.5998
15372TIP3    H267608  -0.042   6.626   2.919  0.0658 -0.6976  0.3663
15373TIP3   OH267609   5.590   1.683   5.432  0.1200  0.2634 -0.2019
15373TIP3    H167610   5.495   1.678   5.422  0.2869 -1.4159 -1.1255
15373TIP3    H267611   5.611   1.621   5.501  0.7864 -1.2449 -1.7351
15374TIP3   OH267612   2.495   0.610   3.137 -0.2990 -0.0560 -0.5058
15374TIP3    H167613   2.518   0.680   3.076  3.2912  0.1543  1.0074
15374TIP3    H267614   2.492   0.531   3.082  1.6664  0.3224 -1.1936
15375TIP3   OH267615   4.986   4.832  12.452  0.4384 -0.0134  0.4450
15375TIP3    H167616   5.082   4.833  12.455  0.4834 -2.3684  1.0231
15375TIP3    H267617   4.963   4.742  12.475 -1.9020  0.3786 -0.2665
15376TIP3   OH267618   4.089   3.622   1.730  0.2489 -0.2444  0.0850
15376TIP3    H167619   4.169   3.617   1.677  0.1838 -1.4528  0.0979
15376TIP3    H267620   4.121   3.626   1.820  0.3444  1.3289  0.0012
15377TIP3   OH267621   0.602   4.294   1.943  0.1976 -0.1057 -0.5775
15377TIP3    H167622   0.541   4.368   1.945 -0.6207 -0.7879  0.6514
15377TIP3    H267623   0.584   4.249   1.861  1.0144  1.3136 -1.5452
15378TIP3   OH267624   5.373   5.992  17.043 -0.1556 -0.4510  0.6450
15378TIP3    H167625   5.280   5.973  17.030  0.4531 -1.1455 -3.7297
15378TIP3    H267626   5.413   5.906  17.055  0.5716 -0.7951 -3.4124
15379TIP3   OH267627   4.211   4.888  10.579 -0.4224 -0.6414 -0.6462
15379TIP3    H167628   4.184   4.840  10.658 -0.5883  1.8954  0.9117
15379TIP3    H267629   4.131   4.895  10.527 -1.4927  1.6593  1.1789
15380TIP3   OH267630   4.728   4.783  14.897 -0.1888  0.3018  0.0656
15380TIP3    H167631   4.697   4.739  14.818  0.8173 -0.4408  0.0715
15380TIP3    H267632   4.710   4.875  14.882 -0.7952  0.0709 -0.6657
15381TIP3   OH267633   1.299   3.543  13.521 -0.1190 -0.0529 -0.1531
15381TIP3    H167634   1.243   3.619  13.507 -0.1527 -0.3045 -1.3942
15381TIP3    H267635   1.377   3.578  13.565 -1.3765  0.2423  1.9055
15382TIP3   OH267636   4.159   1.440  12.045 -0.0125  0.0343  0.4553
15382TIP3    H167637   4.213   1.464  11.970  1.6297 -0.3527  1.4632
15382TIP3    H267638   4.072   1.425  12.010  0.5749  0.5795 -1.2469
15383TIP3   OH267639   4.569   4.540  15.793  0.5331  0.4211  0.9074
15383TIP3    H167640   4.500   4.576  15.849  1.6051  0.1158  2.4459
15383TIP3    H267641   4.546   4.570  15.705 -1.7610  0.0105  1.3380
15384TIP3   OH267642   0.062   3.990   3.422  0.2680  0.6807  0.2237
15384TIP3    H167643  -0.005   3.947   3.369 -1.3240  1.9609  1.1055
15384TIP3    H267644   0.107   4.049   3.361 -0.0730  0.5170 -0.1869
15385TIP3   OH267645   1.520   5.977   6.222  0.6296  0.2273  0.1938
15385TIP3    H167646   1.437   5.937   6.247  1.1499 -1.7604 -1.1530
15385TIP3    H267647   1.497   6.037   6.151  0.1221  0.8712  0.9003
15386TIP3   OH267648   4.077   4.746   4.359 -0.0458  0.0346 -0.3158
15386TIP3    H167649   4.172   4.739   4.347 -0.2788 -0.9773 -1.6870
15386TIP3    H267650   4.064   4.736   4.454  1.2522  0.6640 -0.0652
15387TIP3   OH267651   5.935   5.906   1.785 -0.2847 -0.3829 -0.3790
15387TIP3    H167652   5.925   5.911   1.880  1.4568 -3.8132  0.0324
15387TIP3    H267653   5.847   5.923   1.751 -0.4117  3.6114  1.6556
15388TIP3   OH267654   3.502   4.151  15.251  0.1079  0.3724  0.4243
15388TIP3    H167655   3.419   4.184  15.218 -1.7152 -1.9665  2.5037
15388TIP3    H267656   3.494   4.156  15.346  2.0207 -0.5952  0.6649
15389TIP3   OH267657   6.101   4.543   3.642  0.1012 -0.5070  0.2666
15389TIP3    H167658   6.131   4.494   3.566  1.8681 -0.0053  0.6199
15389TIP3    H267659   6.181   4.563   3.691 -0.6951  1.7085  0.7368
15390TIP3   OH267660   2.722   0.394  17.106  0.2934 -0.1321 -0.4768
15390TIP3    H167661   2.754   0.483  17.093  1.3752 -0.3548  0.5604
15390TIP3    H267662   2.626   0.403  17.109  0.4164  1.0666  0.1737
15391TIP3   OH267663   4.713   4.844  12.741 -0.4188 -0.4983 -0.4100
15391TIP3    H167664   4.785   4.904  12.720 -1.5355  0.7899 -0.6056
15391TIP3    H267665   4.722   4.773  12.677  2.3499 -1.8231  1.3147
15392TIP3   OH267666   4.027   5.209  12.106 -0.0735 -0.3302 -0.3874
15392TIP3    H167667   4.051   5.244  12.192  0.0441 -1.2741 -0.0354
15392TIP3    H267668   4.072   5.266  12.044  1.2614 -0.7146  0.2112
15393TIP3   OH267669   3.478   5.796   4.948 -0.2644  0.0999 -0.0156
15393TIP3    H167670   3.432   5.712   4.946  0.9446 -0.6080  0.6941
15393TIP3    H267671   3.439   5.843   5.022 -1.1172  0.2609 -0.5700
15394TIP3   OH267672   5.106   5.959  12.897 -0.0773  0.2330 -0.2987
15394TIP3    H167673   5.086   5.977  12.805 -1.3655 -1.0677 -0.2963
15394TIP3    H267674   5.043   5.891  12.922  1.2349 -0.4871  1.1317
15395TIP3   OH267675   1.714   3.356  14.990 -0.4715  0.3892  0.2652
15395TIP3    H167676   1.758   3.322  15.068 -0.8362 -1.0062 -0.1182
15395TIP3    H267677   1.782   3.404  14.943  0.4401 -1.0219  0.1150
15396TIP3   OH267678   5.459   0.866  10.821  0.4339 -0.2536 -0.0695
15396TIP3    H167679   5.541   0.867  10.872  0.9054 -0.8573 -0.8028
15396TIP3    H267680   5.436   0.774  10.815 -0.3173 -0.0773  0.1541
15397TIP3   OH267681   5.991   1.723  15.582 -0.2684  0.4301 -0.1208
15397TIP3    H167682   6.018   1.670  15.507  0.5717 -0.6262  0.9190
15397TIP3    H267683   5.898   1.740  15.567 -0.5535 -1.3320 -0.4526
15398TIP3   OH267684   4.571   5.065   0.442 -0.2282  0.5362  0.1842
15398TIP3    H167685   4.539   4.984   0.482 -1.0437  0.9295  0.3366
15398TIP3    H267686   4.503   5.129   0.460  0.7649  1.4458  0.7168
15399TIP3   OH267687   3.770   1.621   2.632 -0.0094  0.3456 -0.5194
15399TIP3    H167688   3.831   1.675   2.683 -0.1922  1.0977 -1.0853
15399TIP3    H267689   3.811   1.535   2.627 -0.2426  0.1044  1.3691
15400TIP3   OH267690   3.596   6.196   3.723 -0.5648  0.3170 -0.0474
15400TIP3    H167691   3.520   6.240   3.764 -0.5881  0.0057  0.2490
15400TIP3    H267692   3.618   6.251   3.648 -1.3272  0.2031 -0.3592
15401TIP3   OH267693   6.245   3.471  15.668 -0.4129 -0.3227  0.4521
15401TIP3    H167694   6.290   3.547  15.705 -0.9157  0.2428 -0.0808
15401TIP3    H267695   6.283   3.396  15.714  4.9833 -0.3941 -3.5231
15402TIP3   OH267696   0.628   0.781  16.203  0.1883  0.7591 -0.1632
15402TIP3    H167697   0.685   0.765  16.279 -1.2886 -1.3580  0.5469
15402TIP3    H267698   0.609   0.875  16.207 -0.1932  0.6088  2.3514
15403TIP3   OH267699   1.540   6.212  15.496 -0.0043 -0.1538  0.1886
15403TIP3    H167700   1.456   6.248  15.467 -0.1131 -1.4885 -1.2239
15403TIP3    H267701   1.588   6.287  15.530  0.0746  1.5215 -3.3866
15404TIP3   OH267702   1.552   0.954  15.018  0.3396 -0.4589  0.1576
15404TIP3    H167703   1.545   0.982  14.927  0.7818 -1.1305 -0.0908
15404TIP3    H267704   1.639   0.983  15.045 -0.1229  0.5092  0.6444
15405TIP3   OH267705   6.114   4.868  13.538 -0.2613  0.2968  0.2254
15405TIP3    H167706   6.135   4.782  13.502  1.8549  1.3577 -1.1877
15405TIP3    H267707   6.055   4.849  13.611  0.0875 -2.3397 -0.1039
15406TIP3   OH267708   3.780   6.265  10.512  0.0165  0.5445 -0.3822
15406TIP3    H167709   3.872   6.242  10.504 -0.1470 -0.1383 -0.2939
15406TIP3    H267710   3.775   6.312  10.596 -0.1388 -1.6032  0.8554
15407TIP3   OH267711   3.937   4.401   0.370 -0.5199 -0.3640  0.4908
15407TIP3    H167712   3.873   4.372   0.306 -0.1339  1.5901 -0.8167
15407TIP3    H267713   3.909   4.489   0.396 -0.3098 -0.8543  2.5350
15408TIP3   OH267714   2.726   1.065   6.112 -0.1543  0.4666  0.5657
15408TIP3    H167715   2.691   1.149   6.080 -2.3537 -1.0581 -1.1397
15408TIP3    H267716   2.820   1.071   6.093 -0.3206  2.4264  0.1888
15409TIP3   OH267717   5.334   0.177   4.103  0.2156 -0.0223 -0.4764
15409TIP3    H167718   5.338   0.098   4.050  0.9860 -0.1386 -0.2461
15409TIP3    H267719   5.248   0.214   4.084  0.4150 -0.1469 -1.6896
15410TIP3   OH267720   1.557   5.248  10.952  0.0829  0.4772 -0.0154
15410TIP3    H167721   1.512   5.277  10.873 -0.8746  0.0897  0.3828
15410TIP3    H267722   1.645   5.284  10.943  0.3150 -0.4660 -1.7636
15411TIP3   OH267723   1.287   6.470   5.128  0.6334 -0.0331 -0.5382
15411TIP3    H167724   1.346   6.528   5.176 -1.5003  1.9250 -0.1973
15411TIP3    H267725   1.302   6.492   5.036  1.4297 -0.5409 -0.5353
15412TIP3   OH267726   3.070   2.738  11.016 -0.1938  0.5604  0.0895
15412TIP3    H167727   3.137   2.752  11.083 -0.2372  2.0526 -0.1463
15412TIP3    H267728   3.050   2.645  11.020  1.2145  0.2743  0.8136
15413TIP3   OH267729   6.326   1.033   5.692  0.1155 -0.1665  0.6216
15413TIP3    H167730   6.317   1.073   5.778 -0.9500 -0.2566  0.5566
15413TIP3    H267731   6.254   1.070   5.641  0.3681 -0.5929 -0.0462
15414TIP3   OH267732   0.845   1.298   1.869  0.3620 -0.0876  0.0391
15414TIP3    H167733   0.933   1.327   1.846  0.3464  0.2195  0.3685
15414TIP3    H267734   0.791   1.377   1.860  0.1302 -0.2600 -0.1032
15415TIP3   OH267735   1.645   6.432   5.849  0.5386  0.6113  0.1864
15415TIP3    H167736   1.650   6.501   5.783  0.9736  2.0185  1.6650
15415TIP3    H267737   1.683   6.471   5.928  1.9788 -1.7420  0.7025
15416TIP3   OH267738   2.538   1.054  11.083 -0.1332 -0.0432 -0.6013
15416TIP3    H167739   2.599   0.985  11.109 -0.5481 -0.6530 -1.2279
15416TIP3    H267740   2.594   1.129  11.062  0.3127 -0.1471  0.1714
15417TIP3   OH267741   3.142   2.523   5.991 -0.3106  0.0441 -0.2653
15417TIP3    H167742   3.166   2.529   6.083 -1.4599 -0.2838  0.0697
15417TIP3    H267743   3.189   2.595   5.948  0.8214 -0.2654  0.4407
15418TIP3   OH267744   5.162   1.991   6.820 -0.1991 -0.2253  1.2954
15418TIP3    H167745   5.103   1.917   6.802 -1.0820  1.2572 -2.4781
15418TIP3    H267746   5.105   2.068   6.813  1.4616  1.0225  1.3451
15419TIP3   OH267747   0.374   5.509  13.269  0.2956 -0.4330 -0.8507
15419TIP3    H167748   0.438   5.437  13.262 -1.0135 -1.8738  1.4122
15419TIP3    H267749   0.375   5.533  13.362 -3.8609 -1.8353 -0.3590
15420TIP3   OH267750   1.470   5.720  15.148 -0.1937  0.4955  0.1813
15420TIP3    H167751   1.545   5.751  15.097 -0.6185 -0.3928 -0.9988
15420TIP3    H267752   1.452   5.792  15.208 -1.0606  2.5553 -2.4329
15421TIP3   OH267753   4.969   3.610   2.036 -0.1886 -0.0059 -0.1638
15421TIP3    H167754   4.960   3.575   2.125 -3.1837 -1.6703 -1.0666
15421TIP3    H267755   5.063   3.607   2.019  0.4398  0.4029  2.9609
15422TIP3   OH267756   1.474   4.587  11.856 -0.0073 -0.0306 -0.3621
15422TIP3    H167757   1.550   4.639  11.883  0.6603 -1.0104 -0.3150
15422TIP3    H267758   1.421   4.579  11.935  0.4722 -0.4089 -0.0767
15423TIP3   OH267759   5.099   2.546  11.591  0.0220 -0.0335  0.2139
15423TIP3    H167760   5.163   2.519  11.657  1.6911  2.8753 -0.1591
15423TIP3    H267761   5.084   2.639  11.608 -2.6638 -0.2244 -0.9205
15424TIP3   OH267762   2.957   2.081   1.061 -0.7413 -0.3198 -0.2547
15424TIP3    H167763   2.945   2.005   1.004 -0.5018  0.1759 -0.9783
15424TIP3    H267764   2.877   2.085   1.114 -2.1367  0.7023 -2.3443
15425TIP3   OH267765   4.798   1.486  13.216 -0.1613  0.0315  0.1842
15425TIP3    H167766   4.799   1.483  13.120  2.1422 -2.1845  0.2203
15425TIP3    H267767   4.868   1.546  13.239  1.3317 -1.7964  0.4933
15426TIP3   OH267768   0.633   0.156   4.186 -0.4503 -0.2298  0.2918
15426TIP3    H167769   0.583   0.236   4.199  0.7826  0.7569 -0.7748
15426TIP3    H267770   0.721   0.187   4.164  0.3274 -1.8990  0.9746
15427TIP3   OH267771   3.136   4.952  14.760  0.4907  0.0043  0.0029
15427TIP3    H167772   3.224   4.930  14.729  0.1820  1.7708 -2.3075
15427TIP3    H267773   3.100   5.010  14.692 -2.7671 -1.3138  0.4775
15428TIP3   OH267774   5.262   5.478  17.197  0.2321 -0.0517 -0.3037
15428TIP3    H167775   5.223   5.526  17.270 -1.5804  2.0244 -2.5949
15428TIP3    H267776   5.234   5.387  17.211  0.5205  0.1666  1.9562
15429TIP3   OH267777   6.238   2.571   0.876  0.0661 -0.1163  0.0641
15429TIP3    H167778   6.237   2.481   0.844 -0.1695 -0.5112  1.1317
15429TIP3    H267779   6.283   2.565   0.961 -0.6715  0.6346  0.5097
15430TIP3   OH267780   6.195   4.087  12.355  0.5249  0.1301  0.1467
15430TIP3    H167781   6.256   4.019  12.382 -0.1072 -0.2284  0.7095
15430TIP3    H267782   6.176   4.135  12.436  0.2884  0.4215 -0.0790
15431TIP3   OH267783   4.979   3.298  13.757  0.1061  0.1549 -0.0586
15431TIP3    H167784   4.956   3.365  13.691  0.1578  0.3507  0.1240
15431TIP3    H267785   4.956   3.338  13.841  1.1365  0.3623  0.1309
15432TIP3   OH267786   6.282   5.459   0.488 -0.4715  0.1705 -0.2300
15432TIP3    H167787   6.243   5.505   0.413  0.5921 -0.3884 -1.1223
15432TIP3    H267788   6.368   5.431   0.458 -0.3151 -0.6826  0.9751
15433TIP3   OH267789   1.243   0.895   0.857  0.6872 -0.2360  0.0158
15433TIP3    H167790   1.225   0.846   0.938  0.2171  0.1925  0.1770
15433TIP3    H267791   1.176   0.864   0.796  1.2603 -0.8187 -0.3255
15434TIP3   OH267792   0.412   0.238  12.129  0.1327 -0.5491  0.9752
15434TIP3    H167793   0.500   0.270  12.110  0.1674 -1.1927  0.0148
15434TIP3    H267794   0.422   0.143  12.137 -0.6148 -0.7107  0.0313
15435TIP3   OH267795   3.721   1.928  14.289  0.4779 -0.3291  0.8510
15435TIP3    H167796   3.764   1.902  14.371  1.1752 -1.3764  0.1527
15435TIP3    H267797   3.627   1.924  14.310  0.6636  0.2062  1.8366
15436TIP3   OH267798   0.386   2.636  16.677 -0.5125  0.7288  0.5059
15436TIP3    H167799   0.408   2.670  16.590 -1.6954 -0.6493 -0.3629
15436TIP3    H267800   0.327   2.563  16.660  2.6471 -2.4032  2.2527
15437TIP3   OH267801   4.041   0.960  14.991  0.1326  0.2983 -0.1570
15437TIP3    H167802   4.104   0.931  15.057  1.9585  2.1547 -1.0178
15437TIP3    H267803   4.016   1.048  15.019 -0.0638  0.5888 -1.2401
15438TIP3   OH267804   6.072   1.089   3.472  0.6331  0.2839 -0.0961
15438TIP3    H167805   6.008   1.023   3.501 -0.1682  0.3774 -1.5974
15438TIP3    H267806   6.097   1.061   3.384  1.0675  1.4097 -0.3334
15439TIP3   OH267807   0.975   0.926  14.468 -0.1075  0.1416  0.0895
15439TIP3    H167808   1.002   0.911  14.559  1.4423 -2.1315 -0.7201
15439TIP3    H267809   0.880   0.922  14.470 -0.0651 -0.4333  1.5184
15440TIP3   OH267810   3.843   2.224  13.664 -0.5628  0.3253 -0.3091
15440TIP3    H167811   3.869   2.316  13.668  0.3441  0.0466  0.4740
15440TIP3    H267812   3.751   2.226  13.640 -0.3865  1.4207 -0.9209
15441TIP3   OH267813   6.737   4.466   0.910 -0.0690 -0.0438  0.3451
15441TIP3    H167814   6.791   4.490   0.835 -0.7507  1.4703  0.3176
15441TIP3    H267815   6.776   4.513   0.983  1.2130 -2.3241  1.1668
15442TIP3   OH267816   0.192   1.295  10.803  0.1004  0.0941  0.1011
15442TIP3    H167817   0.262   1.347  10.764  0.5897  0.4042  1.3850
15442TIP3    H267818   0.121   1.298  10.738  0.4001  1.7330 -0.1661
15443TIP3   OH267819   4.628   6.758  15.188  0.7312  0.1198 -0.2731
15443TIP3    H167820   4.707   6.705  15.184  0.8015 -0.0208  2.2195
15443TIP3    H267821   4.654   6.836  15.236 -0.8024 -0.3054  1.3172
15444TIP3   OH267822   5.688   0.939   5.338  0.1781 -0.0403 -0.1252
15444TIP3    H167823   5.746   1.000   5.294 -0.3969  1.4802  1.1904
15444TIP3    H267824   5.743   0.894   5.402 -0.1018  1.4419  1.1627
15445TIP3   OH267825   6.522   3.358  15.171  0.2721 -0.1014 -0.3530
15445TIP3    H167826   6.562   3.442  15.150  0.7391  0.2204  1.6735
15445TIP3    H267827   6.452   3.379  15.233 -0.1388 -1.1146 -0.4684
15446TIP3   OH267828   4.440   1.039  16.257 -0.3822 -0.6545 -0.1602
15446TIP3    H167829   4.371   1.106  16.256 -0.9900 -1.2793 -0.5736
15446TIP3    H267830   4.463   1.027  16.165  1.4481  0.7337  0.1032
15447TIP3   OH267831   5.422   1.187  11.249 -0.0456  0.2024 -0.4462
15447TIP3    H167832   5.386   1.116  11.302  1.1546  0.5827  0.8817
15447TIP3    H267833   5.420   1.152  11.159  2.4674 -2.3590  0.4079
15448TIP3   OH267834   5.002   5.421   0.362  0.5110 -0.1328  0.1176
15448TIP3    H167835   5.065   5.486   0.333  2.3014 -0.6524  2.6138
15448TIP3    H267836   5.019   5.344   0.307  1.0853  0.2079 -0.1786
15449TIP3   OH267837   5.565   0.381  15.936  0.6368  0.0301  0.0487
15449TIP3    H167838   5.571   0.453  15.998 -0.6116  0.1932  0.0018
15449TIP3    H267839   5.641   0.327  15.954 -0.0712 -0.2978  2.2048
15450TIP3   OH267840   0.213   4.253  12.502 -0.4363 -0.8191 -0.2877
15450TIP3    H167841   0.184   4.252  12.593 -0.1850 -0.0216 -0.1903
15450TIP3    H267842   0.309   4.258  12.508 -0.3601 -1.9380 -0.5973
15451TIP3   OH267843   0.971   1.340  15.793  0.5193 -0.3797  0.0116
15451TIP3    H167844   0.937   1.262  15.749 -1.0230 -0.0721  0.6232
15451TIP3    H267845   1.019   1.306  15.868 -0.1962 -0.7634  0.3059
15452TIP3   OH267846   4.878   2.649  10.751 -0.0646  0.4818  0.0317
15452TIP3    H167847   4.896   2.743  10.746  0.0715  0.4057 -1.0278
15452TIP3    H267848   4.786   2.644  10.774 -0.0738  0.8799  0.0969
15453TIP3   OH267849   2.423   5.617   1.696  0.1109 -0.6989 -0.6279
15453TIP3    H167850   2.447   5.702   1.661  1.2935 -0.0018  1.7695
15453TIP3    H267851   2.495   5.559   1.671 -0.3589 -0.8432 -1.6601
15454TIP3   OH267852   4.238   3.595   2.181  0.4928  0.3682  0.6278
15454TIP3    H167853   4.332   3.581   2.174  0.5193  0.2514  1.2175
15454TIP3    H267854   4.201   3.507   2.191  0.1955  0.2909 -0.9595
15455TIP3   OH267855   1.275   0.014   2.212 -0.1316 -0.3901  0.2717
15455TIP3    H167856   1.239   0.010   2.301 -1.3770  0.8456 -0.1583
15455TIP3    H267857   1.245  -0.067   2.171 -1.7159  0.2234  0.1921
15456TIP3   OH267858   4.995   4.264   3.714 -0.1331  0.0129 -0.3633
15456TIP3    H167859   4.962   4.251   3.803 -0.4198 -1.0338 -0.6126
15456TIP3    H267860   5.089   4.280   3.725  0.1193 -1.6490  0.0265
15457TIP3   OH267861   1.610   5.420  14.101 -1.0494  0.3711  0.1033
15457TIP3    H167862   1.548   5.379  14.042 -0.6349  3.0412 -2.2941
15457TIP3    H267863   1.557   5.476  14.157 -1.0323  0.9666 -0.4735
15458TIP3   OH267864   6.192   5.338   3.821 -0.0359  0.4020  0.6038
15458TIP3    H167865   6.239   5.378   3.895 -0.5022  1.0918  0.5304
15458TIP3    H267866   6.105   5.378   3.824 -1.4974 -2.7841  2.3033
15459TIP3   OH267867   6.696   4.798  14.129 -0.3529  0.0241  0.2873
15459TIP3    H167868   6.616   4.779  14.079 -0.0437  2.4360 -1.2468
15459TIP3    H267869   6.713   4.891  14.111  1.8390 -0.0131  1.9824
15460TIP3   OH267870   4.250   2.017  14.823 -0.0314 -0.2691 -0.0567
15460TIP3    H167871   4.244   1.940  14.879 -1.2670 -1.4396 -1.7856
15460TIP3    H267872   4.267   1.983  14.735  0.1018  1.4564 -0.7258
15461TIP3   OH267873   2.947   0.270   6.501  0.5864 -0.0999 -1.2264
15461TIP3    H167874   2.988   0.184   6.509  0.8556  0.0197 -1.3213
15461TIP3    H267875   3.009   0.330   6.542 -0.0921 -0.0944 -0.1874
15462TIP3   OH267876   5.213   5.683  16.687 -0.0781  0.0515 -0.4069
15462TIP3    H167877   5.168   5.602  16.664  1.0996 -0.6427 -0.2853
15462TIP3    H267878   5.181   5.704  16.775  0.7125 -1.0724  0.1558
15463TIP3   OH267879   5.508   3.374   6.040 -0.2877  0.2946 -0.2738
15463TIP3    H167880   5.480   3.302   6.096 -0.5450  0.1812 -0.5475
15463TIP3    H267881   5.552   3.332   5.967  0.7359  0.4782  0.2249
15464TIP3   OH267882   6.465   5.515  11.526 -0.1677 -0.0173 -0.4569
15464TIP3    H167883   6.378   5.526  11.567 -0.5455  0.7781 -1.4532
15464TIP3    H267884   6.453   5.545  11.437  1.2086  0.2864 -0.5414
15465TIP3   OH267885   4.519   2.854   3.270 -0.3439 -0.2592  0.2774
15465TIP3    H167886   4.570   2.907   3.209 -0.0523  0.7194  1.3581
15465TIP3    H267887   4.459   2.916   3.312 -0.8744 -1.0099  0.6525
15466TIP3   OH267888   2.115   2.322  14.781 -0.6948 -0.1041 -0.1030
15466TIP3    H167889   2.197   2.276  14.766 -0.4074 -0.0655  1.2721
15466TIP3    H267890   2.114   2.392  14.716  0.6459  0.2631  0.2568
15467TIP3   OH267891   0.767   2.209   0.580  0.3175  0.0899  1.2518
15467TIP3    H167892   0.733   2.287   0.623 -1.3921 -1.1218  2.1556
15467TIP3    H267893   0.716   2.137   0.618 -0.2304 -1.1585 -1.7585
15468TIP3   OH267894   4.235   0.292   3.707 -0.0566 -0.2874 -0.5141
15468TIP3    H167895   4.192   0.332   3.631 -1.1675 -3.1556 -1.4772
15468TIP3    H267896   4.183   0.322   3.782 -1.1093 -0.2156 -1.2565
15469TIP3   OH267897   4.658   1.972  11.353  0.8014 -0.6107  0.3017
15469TIP3    H167898   4.570   1.935  11.360  0.5463  0.1420  1.1981
15469TIP3    H267899   4.657   2.048  11.412  1.1884  1.0807 -1.8024
15470TIP3   OH267900   3.492   5.268   4.964  0.4759  0.3957  0.0966
15470TIP3    H167901   3.585   5.274   4.988  0.7594 -1.5708 -0.4315
15470TIP3    H267902   3.492   5.223   4.880 -1.0113 -0.4886  0.5562
15471TIP3   OH267903   6.274   2.584   1.154  0.0976  0.7018 -0.5534
15471TIP3    H167904   6.318   2.502   1.176 -0.3242  0.2155 -1.5508
15471TIP3    H267905   6.327   2.651   1.198  2.2607  0.1847 -2.2728
15472TIP3   OH267906   0.926   2.924   6.744  0.5126 -0.6318 -0.6940
15472TIP3    H167907   1.012   2.953   6.713  0.7959 -0.9115 -0.1587
15472TIP3    H267908   0.873   3.004   6.744  1.0623 -0.2630 -0.0207
15473TIP3   OH267909   6.681   6.315   3.478  0.4703  0.8714 -0.5521
15473TIP3    H167910   6.735   6.252   3.431  0.8168  0.8432 -0.1241
15473TIP3    H267911   6.706   6.400   3.442 -1.7954  0.6091 -2.9260
15474TIP3   OH267912   0.262   3.998  15.808 -0.0173  0.6052  0.4798
15474TIP3    H167913   0.176   4.020  15.772  0.7072  1.6260 -0.6941
15474TIP3    H267914   0.263   3.903  15.813 -1.0328  0.5662  0.0287
15475TIP3   OH267915   3.112   1.612   0.524 -0.2110 -0.2561  0.7293
15475TIP3    H167916   3.185   1.613   0.586 -0.2941 -0.9422  0.8376
15475TIP3    H267917   3.150   1.648   0.443  0.6949 -2.1544  0.2929
15476TIP3   OH267918   4.305   1.456  13.737  0.2853 -0.2226  0.5163
15476TIP3    H167919   4.382   1.402  13.720  0.1234 -0.3337  0.1313
15476TIP3    H267920   4.333   1.517  13.805  0.1663 -1.4533  1.6930
15477TIP3   OH267921   5.521   0.868   5.123 -0.3425  0.2744  0.0279
15477TIP3    H167922   5.458   0.931   5.089 -0.4168  0.2103  0.0448
15477TIP3    H267923   5.574   0.917   5.186 -0.5887  0.2483  0.2586
15478TIP3   OH267924   6.243   6.237   2.663 -0.5200 -0.2575 -0.0687
15478TIP3    H167925   6.211   6.188   2.739 -0.8681  0.8802  0.5296
15478TIP3    H267926   6.180   6.218   2.594  0.3767 -2.1576 -0.4115
15479TIP3   OH267927   3.496   6.360  16.245 -0.1276  0.8502 -0.6243
15479TIP3    H167928   3.446   6.288  16.207 -0.2560  0.7467 -0.2581
15479TIP3    H267929   3.448   6.383  16.325  1.5072 -0.5999  0.8159
15480TIP3   OH267930   2.985   5.720  15.824 -0.1469 -0.5970  0.4684
15480TIP3    H167931   2.905   5.759  15.790  0.1915 -0.6430 -0.4104
15480TIP3    H267932   3.002   5.766  15.906 -0.0840  0.6975 -0.2484
15481TIP3   OH267933   0.495   4.954   0.321  0.2157 -0.7956 -0.3193
15481TIP3    H167934   0.568   5.012   0.342 -0.5227 -0.5867  1.7174
15481TIP3    H267935   0.534   4.868   0.313  0.3952 -1.0473  2.9124
15482TIP3   OH267936   4.086   2.648   2.844  0.0894 -0.1756  0.2498
15482TIP3    H167937   4.163   2.697   2.872 -0.0647  0.0789  0.2279
15482TIP3    H267938   4.012   2.705   2.865  0.0453  0.7136 -2.0799
15483TIP3   OH267939   4.012   0.800   0.226 -0.0498  0.5058  0.7410
15483TIP3    H167940   3.926   0.841   0.231 -0.0898  0.7600 -1.4932
15483TIP3    H267941   3.996   0.713   0.191  0.8864  1.8253 -3.2491
15484TIP3   OH267942   5.171   3.979   1.428 -0.0166  0.3922  0.1938
15484TIP3    H167943   5.205   3.988   1.517  0.5367 -2.3062  0.3030
15484TIP3    H267944   5.225   4.039   1.376  0.5402  1.0090  1.4602
15485TIP3   OH267945   0.169   0.133   0.992  0.0934  0.5651 -0.0712
15485TIP3    H167946   0.140   0.122   0.902 -0.1226 -1.1949  0.2101
15485TIP3    H267947   0.137   0.056   1.038  0.7706  1.1229  1.3784
15486TIP3   OH267948   5.047   2.327  12.218 -0.0821  0.3315  0.2359
15486TIP3    H167949   4.957   2.300  12.203  0.4226 -1.1638 -0.1856
15486TIP3    H267950   5.053   2.415  12.180 -1.1736  0.1688 -0.3205
15487TIP3   OH267951   4.419   4.869   0.589 -0.0058  0.3439  0.2703
15487TIP3    H167952   4.467   4.800   0.544 -0.7090 -0.4056  0.6547
15487TIP3    H267953   4.467   4.882   0.671  1.8569  2.4114 -1.1190
15488TIP3   OH267954   4.192   2.678  15.394  0.1570 -0.0092  0.1327
15488TIP3    H167955   4.260   2.710  15.453 -0.0836  0.3956  0.1901
15488TIP3    H267956   4.240   2.635  15.323  0.4374 -0.9425  0.8704
15489TIP3   OH267957   4.543   0.247   5.422  0.6627  0.0509 -0.2460
15489TIP3    H167958   4.509   0.267   5.509 -0.6839  1.2133 -1.0207
15489TIP3    H267959   4.628   0.205   5.438  1.3792  2.0957  1.5978
15490TIP3   OH267960   1.552   5.514  15.827 -0.2273 -0.0211  0.4292
15490TIP3    H167961   1.612   5.469  15.768  0.5682  1.9019 -0.2633
15490TIP3    H267962   1.552   5.460  15.907  1.3278 -0.7902 -0.0724
15491TIP3   OH267963   5.239   4.534   4.373  0.6856 -0.0155  0.1222
15491TIP3    H167964   5.204   4.623   4.370 -1.3801 -0.7204  1.8243
15491TIP3    H267965   5.174   4.482   4.325  0.5547 -1.0038  1.3630
15492TIP3   OH267966   4.077   0.494   4.000  0.4296 -0.2232  0.2108
15492TIP3    H167967   4.152   0.436   4.016  1.5756  1.5827  1.5944
15492TIP3    H267968   4.083   0.560   4.068 -0.1816  2.1848 -1.9924
15493TIP3   OH267969   2.762   5.293  10.877 -0.2115 -0.1314  0.4606
15493TIP3    H167970   2.673   5.315  10.906 -1.2747 -4.0798  0.4085
15493TIP3    H267971   2.759   5.303  10.782 -0.1706  1.0480  0.5715
15494TIP3   OH267972   6.316   0.119   5.083 -0.4817  0.2568 -0.5377
15494TIP3    H167973   6.241   0.119   5.023 -1.4868  0.1153  0.6782
15494TIP3    H267974   6.288   0.061   5.155 -0.0048  1.7786  0.8938
15495TIP3   OH267975   0.117   3.945   2.583 -0.0342 -0.1107  0.7227
15495TIP3    H167976   0.040   3.931   2.639  0.2223 -0.7020  0.9214
15495TIP3    H267977   0.182   3.884   2.615 -0.5237 -1.8278 -1.4317
15496TIP3   OH267978   3.021   2.830   4.429  0.5633 -0.3479  0.1354
15496TIP3    H167979   3.035   2.736   4.441 -1.4040 -0.4661  1.9957
15496TIP3    H267980   2.959   2.836   4.356  0.6853 -0.4908  0.0204
15497TIP3   OH267981   2.636   1.888   0.916  0.0177  0.4475 -0.0264
15497TIP3    H167982   2.669   1.946   0.846 -1.2696 -0.0317 -1.0449
15497TIP3    H267983   2.571   1.941   0.962  0.4730  0.5779  0.4653
15498TIP3   OH267984   5.107   1.850   1.610  0.2288 -0.0814  0.4268
15498TIP3    H167985   5.141   1.866   1.522  0.9502  1.3945  0.9542
15498TIP3    H267986   5.178   1.876   1.668 -1.0728  1.1801  1.4964
15499TIP3   OH267987   4.337   6.708  16.746  0.5340 -0.7139  0.4965
15499TIP3    H167988   4.334   6.784  16.689  1.7661 -0.5897  0.5855
15499TIP3    H267989   4.247   6.674  16.746 -0.7193  2.3871  2.7094
15500TIP3   OH267990   3.786   6.618   0.825  0.4370  0.4983 -0.0585
15500TIP3    H167991   3.750   6.597   0.739  2.6879  1.1035 -1.1871
15500TIP3    H267992   3.769   6.711   0.837 -2.0083 -0.0909  1.2267
15501TIP3   OH267993   3.545   0.156   3.813  0.5664  0.0372  0.1001
15501TIP3    H167994   3.623   0.128   3.766 -0.0542 -2.1048  0.2678
15501TIP3    H267995   3.562   0.130   3.904 -0.3764 -0.5516  0.1129
15502TIP3   OH267996   6.773   0.603  11.790  0.3625  0.7413 -0.8532
15502TIP3    H167997   6.804   0.514  11.772  0.6793  0.9353 -1.2581
15502TIP3    H267998   6.810   0.656  11.720  0.1171  1.1847 -0.6458
15503TIP3   OH267999   5.246   6.290  12.265  0.7584 -0.6462 -0.3389
15503TIP3    H168000   5.200   6.368  12.298 -0.7549 -2.0841  1.0802
15503TIP3    H268001   5.200   6.267  12.185  1.5744  0.2266 -1.0761
15504TIP3   OH268002   6.766   5.912   5.382  0.8926 -0.5483  0.6757
15504TIP3    H168003   6.677   5.947   5.376 -0.2524 -3.6418 -2.8147
15504TIP3    H268004   6.777   5.887   5.474 -1.3481  1.1044  1.4139
15505TIP3   OH268005   1.697   0.695  13.454  0.3071 -0.0657  0.2655
15505TIP3    H168006   1.640   0.691  13.378  1.2593 -1.2382 -0.4205
15505TIP3    H268007   1.651   0.647  13.522  1.1269 -2.3716 -0.7578
15506TIP3   OH268008   1.287   6.297   6.437 -0.1726 -0.2083  0.4259
15506TIP3    H168009   1.380   6.278   6.449 -0.5092 -1.5359  1.0108
15506TIP3    H268010   1.261   6.245   6.361 -0.6237 -0.4892  0.7671
15507TIP3   OH268011   4.771   6.797   2.815  0.2419  0.0337  0.7562
15507TIP3    H168012   4.680   6.824   2.827  0.8002  2.1662  0.4887
15507TIP3    H268013   4.770   6.702   2.825 -2.4261 -0.2831 -1.8690
15508TIP3   OH268014   3.388   6.311   4.418 -0.1131  0.1132 -0.1417
15508TIP3    H168015   3.463   6.303   4.477 -0.2923 -0.5630 -0.0010
15508TIP3    H268016   3.417   6.269   4.337  0.0457  0.8232 -0.4571
15509TIP3   OH268017   4.559   4.613  14.691 -0.2039  0.3672 -0.0178
15509TIP3    H168018   4.631   4.576  14.640 -0.9258 -0.5267 -0.3999
15509TIP3    H268019   4.493   4.545  14.693 -1.0877  1.2161  0.2585
15510TIP3   OH268020   2.947   3.410  15.292  0.2150  0.1898 -0.1907
15510TIP3    H168021   2.996   3.450  15.363 -0.3481  0.4134  0.0786
15510TIP3    H268022   2.865   3.460  15.288 -0.1903 -0.4768 -0.3215
15511TIP3   OH268023   5.842   4.541  13.456  0.3133  0.1632 -0.3165
15511TIP3    H168024   5.788   4.479  13.406  0.8408  0.8071 -1.6996
15511TIP3    H268025   5.807   4.536  13.545  0.5769 -2.4034 -0.3078
15512TIP3   OH268026   5.855   4.229  14.884 -0.0123 -0.7187 -0.9073
15512TIP3    H168027   5.944   4.250  14.856  0.1516  0.6972  0.6278
15512TIP3    H268028   5.799   4.293  14.839 -0.0037 -0.0768 -0.0199
15513TIP3   OH268029   3.258   4.281  15.189 -0.4653 -0.6918  0.5942
15513TIP3    H168030   3.269   4.351  15.254 -0.9231 -1.9697  2.0957
15513TIP3    H268031   3.272   4.323  15.105  3.2038  0.4033  1.6758
15514TIP3   OH268032   3.034   5.485  16.665 -0.5770 -0.2602 -0.2542
15514TIP3    H168033   2.960   5.435  16.698 -0.0141  0.2870  1.8935
15514TIP3    H268034   3.015   5.576  16.688  0.1198  0.0496 -0.8741
15515TIP3   OH268035   5.626   1.392  11.678  0.6805  0.5573 -0.1664
15515TIP3    H168036   5.548   1.442  11.698  0.1414  0.1213 -1.1536
15515TIP3    H268037   5.629   1.324  11.745 -0.8043 -0.5431 -1.1656
15516TIP3   OH268038   6.032   0.515  11.669  0.3285  0.2570  0.3069
15516TIP3    H168039   6.086   0.540  11.594 -1.2715  0.4648 -0.8031
15516TIP3    H268040   6.074   0.557  11.744  0.3881  2.3670 -0.8679
15517TIP3   OH268041   4.965   3.123  16.868 -0.0116  0.3383 -0.2867
15517TIP3    H168042   5.021   3.059  16.826  0.8571  1.4819 -0.8933
15517TIP3    H268043   5.002   3.135  16.955 -0.4149 -0.2777 -0.0283
15518TIP3   OH268044   1.085   6.750   2.840  0.7302 -0.1364 -0.5179
15518TIP3    H168045   1.020   6.817   2.862  0.4012 -0.0947 -1.6105
15518TIP3    H268046   1.059   6.674   2.892 -0.2176 -0.1311 -0.9685
15519TIP3   OH268047   4.788   6.809  12.436 -0.1590 -0.3862  0.1592
15519TIP3    H168048   4.817   6.762  12.357  1.8179 -1.4270  1.4480
15519TIP3    H268049   4.769   6.739  12.499  0.4782  0.4872  1.3306
15520TIP3   OH268050   1.284   1.613   5.056  0.4577 -0.3836 -0.1890
15520TIP3    H168051   1.290   1.530   5.008  2.6808 -0.9671  1.0550
15520TIP3    H268052   1.364   1.660   5.032 -0.7921  1.4318 -0.8978
15521TIP3   OH268053   2.745   2.510  16.498 -0.0483  0.4524  0.0929
15521TIP3    H168054   2.799   2.585  16.523  0.4110 -0.2499  1.2630
15521TIP3    H268055   2.770   2.492  16.407  1.8464  0.0331  0.6700
15522TIP3   OH268056   3.294   2.021  11.861  0.1615  0.0661  0.1632
15522TIP3    H168057   3.387   2.043  11.876  0.5252  0.2532 -2.1496
15522TIP3    H268058   3.250   2.047  11.942  1.7014  2.6782  0.2247
15523TIP3   OH268059   4.493   4.785   5.534  0.0592  0.0376  0.2561
15523TIP3    H168060   4.580   4.809   5.505 -0.1619  0.2796 -0.2172
15523TIP3    H268061   4.498   4.690   5.550  0.2595 -0.0471 -0.2980
15524TIP3   OH268062   5.846   5.683  14.186  0.0968 -0.0444  0.2931
15524TIP3    H168063   5.937   5.675  14.157  0.2853  2.3702  0.1283
15524TIP3    H268064   5.843   5.768  14.231 -3.0206  1.8536 -3.2536
15525TIP3   OH268065   6.401   4.130  14.039 -0.2967  0.0975  0.0642
15525TIP3    H168066   6.473   4.084  13.997  0.0571  0.8842 -0.1851
15525TIP3    H268067   6.347   4.162  13.966  0.8569  2.3420  0.1421
15526TIP3   OH268068   3.341   4.145   5.739 -0.0835  0.4716 -0.3081
15526TIP3    H168069   3.348   4.238   5.719 -0.5024  0.6584  0.3595
15526TIP3    H268070   3.431   4.115   5.750  0.0041  1.1051  0.7806
15527TIP3   OH268071   3.168   2.290  11.388 -0.3470  0.0360  0.2500
15527TIP3    H168072   3.179   2.384  11.403  1.6196  0.1578 -1.6456
15527TIP3    H268073   3.222   2.248  11.454 -1.4575  0.2011  1.2857
15528TIP3   OH268074   4.030   6.602   5.537  0.0488 -0.0901 -0.6723
15528TIP3    H168075   4.049   6.692   5.508 -0.0733 -0.0822 -0.7285
15528TIP3    H268076   4.067   6.547   5.468 -2.1684 -0.0225 -1.9481
15529TIP3   OH268077   1.730   3.926  16.120 -0.0279 -0.2335  0.0103
15529TIP3    H168078   1.766   3.929  16.208  2.2994 -0.2023 -0.9077
15529TIP3    H268079   1.692   4.014  16.107  0.8153  0.2076  0.4841
15530TIP3   OH268080   0.082   6.705  14.931 -0.2410  0.0048  0.1873
15530TIP3    H168081   0.120   6.757  14.859 -0.7196  0.3060  0.1557
15530TIP3    H268082   0.134   6.625  14.931 -0.1120  0.0825 -0.3748
15531TIP3   OH268083   1.488   2.039  13.173  0.3218  0.2836 -0.4309
15531TIP3    H168084   1.439   1.959  13.154 -2.5506  1.5972  1.1283
15531TIP3    H268085   1.558   2.012  13.231 -0.7963 -1.0898  0.2969
15532TIP3   OH268086   4.463   1.127   4.315 -0.5156 -0.4285  0.7469
15532TIP3    H168087   4.532   1.191   4.300 -1.9288  0.7928 -0.9239
15532TIP3    H268088   4.481   1.091   4.401  2.6906 -0.7912 -0.0112
15533TIP3   OH268089   4.039   2.431   4.470  0.0609 -0.8125  0.9025
15533TIP3    H168090   4.075   2.343   4.479 -0.1654 -0.9232  0.7342
15533TIP3    H268091   4.026   2.442   4.376  1.1619 -0.1671  0.8163
15534TIP3   OH268092   2.962   1.457   6.270 -0.2347  0.7487 -0.1197
15534TIP3    H168093   3.025   1.512   6.316  0.6173 -1.2622  1.1632
15534TIP3    H268094   2.882   1.463   6.322 -0.0812  0.5787  0.1327
15535TIP3   OH268095   0.246   2.024  15.542  0.0730  0.0187 -0.0244
15535TIP3    H168096   0.288   2.008  15.457  2.6507  3.8981  0.3991
15535TIP3    H268097   0.183   2.094  15.525 -0.1863  0.0576  1.0552
15536TIP3   OH268098   2.083   4.808  13.941 -1.0984 -0.1371 -0.4310
15536TIP3    H168099   2.016   4.870  13.910 -0.3656  0.2127 -1.3234
15536TIP3    H268100   2.146   4.803  13.870  0.3338  0.2593  0.7906
15537TIP3   OH268101   5.727   0.535   0.006 -0.1816 -0.0440  0.4558
15537TIP3    H168102   5.759   0.606  -0.050 -0.1680  0.7768  1.4925
15537TIP3    H268103   5.709   0.463  -0.055 -0.0701  0.8009 -0.5948
15538TIP3   OH268104   3.711   4.352  14.182  0.2865  0.1506  0.3184
15538TIP3    H168105   3.701   4.274  14.237  0.7733 -0.3397 -0.2816
15538TIP3    H268106   3.720   4.424  14.245  0.5045 -0.3635  0.8861
15539TIP3   OH268107   2.360   4.275   3.266  0.2095 -0.6012  0.4315
15539TIP3    H168108   2.295   4.305   3.328 -0.1567  1.2021 -0.7755
15539TIP3    H268109   2.309   4.239   3.193  0.6006 -1.2593  0.4818
15540TIP3   OH268110   6.061   2.444   3.983  0.2532  0.0976  0.0758
15540TIP3    H168111   6.050   2.410   3.893  2.6194  0.7356 -0.4801
15540TIP3    H268112   6.033   2.535   3.977  0.8884  0.2816 -0.1408
15541TIP3   OH268113   2.074   2.910  15.079 -0.1665  0.5272  0.4101
15541TIP3    H168114   2.090   2.816  15.085  0.1361  0.5344 -0.2166
15541TIP3    H268115   2.161   2.950  15.083 -0.3931  0.8753  2.2032
15542TIP3   OH268116   4.027   6.551   3.966  0.4195 -0.1151 -0.0504
15542TIP3    H168117   3.952   6.610   3.956  0.4090 -0.0084  0.6352
15542TIP3    H268118   3.988   6.466   3.989  0.4778 -0.2099 -0.2970
15543TIP3   OH268119   5.332   1.925  16.918 -0.5353  0.4354 -0.2940
15543TIP3    H168120   5.403   1.961  16.865 -0.2140 -0.0916 -0.2332
15543TIP3    H268121   5.327   1.983  16.994  0.1926  0.1720 -0.0369
15544TIP3   OH268122   3.714   5.458  16.027 -0.0006 -0.6565 -0.5646
15544TIP3    H168123   3.725   5.500  15.942  1.8055 -0.4361 -0.2535
15544TIP3    H268124   3.750   5.370  16.016  0.1892 -0.6480 -0.0460
15545TIP3   OH268125   2.631   2.797  15.984 -0.5321  0.2049 -0.3802
15545TIP3    H168126   2.645   2.716  16.033 -0.4102  0.6583  0.3364
15545TIP3    H268127   2.546   2.829  16.014  0.2915  1.3434  0.7481
15546TIP3   OH268128   1.651   3.132   1.378 -0.4120 -0.5107 -0.2289
15546TIP3    H168129   1.737   3.098   1.401  1.2188  1.4876 -3.0387
15546TIP3    H268130   1.630   3.088   1.295 -0.1414  2.1513 -1.7540
15547TIP3   OH268131   0.213   2.481   1.589 -0.1605  0.2215 -0.2854
15547TIP3    H168132   0.235   2.466   1.497  1.7701 -1.1946  0.3632
15547TIP3    H268133   0.290   2.449   1.637 -1.2629  0.6722  1.8296
15548TIP3   OH268134   5.528   2.877   0.444  0.3194  0.0919  0.2367
15548TIP3    H168135   5.582   2.866   0.366  0.8126  3.1545  0.0584
15548TIP3    H268136   5.591   2.895   0.514 -0.3053  0.7501  0.6319
15549TIP3   OH268137   5.242   4.544  11.779  0.2724 -0.3857 -0.8844
15549TIP3    H168138   5.231   4.456  11.743 -0.7768 -0.5333 -0.2438
15549TIP3    H268139   5.153   4.570  11.803  0.5105  1.0551 -1.5510
15550TIP3   OH268140   2.911   0.083  12.556  0.0355  0.1082 -1.2018
15550TIP3    H168141   2.902   0.170  12.517 -2.1438 -0.2882 -1.6966
15550TIP3    H268142   2.910   0.023  12.481 -1.6266 -0.5048 -0.7106
15551TIP3   OH268143   5.704   5.813   2.913  0.2084  0.3445 -0.1261
15551TIP3    H168144   5.646   5.816   2.837  0.3774  0.5390 -0.2480
15551TIP3    H268145   5.656   5.762   2.978 -0.0711  0.4462 -0.2516
15552TIP3   OH268146   5.131   5.998   3.503  0.1368 -0.5575 -0.0941
15552TIP3    H168147   5.139   5.913   3.547  2.4113  0.0896  0.8563
15552TIP3    H268148   5.066   6.046   3.553  0.6987 -0.8424  0.9193
15553TIP3   OH268149   1.017   3.229  10.543  0.5063 -0.1165  0.1544
15553TIP3    H168150   1.109   3.254  10.540  0.0590  1.3575 -3.1896
15553TIP3    H268151   1.002   3.183  10.461 -1.5712 -1.0544  1.0287
15554TIP3   OH268152   5.107   1.447   4.132 -0.8245  0.0477  0.8442
15554TIP3    H168153   5.050   1.512   4.089  0.4827  0.0994 -0.8684
15554TIP3    H268154   5.070   1.363   4.106 -2.1980  0.0748  2.6245
15555TIP3   OH268155   6.240   4.732  15.855 -0.6180  0.1837  0.3701
15555TIP3    H168156   6.286   4.749  15.773 -2.0995  1.4809 -0.2339
15555TIP3    H268157   6.308   4.736  15.922  0.8228 -2.1556 -0.8900
15556TIP3   OH268158   6.089   3.533  15.097  0.3719 -0.1638  0.0293
15556TIP3    H168159   6.052   3.543  15.185 -0.7111 -0.4785 -0.3752
15556TIP3    H268160   6.092   3.438  15.083 -2.9467 -0.1029 -1.6683
15557TIP3   OH268161   0.018   4.367   5.022 -0.3173 -0.2494  0.1604
15557TIP3    H168162  -0.053   4.306   5.042 -0.7619  0.3790  0.5325
15557TIP3    H268163   0.058   4.385   5.107 -1.8925  2.0492  0.4598
15558TIP3   OH268164   2.885   1.586   3.214 -0.2716 -0.5613 -0.2653
15558TIP3    H168165   2.844   1.540   3.288  0.9003  0.3420  0.9627
15558TIP3    H268166   2.941   1.520   3.174  0.0215 -0.7228  0.3938
15559TIP3   OH268167   1.035   5.914  10.601 -0.3836 -0.4067 -0.1894
15559TIP3    H168168   1.014   5.996  10.557 -0.2444 -0.0857  0.3260
15559TIP3    H268169   1.059   5.940  10.690 -0.8732 -1.0573  0.1406
15560TIP3   OH268170   5.928   2.957  11.956  0.1338  0.0631  0.3127
15560TIP3    H168171   5.967   2.940  11.871  0.9061 -1.2745  0.9269
15560TIP3    H268172   5.954   3.047  11.977 -1.9180  1.2106 -1.8346
15561TIP3   OH268173   4.318   6.332  12.183  0.2744 -0.0183 -0.1140
15561TIP3    H168174   4.410   6.306  12.180 -0.3261 -2.1858 -0.3954
15561TIP3    H268175   4.286   6.298  12.267 -0.3615  0.4422 -0.1671
15562TIP3   OH268176   2.843   4.606  11.982 -0.3336 -0.2435  0.1348
15562TIP3    H168177   2.748   4.598  11.970 -0.2483 -1.0929 -0.0560
15562TIP3    H268178   2.858   4.580  12.073 -0.5026  1.9354  0.8148
15563TIP3   OH268179   3.322   2.893   2.787 -0.4050  0.2317 -0.3167
15563TIP3    H168180   3.335   2.971   2.734 -0.9109  0.2938 -0.3462
15563TIP3    H268181   3.397   2.893   2.848 -1.0216  1.3657  0.4568
15564TIP3   OH268182   5.454   1.165  13.437  0.5219  0.3715  0.3074
15564TIP3    H168183   5.387   1.231  13.418  0.8570 -0.0685 -2.6085
15564TIP3    H268184   5.406   1.082  13.433  1.1588  0.0672 -1.6329
15565TIP3   OH268185   5.071   3.434   5.798 -0.0413 -0.1356 -0.0609
15565TIP3    H168186   5.076   3.356   5.742 -0.6501  0.6805 -1.2761
15565TIP3    H268187   5.149   3.484   5.777  0.3094 -0.3770  0.6597
15566TIP3   OH268188   2.888   0.140   4.807 -0.0726 -0.6268 -0.2139
15566TIP3    H168189   2.853   0.143   4.897 -1.5969 -3.2392 -0.6757
15566TIP3    H268190   2.952   0.069   4.808 -1.0578 -1.5525 -1.5098
15567TIP3   OH268191   5.709   5.589  11.403 -0.4391  0.2239 -0.2144
15567TIP3    H168192   5.680   5.516  11.349  0.3633 -0.9339  0.8760
15567TIP3    H268193   5.659   5.580  11.484 -0.1004  0.6791  0.0473
15568TIP3   OH268194   6.119   6.091  15.920  0.2261 -0.1341  0.0229
15568TIP3    H168195   6.082   6.178  15.932  1.5747  0.8343 -2.5436
15568TIP3    H268196   6.058   6.047  15.860 -0.7025 -1.1624  1.6720
15569TIP3   OH268197   3.639   6.083   5.511 -0.1275  0.3429 -0.4790
15569TIP3    H168198   3.690   6.164   5.518  1.9522 -0.9066 -1.0200
15569TIP3    H268199   3.699   6.014   5.539 -2.0361 -0.9919  0.4331
15570TIP3   OH268200   0.952   4.739  12.923 -0.1884 -0.1246  0.2977
15570TIP3    H168201   0.984   4.683  12.852 -2.3181 -2.4030  1.0609
15570TIP3    H268202   1.031   4.761  12.973  0.8215 -1.8321 -0.4668
15571TIP3   OH268203   1.058   5.468  15.486 -0.0717  0.3231  0.0818
15571TIP3    H168204   1.096   5.382  15.465 -1.3332 -0.0465 -0.8044
15571TIP3    H268205   1.115   5.530  15.441  1.1425 -0.0134  1.1397
15572TIP3   OH268206   2.204   3.940  11.716  0.1577 -0.4076 -0.3673
15572TIP3    H168207   2.296   3.964  11.705 -0.0343  0.2232 -0.5800
15572TIP3    H268208   2.204   3.881  11.792  0.7829 -0.6945 -0.5843
15573TIP3   OH268209   0.245   1.427   1.546  0.0148 -0.2802 -0.0944
15573TIP3    H168210   0.255   1.419   1.451 -0.7045  0.2692 -0.2196
15573TIP3    H268211   0.250   1.521   1.562  1.5614 -0.4545  0.5818
15574TIP3   OH268212   5.643   6.453   3.872  0.1227  0.2869 -0.5592
15574TIP3    H168213   5.727   6.438   3.829  0.6237  2.0737 -0.2294
15574TIP3    H268214   5.661   6.519   3.939 -0.7795 -1.9004  1.9912
15575TIP3   OH268215   3.975   3.796  12.480  0.7479  0.1034  0.4716
15575TIP3    H168216   3.917   3.726  12.510  0.2996  0.0641 -0.4551
15575TIP3    H268217   3.968   3.864  12.547 -0.3376  0.0801  0.3892
15576TIP3   OH268218   5.563   1.977  16.371 -0.0534 -0.5987  0.0375
15576TIP3    H168219   5.527   2.048  16.425 -1.1224 -0.3007 -1.0342
15576TIP3    H268220   5.486   1.939  16.328  0.8192 -0.6425 -1.4994
15577TIP3   OH268221   4.527   1.652   3.668 -0.3918 -0.8156  0.0331
15577TIP3    H168222   4.519   1.579   3.607 -0.5083 -2.2847  1.7723
15577TIP3    H268223   4.503   1.615   3.753  1.4412  0.7548  1.2655
15578TIP3   OH268224   0.650   0.767  15.693  0.0704 -0.0111  0.1979
15578TIP3    H168225   0.692   0.705  15.633  0.8697 -0.6995  1.4383
15578TIP3    H268226   0.559   0.771  15.664  0.6099  0.2647 -1.5299
15579TIP3   OH268227   3.710   1.861  10.934 -0.0275 -0.3891 -0.3200
15579TIP3    H168228   3.751   1.795  10.990 -1.6651  0.0485  1.4639
15579TIP3    H268229   3.767   1.867  10.858  1.1296 -2.5392  0.3378
15580TIP3   OH268230   1.451   4.354   5.184  0.4985  0.4077 -0.0031
15580TIP3    H168231   1.382   4.384   5.125  0.3999 -0.4294 -0.3238
15580TIP3    H268232   1.525   4.333   5.127  1.3668  2.1768  0.4159
15581TIP3   OH268233   3.551   5.657  13.881 -0.2350 -0.0779 -0.5744
15581TIP3    H168234   3.606   5.643  13.804 -0.4092  1.1712 -0.9328
15581TIP3    H268235   3.550   5.572  13.925 -0.1750 -0.8196 -1.9681
15582TIP3   OH268236   4.003   6.485   1.108 -0.1069 -0.2505  0.5968
15582TIP3    H168237   4.041   6.548   1.048  0.5509  0.3461  1.6189
15582TIP3    H268238   3.942   6.433   1.055  0.4293  0.2986 -0.5470
15583TIP3   OH268239   2.016   1.227   2.318 -0.4873  0.2900  0.0655
15583TIP3    H168240   1.973   1.312   2.310  0.0508  0.6670  1.0467
15583TIP3    H268241   1.958   1.166   2.272  0.2495  1.5448 -2.5714
15584TIP3   OH268242   1.714   2.909  12.193  0.3652  0.4119  0.2140
15584TIP3    H168243   1.670   2.872  12.269 -0.5066 -0.9447 -0.9323
15584TIP3    H268244   1.740   2.998  12.221 -2.4954  1.0046  1.1055
15585TIP3   OH268245   2.361   5.015  13.254  0.7176  0.6268  0.1877
15585TIP3    H168246   2.329   4.938  13.206  0.1967 -0.4350  2.1662
15585TIP3    H268247   2.312   5.089  13.216  1.2520  0.0225 -1.7596
15586TIP3   OH268248   1.810   4.733   2.731  0.1851  0.4324 -0.1739
15586TIP3    H168249   1.762   4.794   2.787  0.1908  1.9191 -1.7657
15586TIP3    H268250   1.897   4.771   2.723  0.4976 -0.3152 -0.3495
15587TIP3   OH268251   4.639   5.111   6.341  0.0788  0.5272 -0.1118
15587TIP3    H168252   4.579   5.182   6.363  1.8550  2.0125 -0.0073
15587TIP3    H268253   4.676   5.084   6.426  0.8114  0.7464 -0.3594
15588TIP3   OH268254   4.274   5.906  13.059 -0.4772 -0.0644 -0.6548
15588TIP3    H168255   4.273   5.843  12.987 -1.2442 -0.8366  0.0231
15588TIP3    H268256   4.313   5.858  13.132 -2.1230 -0.1434  0.1964
15589TIP3   OH268257   3.345   2.194   3.582 -0.4095 -0.0537  0.3524
15589TIP3    H168258   3.256   2.203   3.548  0.5855  0.3894 -2.2343
15589TIP3    H268259   3.365   2.101   3.572 -0.9436 -0.3619  1.9555
15590TIP3   OH268260   4.928   0.271   3.554  0.5384 -0.1504  0.1498
15590TIP3    H168261   4.873   0.225   3.490 -1.3206  0.1541  1.4921
15590TIP3    H268262   5.012   0.225   3.550  0.2811 -0.4724 -2.1123
15591TIP3   OH268263   5.027   0.589   0.648 -0.0789 -0.1577 -0.1472
15591TIP3    H168264   4.963   0.605   0.578  0.2385  2.0649  0.0463
15591TIP3    H268265   5.111   0.613   0.609  0.0542  1.4364  1.0842
15592TIP3   OH268266   6.118   5.533   3.151  0.3453 -0.5598 -0.1228
15592TIP3    H168267   6.095   5.486   3.231  3.1264 -0.7179  0.6318
15592TIP3    H268268   6.091   5.623   3.167 -1.3008 -1.0565  0.0201
15593TIP3   OH268269   0.249   6.127   1.613 -0.0263 -0.3019 -0.2848
15593TIP3    H168270   0.292   6.042   1.625  0.5350 -0.3346 -2.3439
15593TIP3    H268271   0.156   6.106   1.607  0.1368 -0.8359 -1.1242
15594TIP3   OH268272   5.225   3.180  13.761 -0.1101 -0.3757  0.5212
15594TIP3    H168273   5.139   3.220  13.752  0.4612  1.2951  2.1150
15594TIP3    H268274   5.209   3.086  13.751 -1.7133  0.0994 -1.6894
15595TIP3   OH268275   0.110   0.682   2.563 -0.1688 -0.6087  0.1584
15595TIP3    H168276   0.134   0.594   2.533  0.6103 -0.2320 -0.3509
15595TIP3    H268277   0.189   0.715   2.605 -0.2553  0.0997 -0.2378
15596TIP3   OH268278   1.501   0.818   5.049  0.3370 -0.0505 -0.0971
15596TIP3    H168279   1.420   0.867   5.062 -0.2176 -0.3873 -2.2041
15596TIP3    H268280   1.473   0.726   5.047  0.7277 -0.1478 -1.1902
15597TIP3   OH268281   6.678   3.975   0.444 -0.2442 -0.0941 -0.4388
15597TIP3    H168282   6.721   3.899   0.404  1.7212  1.1537 -0.7729
15597TIP3    H268283   6.747   4.015   0.497 -1.2538  1.4796 -0.3143
15598TIP3   OH268284   1.041   3.602  11.828 -0.1676  0.1862 -0.0469
15598TIP3    H168285   1.031   3.690  11.792 -1.0609 -0.3225 -1.0522
15598TIP3    H268286   1.110   3.562  11.776 -1.2047 -0.4219 -0.9756
15599TIP3   OH268287   3.621   2.611  16.224  0.2349  0.3077 -0.1107
15599TIP3    H168288   3.693   2.671  16.203  0.1055  0.9062  1.0942
15599TIP3    H268289   3.580   2.592  16.140  0.8694  1.1596 -0.6205
15600TIP3   OH268290   3.014   1.960   2.124 -0.1530 -0.0048  0.5666
15600TIP3    H168291   3.004   1.936   2.032  0.1930 -0.1370  0.5627
15600TIP3    H268292   2.940   2.018   2.142 -0.8028 -0.8029  0.4818
15601TIP3   OH268293   1.904   5.500   5.754 -0.6794 -0.2122  0.1495
15601TIP3    H168294   1.968   5.535   5.817  1.9126 -1.2683 -1.7703
15601TIP3    H268295   1.842   5.451   5.807  0.5207  0.2291  2.0290
15602TIP3   OH268296   6.362   6.722  12.455 -0.2079 -0.6345  0.4206
15602TIP3    H168297   6.308   6.783  12.404  0.7569  0.1776  0.3701
15602TIP3    H268298   6.444   6.715  12.407  0.9647  0.6317  2.1707
15603TIP3   OH268299   2.416   5.373   1.855 -0.5331 -0.2572  0.3583
15603TIP3    H168300   2.451   5.367   1.766 -0.1757  0.8686  0.4206
15603TIP3    H268301   2.337   5.425   1.847 -1.2761 -1.3371  0.4937
15604TIP3   OH268302   0.211   6.219  14.181 -0.2027  0.6035 -0.6483
15604TIP3    H168303   0.288   6.268  14.210  1.2027 -0.8006 -1.9349
15604TIP3    H268304   0.180   6.266  14.104  1.1127 -0.4868 -1.8510
15605TIP3   OH268305   3.458   2.075   0.628  0.7098 -0.0309  0.0610
15605TIP3    H168306   3.530   2.015   0.648 -0.1217 -0.6599  1.1891
15605TIP3    H268307   3.385   2.018   0.603 -0.1723  0.4836  1.4238
15606TIP3   OH268308   2.657   1.150   0.803  0.3682  0.0881 -0.1379
15606TIP3    H168309   2.648   1.243   0.822 -0.5028 -0.1767  0.8109
15606TIP3    H268310   2.712   1.146   0.725  0.9698  1.3637  0.2117
15607TIP3   OH268311   3.343   6.622  16.290  0.4909  0.0336  0.4052
15607TIP3    H168312   3.411   6.688  16.289 -1.0644  1.6796  0.3600
15607TIP3    H268313   3.285   6.645  16.218  0.3309 -1.8233 -0.0770
15608TIP3   OH268314   6.008   4.186   1.556  0.3301  0.9548 -0.5015
15608TIP3    H168315   5.956   4.193   1.476 -0.5953  2.4710  0.2135
15608TIP3    H268316   6.041   4.274   1.571  0.6117  0.6543  0.7183
15609TIP3   OH268317   4.702   6.165   5.493  0.4093 -0.1734 -0.2642
15609TIP3    H168318   4.749   6.195   5.570 -0.8500  0.1593  0.3842
15609TIP3    H268319   4.696   6.242   5.437 -1.5357  0.4629  0.7591
15610TIP3   OH268320   3.554   5.914  12.754 -0.0919 -0.6398  0.1365
15610TIP3    H168321   3.614   5.989  12.762 -2.0378  1.1870 -1.5314
15610TIP3    H268322   3.586   5.866  12.677  1.0778 -1.4800  1.1268
15611TIP3   OH268323   2.116   3.861   5.591  0.1410 -0.0618  0.8180
15611TIP3    H168324   2.165   3.908   5.523 -0.8199  0.3281  0.3837
15611TIP3    H268325   2.082   3.930   5.647 -1.4047 -0.2172  0.0922
15612TIP3   OH268326   1.966   6.628  12.277 -0.0014 -0.1920 -0.1769
15612TIP3    H168327   2.051   6.666  12.298 -0.0186 -1.2662  1.9692
15612TIP3    H268328   1.939   6.583  12.357 -0.8789 -3.0371 -2.0003
15613TIP3   OH268329   0.397   2.490   4.329 -0.0974  0.2592 -0.0691
15613TIP3    H168330   0.374   2.446   4.411 -2.6207  0.9846 -0.3595
15613TIP3    H268331   0.313   2.505   4.285  0.7375  4.5767 -0.3716
15614TIP3   OH268332   1.275   4.590  12.043  0.3628 -0.0863  0.2900
15614TIP3    H168333   1.273   4.497  12.067 -1.1456 -0.6300 -1.7968
15614TIP3    H268334   1.185   4.619  12.054  0.8428  1.1787  0.9870
15615TIP3   OH268335   3.289   1.311   4.359  0.9311  0.3232  0.0769
15615TIP3    H168336   3.223   1.246   4.333  0.1300  0.8570  0.7652
15615TIP3    H268337   3.272   1.386   4.302  0.7065  0.6003  0.5100
15616TIP3   OH268338   5.632   2.959  11.600  0.0935 -0.0759  0.4403
15616TIP3    H168339   5.693   2.886  11.610  0.9160  0.5031 -0.3062
15616TIP3    H268340   5.685   3.037  11.618 -0.3556  0.4504 -0.5019
15617TIP3   OH268341   2.861   5.552  16.965  0.1611  0.3313 -0.0135
15617TIP3    H168342   2.877   5.632  17.015  1.1317  0.3244 -0.2993
15617TIP3    H268343   2.834   5.583  16.879  2.4923  0.3708 -0.7412
15618TIP3   OH268344   3.131   4.887   1.064 -0.9311 -0.3964  0.5737
15618TIP3    H168345   3.218   4.857   1.090  0.5984  1.7941 -1.6584
15618TIP3    H268346   3.136   4.892   0.968 -3.8957 -1.2688  0.3364
15619TIP3   OH268347   4.540   5.050  12.873 -0.1331  0.5683 -0.3227
15619TIP3    H168348   4.538   4.978  12.811 -1.0210  0.7221 -0.4800
15619TIP3    H268349   4.555   5.008  12.958 -1.4390  0.1236 -0.3091
15620TIP3   OH268350   4.491   5.057   6.109  0.3408  0.7654  0.3176
15620TIP3    H168351   4.553   5.032   6.178 -0.8925  0.4054  1.3211
15620TIP3    H268352   4.504   5.151   6.099 -0.9612  1.2487  2.6172
15621TIP3   OH268353   6.079   0.340  14.193 -0.0019 -0.5228 -0.1519
15621TIP3    H168354   6.136   0.287  14.248  0.9582  0.3475 -0.3029
15621TIP3    H268355   6.056   0.282  14.120  0.5909 -0.9056 -0.0341
15622TIP3   OH268356   4.380   0.435   4.696  0.6017  0.4083  0.3086
15622TIP3    H168357   4.376   0.390   4.612 -0.6937 -1.4991  1.3579
15622TIP3    H268358   4.366   0.527   4.674 -2.2697 -0.3711 -1.3134
15623TIP3   OH268359   3.534   1.954  15.752  0.9268 -0.0620 -0.0265
15623TIP3    H168360   3.505   2.034  15.708  2.0784  0.8314  0.8256
15623TIP3    H268361   3.475   1.945  15.827  0.3119 -0.4441 -0.5440
15624TIP3   OH268362   2.576   4.843  12.131  0.6276  0.5266 -0.4747
15624TIP3    H168363   2.553   4.870  12.042  1.7407  0.7120 -0.7160
15624TIP3    H268364   2.570   4.923  12.183 -0.1509  0.3923 -0.3576
15625TIP3   OH268365   3.696   4.754   3.252  0.4279  0.1545 -0.2631
15625TIP3    H168366   3.683   4.721   3.163  0.5972  0.5386 -0.4330
15625TIP3    H268367   3.773   4.707   3.284  0.7799  0.5129 -0.5721
15626TIP3   OH268368   0.387   2.067  11.410 -0.1429  0.7832  0.4526
15626TIP3    H168369   0.388   2.123  11.487  2.2788  1.1588  0.1878
15626TIP3    H268370   0.452   2.106  11.351  0.7895 -1.6180 -0.1986
15627TIP3   OH268371   3.171   2.322  11.736 -0.1191 -0.2755  0.0486
15627TIP3    H168372   3.081   2.350  11.721 -0.8853 -3.5055 -2.0446
15627TIP3    H268373   3.166   2.260  11.809  0.3452 -0.7424 -0.3062
15628TIP3   OH268374   3.765   3.686  11.888  0.6311  0.1226 -0.3095
15628TIP3    H168375   3.695   3.747  11.909  0.3430 -0.3024 -0.0440
15628TIP3    H268376   3.835   3.742  11.852 -1.1717  0.1695 -3.9997
15629TIP3   OH268377   3.637   1.940   6.324  0.0976  0.0681  0.2925
15629TIP3    H168378   3.639   1.858   6.372  0.0443  0.3394  0.7593
15629TIP3    H268379   3.565   1.990   6.363 -0.3395  0.0458 -0.4703
15630TIP3   OH268380   6.720   1.800  12.580 -0.0024  0.4229  0.4638
15630TIP3    H168381   6.656   1.845  12.524  0.4552 -0.2807 -0.6428
15630TIP3    H268382   6.776   1.753  12.519  1.9296  1.4651  1.4008
15631TIP3   OH268383   6.264   1.698  15.628  0.0128 -0.5718  0.2339
15631TIP3    H168384   6.319   1.760  15.675 -0.8758 -0.8019  1.5659
15631TIP3    H268385   6.176   1.733  15.634 -0.2966 -1.2757 -0.1414
15632TIP3   OH268386   4.561   0.129  14.997  0.6604  0.0370  0.5532
15632TIP3    H168387   4.594   0.203  15.049  0.4787  0.0599  0.6381
15632TIP3    H268388   4.613   0.054  15.025 -0.2842 -0.2082  1.6807
15633TIP3   OH268389   3.142   0.416   0.870 -0.2139  0.4168 -0.6253
15633TIP3    H168390   3.086   0.362   0.926  0.2810  0.0032 -0.5326
15633TIP3    H268391   3.111   0.398   0.781  0.1066 -0.2062 -0.6145
15634TIP3   OH268392   5.273   5.869   1.649 -0.3400  0.0260  0.1293
15634TIP3    H168393   5.193   5.875   1.597 -0.5076 -1.9317  0.1315
15634TIP3    H268394   5.341   5.841   1.587  0.2914  1.4065  0.1819
15635TIP3   OH268395   0.253   3.156  16.842  0.3293  0.6601 -0.0410
15635TIP3    H168396   0.234   3.116  16.927  2.0247  2.4724  1.2367
15635TIP3    H268397   0.233   3.088  16.779 -0.1599 -1.0202  1.8589
15636TIP3   OH268398   6.116   2.327  14.568  0.3795  0.1505  0.4151
15636TIP3    H168399   6.130   2.241  14.608 -1.1497 -1.7221 -2.8862
15636TIP3    H268400   6.023   2.344  14.579  0.6680  1.4151  1.0248
15637TIP3   OH268401   1.883   2.142   2.907  0.2792  0.3062 -0.0885
15637TIP3    H168402   1.910   2.105   2.824 -0.3782 -0.3809 -0.0098
15637TIP3    H268403   1.920   2.231   2.908  2.0514 -0.4162 -0.1867
15638TIP3   OH268404   6.541   3.902  15.152 -0.0415  0.7366 -0.6618
15638TIP3    H168405   6.526   3.928  15.061 -0.6263 -1.2850 -1.1715
15638TIP3    H268406   6.564   3.984  15.197 -2.3107  2.2019 -2.0575
15639TIP3   OH268407   3.030   0.341  13.460  0.2392  0.0491  0.2356
15639TIP3    H168408   3.093   0.270  13.468  0.8033  0.6816  1.4964
15639TIP3    H268409   2.948   0.298  13.437  1.8781 -0.4878 -5.3204
15640TIP3   OH268410   4.693   5.847   2.115 -0.4400 -0.4886 -0.0255
15640TIP3    H168411   4.786   5.868   2.114 -0.3895 -0.6124  0.8238
15640TIP3    H268412   4.649   5.930   2.132 -0.5170 -0.3353 -0.9997
15641TIP3   OH268413   1.618   1.892  16.727 -0.2490  0.1488  0.0184
15641TIP3    H168414   1.548   1.923  16.671  0.6192  0.2994 -1.0044
15641TIP3    H268415   1.694   1.944  16.701  0.0449  0.5865  1.6959
15642TIP3   OH268416   0.364   5.806   1.880  0.0263  0.9811  0.0176
15642TIP3    H168417   0.422   5.753   1.935  0.7498  0.7271 -0.9953
15642TIP3    H268418   0.372   5.895   1.915  0.3575  0.7889  0.4319
15643TIP3   OH268419   0.411   0.330  13.048 -0.0029  0.4133 -0.1808
15643TIP3    H168420   0.354   0.308  12.974 -0.0091 -1.0265  0.2368
15643TIP3    H268421   0.353   0.330  13.124  0.1760  0.9848 -0.0414
15644TIP3   OH268422   1.994   3.363  11.589  0.0456  0.4023 -0.6298
15644TIP3    H168423   2.022   3.448  11.624  0.8866 -0.0633 -0.1524
15644TIP3    H268424   2.013   3.368  11.495  0.1172  0.7376 -0.5976
15645TIP3   OH268425   2.473   6.123   5.478  0.1139  0.6710 -0.4200
15645TIP3    H168426   2.415   6.135   5.553  0.7093 -1.7017  0.4487
15645TIP3    H268427   2.420   6.078   5.413 -0.4215  2.7891 -1.4732
15646TIP3   OH268428   0.781   6.140   3.104 -0.0126 -0.3693 -0.0058
15646TIP3    H168429   0.803   6.048   3.089  0.8681 -0.2363  0.4450
15646TIP3    H268430   0.702   6.154   3.053 -0.0156 -1.3176 -0.2722
15647TIP3   OH268431   1.272   3.651  13.104  0.5046  0.1380  0.8651
15647TIP3    H168432   1.292   3.744  13.092  1.2313 -0.0737  0.3932
15647TIP3    H268433   1.281   3.613  13.017 -0.4232 -0.2607  0.9404
15648TIP3   OH268434   1.107   1.855  14.884 -0.1089  0.1315 -0.6259
15648TIP3    H168435   1.038   1.864  14.949 -0.7239  0.4082 -1.3017
15648TIP3    H268436   1.066   1.806  14.813  0.6966 -0.5694 -0.6025
15649TIP3   OH268437   5.468   2.280  12.179  0.3572  0.1906  0.2393
15649TIP3    H168438   5.417   2.347  12.134 -0.1946 -0.2126  0.2536
15649TIP3    H268439   5.550   2.275  12.130  0.5946  1.2031  0.5166
15650TIP3   OH268440   4.324   1.652  12.792  0.0275  0.2693 -0.8262
15650TIP3    H168441   4.393   1.601  12.835 -0.3854 -1.0412 -1.6664
15650TIP3    H268442   4.359   1.670  12.704 -0.7352 -0.5262 -1.3050
15651TIP3   OH268443   0.574   0.943  11.092  0.6264  0.2814  0.2442
15651TIP3    H168444   0.655   0.993  11.088  0.5971  0.2016 -1.6084
15651TIP3    H268445   0.527   0.967  11.013 -1.1713  0.3128  1.2987
15652TIP3   OH268446   0.285   6.066   4.965 -0.3569  0.0656 -0.1565
15652TIP3    H168447   0.349   6.014   4.917 -0.5237 -0.5256  0.2648
15652TIP3    H268448   0.251   6.007   5.033  1.1118  1.4041  1.7872
15653TIP3   OH268449   6.264   6.740   3.765 -0.3151  0.1056  0.0580
15653TIP3    H168450   6.296   6.782   3.845  0.6471 -1.1067  0.3197
15653TIP3    H268451   6.309   6.785   3.695 -1.3310  1.3267  0.1631
15654TIP3   OH268452   1.239   6.183  15.716 -0.6277 -0.5853 -0.5668
15654TIP3    H168453   1.251   6.128  15.639 -0.8789 -1.2135 -0.1614
15654TIP3    H268454   1.322   6.178  15.764  0.4938  1.9731 -2.1677
15655TIP3   OH268455   1.304   0.597  17.190  0.2479 -0.4807  0.7454
15655TIP3    H168456   1.264   0.682  17.210  1.2077 -0.0175  0.7131
15655TIP3    H268457   1.317   0.556  17.275  0.2177 -0.3960  0.7884
15656TIP3   OH268458   0.718   5.610  17.058  0.0370 -0.1256 -0.0437
15656TIP3    H168459   0.731   5.555  17.135  0.0678 -1.0388 -0.6982
15656TIP3    H268460   0.770   5.689  17.076 -1.4747  0.5152  1.7216
15657TIP3   OH268461   1.323   1.210  11.460 -0.8367  0.3224 -0.0169
15657TIP3    H168462   1.390   1.144  11.445 -1.7299 -1.6304  3.8620
15657TIP3    H268463   1.367   1.294  11.444  1.7470 -1.0227 -0.1170
15658TIP3   OH268464   4.829   0.881   5.443 -0.0195 -0.1046  0.2272
15658TIP3    H168465   4.855   0.950   5.504  0.1455 -0.5192  0.6327
15658TIP3    H268466   4.892   0.888   5.371 -0.1418  0.3109  0.1609
15659TIP3   OH268467   1.551   5.113  14.886 -0.3091  0.2947 -0.0281
15659TIP3    H168468   1.647   5.115  14.885 -0.3408  1.4116 -1.7361
15659TIP3    H268469   1.525   5.108  14.794 -1.8973  0.9731  0.3528
15660TIP3   OH268470   4.567   0.059   4.936 -0.5671  0.4076  0.8099
15660TIP3    H168471   4.634   0.036   4.872 -1.1292  1.3618 -0.1387
15660TIP3    H268472   4.601   0.137   4.980  0.1830 -0.7100  2.2521
15661TIP3   OH268473   6.422   0.870  16.121 -0.4006 -0.0998  0.2350
15661TIP3    H168474   6.464   0.790  16.090 -1.5136 -0.4669 -0.3629
15661TIP3    H268475   6.485   0.939  16.102 -0.2945 -0.5636 -1.1996
15662TIP3   OH268476   3.485   0.396   3.144  0.4407 -0.1373  0.1262
15662TIP3    H168477   3.536   0.365   3.069  2.4805  1.8703  0.6348
15662TIP3    H268478   3.498   0.491   3.144 -1.0376  0.0964  1.9390
15663TIP3   OH268479   4.615   2.097   1.194  0.1360  0.1114 -0.8383
15663TIP3    H168480   4.566   2.067   1.270  0.5024 -1.5322 -1.2206
15663TIP3    H268481   4.697   2.131   1.229 -1.4920  3.4444 -0.1408
15664TIP3   OH268482   3.884   5.161  14.204 -0.2958 -0.0997  0.2856
15664TIP3    H168483   3.874   5.102  14.129  0.2280  0.9665 -0.6324
15664TIP3    H268484   3.945   5.229  14.174  1.4704 -0.7192  2.3057
15665TIP3   OH268485   1.198   4.171   0.306 -0.6537 -0.3092 -0.3713
15665TIP3    H168486   1.213   4.125   0.388 -0.6205 -0.3898 -0.4230
15665TIP3    H268487   1.138   4.242   0.329  0.3878  0.4598 -0.0347
15666TIP3   OH268488   6.522   4.998  16.200  0.1821  0.3389  0.0881
15666TIP3    H168489   6.530   4.924  16.140 -0.1983 -0.1996  0.6946
15666TIP3    H268490   6.582   4.979  16.271 -1.0091 -0.1267  0.9921
15667TIP3   OH268491   0.197   4.985   2.428 -0.4687 -0.3502  0.1179
15667TIP3    H168492   0.140   5.002   2.353  0.3986  0.7067 -0.3223
15667TIP3    H268493   0.284   4.975   2.389 -0.0652 -0.1236  0.9543
15668TIP3   OH268494   4.270   4.645  11.383 -0.0340  0.3942  0.1444
15668TIP3    H168495   4.312   4.603  11.308  1.0431  1.1111  0.3295
15668TIP3    H268496   4.209   4.708  11.345 -1.5673 -1.2362 -0.1331
15669TIP3   OH268497   1.269   2.892   5.393 -0.5737  1.0881  0.3952
15669TIP3    H168498   1.231   2.809   5.420 -0.2249  0.7904 -0.0367
15669TIP3    H268499   1.198   2.937   5.347  0.1639 -0.3193 -2.2086
15670TIP3   OH268500   2.457   3.297  13.878  0.3853  0.0596 -0.3378
15670TIP3    H168501   2.450   3.297  13.783 -0.4939  1.1519 -0.2750
15670TIP3    H268502   2.397   3.365  13.908  1.7126  0.7360  0.9234
15671TIP3   OH268503   4.406   2.454   6.921 -0.0528 -0.0550  0.0518
15671TIP3    H168504   4.417   2.521   6.853 -0.0672 -0.5879 -0.4826
15671TIP3    H268505   4.312   2.438   6.924 -0.2056  1.0689  1.2708
15672TIP3   OH268506   5.394   2.521  15.578 -0.3700  0.3132 -0.1719
15672TIP3    H168507   5.415   2.429  15.593  1.4468  0.7392  0.1139
15672TIP3    H268508   5.411   2.563  15.663 -2.4194  0.7281  0.0675
15673TIP3   OH268509   6.314   0.352   0.356  0.2996  0.6918  0.4500
15673TIP3    H168510   6.220   0.340   0.368 -0.0014  1.0368 -1.3389
15673TIP3    H268511   6.320   0.408   0.279  1.9939 -0.2503 -0.1203
15674TIP3   OH268512   5.492   3.278  13.747 -0.5176  0.1359 -0.2955
15674TIP3    H168513   5.403   3.246  13.760  0.3368 -2.0647  0.2096
15674TIP3    H268514   5.544   3.200  13.732  1.3182  1.4194 -0.7798
15675TIP3   OH268515   4.577   5.518   4.176 -0.2292 -0.0550 -0.0597
15675TIP3    H168516   4.570   5.563   4.091 -1.2698  0.5045  0.3130
15675TIP3    H268517   4.487   5.513   4.208  0.0040 -1.4932  0.3864
15676TIP3   OH268518   5.616   2.278  11.808 -0.2178  0.4770  0.3826
15676TIP3    H168519   5.614   2.209  11.874 -0.7558  1.4074  1.3513
15676TIP3    H268520   5.556   2.247  11.740 -0.0832 -0.2363  0.5869
15677TIP3   OH268521   4.176   5.929  16.054  0.1743 -0.2106  0.1937
15677TIP3    H168522   4.214   6.015  16.069 -2.2337  1.1293 -1.0681
15677TIP3    H268523   4.114   5.918  16.126 -0.4539 -0.3223 -0.3585
15678TIP3   OH268524   0.011   1.283   4.978 -0.6844 -0.3673  0.2955
15678TIP3    H168525   0.055   1.214   5.027  0.6251 -0.0571 -0.4352
15678TIP3    H268526  -0.009   1.244   4.893  0.7392  0.3737 -0.3938
15679TIP3   OH268527   4.948   0.790  14.509  0.0991  0.0844  0.6972
15679TIP3    H168528   4.956   0.705  14.552  0.4719 -0.3303 -0.1807
15679TIP3    H268529   5.036   0.827  14.514  1.1753 -1.7003 -3.2448
15680TIP3   OH268530   5.938   1.618  16.305  0.0594  0.4409 -0.0089
15680TIP3    H168531   5.890   1.575  16.375 -0.6385  1.5069  0.1722
15680TIP3    H268532   5.876   1.621  16.232  0.4675  0.1987 -0.3693
15681TIP3   OH268533   2.639   5.901  12.565 -0.0347 -0.1807  0.0635
15681TIP3    H168534   2.715   5.953  12.539 -1.4634  1.2619 -1.3148
15681TIP3    H268535   2.677   5.822  12.604  2.1609  0.3747 -0.8643
15682TIP3   OH268536   0.926   1.597   2.969 -0.0007 -0.2582 -0.5642
15682TIP3    H168537   0.997   1.543   2.936  0.9906 -0.5486  1.9056
15682TIP3    H268538   0.967   1.681   2.990 -0.1874 -0.6337  1.4719
15683TIP3   OH268539   1.204   4.994  13.903 -0.0756 -0.1506  0.2090
15683TIP3    H168540   1.138   5.028  13.963 -0.5877  0.6918 -0.8121
15683TIP3    H268541   1.154   4.965  13.826  0.6032 -0.8398  0.0159
15684TIP3   OH268542   2.747   1.489  17.148 -0.0395 -0.2789  0.4578
15684TIP3    H168543   2.743   1.517  17.240 -0.6698 -0.8444  0.6057
15684TIP3    H268544   2.820   1.539  17.111 -0.9058  1.2764  0.7961
15685TIP3   OH268545   4.371   6.295  17.021 -0.0871  0.6357  0.3930
15685TIP3    H168546   4.450   6.262  17.063 -0.2707 -1.1998 -0.6913
15685TIP3    H268547   4.387   6.287  16.927 -1.6514 -0.0209  0.1612
15686TIP3   OH268548   4.422   6.550  12.553  0.5361 -0.2241 -0.4019
15686TIP3    H168549   4.357   6.610  12.589  1.0841  0.3437 -0.3463
15686TIP3    H268550   4.449   6.590  12.471  1.2557 -0.1432 -0.1307
15687TIP3   OH268551   5.282   1.029   2.379 -0.2525  0.1440  0.8442
15687TIP3    H168552   5.275   1.124   2.380  1.6683  0.3070  0.4955
15687TIP3    H268553   5.303   1.008   2.288 -0.6845 -0.6109  0.9169
15688TIP3   OH268554   4.530   6.662  16.046  0.7734  0.0083 -0.2640
15688TIP3    H168555   4.458   6.612  16.005 -0.2383  1.2038  0.0215
15688TIP3    H268556   4.568   6.601  16.108 -0.1537 -0.5783 -0.2542
15689TIP3   OH268557   0.712   1.441   1.496 -0.3595  0.8141 -0.5783
15689TIP3    H168558   0.655   1.421   1.422 -3.6838 -1.1395  2.3794
15689TIP3    H268559   0.653   1.471   1.564  2.5242  1.6818  1.6265
15690TIP3   OH268560   4.163   2.297   5.937  0.2570 -0.2897 -0.0864
15690TIP3    H168561   4.164   2.291   6.033 -0.7598  2.5226  0.1118
15690TIP3    H268562   4.098   2.232   5.910  1.8483 -2.4123  0.9827
15691TIP3   OH268563   3.248   1.960   1.256  0.2383  0.3972  0.6320
15691TIP3    H168564   3.248   1.869   1.285 -1.5854  0.0620 -0.3747
15691TIP3    H268565   3.234   1.955   1.161  2.8169  1.6210  0.1535
15692TIP3   OH268566   3.877   3.713   2.595  0.7293  0.1263 -0.3404
15692TIP3    H168567   3.875   3.641   2.532  1.0387 -0.3111  0.1458
15692TIP3    H268568   3.806   3.772   2.567 -0.5254 -1.1210  0.1581
15693TIP3   OH268569   4.525   4.848  13.075  0.1242  0.6552 -0.8315
15693TIP3    H168570   4.505   4.775  13.133  0.9124 -0.4241 -1.8686
15693TIP3    H268571   4.441   4.890  13.059 -0.2109  0.4990  0.4646
15694TIP3   OH268572   6.643   1.917  16.636 -0.6052 -0.1943  0.5595
15694TIP3    H168573   6.726   1.871  16.652 -1.0911 -0.7369  1.5657
15694TIP3    H268574   6.609   1.935  16.724 -1.3872  0.3325  0.1496
15695TIP3   OH268575   0.771   2.076  15.459 -0.2507  0.4394 -0.1079
15695TIP3    H168576   0.841   2.050  15.520 -1.8285 -1.6679  0.8829
15695TIP3    H268577   0.731   2.153  15.500 -0.2222  0.0360  0.7023
15696TIP3   OH268578   4.851   2.077   0.593  0.0315 -0.5936  0.0727
15696TIP3    H168579   4.829   2.110   0.681  0.7913 -1.4174  0.5668
15696TIP3    H268580   4.890   2.153   0.549 -2.2622  0.4401 -0.2739
15697TIP3   OH268581   5.051   2.831   3.549  0.1882  0.2147 -0.2210
15697TIP3    H168582   5.049   2.924   3.527 -0.7869  0.3979  0.5921
15697TIP3    H268583   4.995   2.824   3.627 -0.9916 -1.2732 -1.1745
15698TIP3   OH268584   6.245   2.084  11.545  0.4798 -0.7310 -0.0646
15698TIP3    H168585   6.261   2.164  11.595 -0.0888 -1.6917  1.7005
15698TIP3    H268586   6.306   2.089  11.472 -1.1061  2.3655 -1.2421
15699TIP3   OH268587   2.262   4.462   3.869 -0.3651  0.0427 -0.4720
15699TIP3    H168588   2.356   4.463   3.884 -0.7599 -1.5275  2.4524
15699TIP3    H268589   2.252   4.488   3.778  2.8368  1.0420 -0.5947
15700TIP3   OH268590   1.649   1.040  11.719  0.7425 -0.1874  0.0439
15700TIP3    H168591   1.589   1.073  11.786 -1.9609 -0.5950 -2.0963
15700TIP3    H268592   1.697   1.118  11.690 -1.8736  1.0587 -1.2339
15701TIP3   OH268593   2.757   6.472  13.506 -0.0151  0.9680  0.0139
15701TIP3    H168594   2.827   6.413  13.479 -0.3434 -0.1106  1.4807
15701TIP3    H268595   2.780   6.556  13.467  2.2786  0.7202  0.7853
15702TIP3   OH268596   1.931   2.611  12.152 -0.8753  0.1646  0.0133
15702TIP3    H168597   1.846   2.612  12.196 -1.6391  0.8826 -1.4479
15702TIP3    H268598   1.916   2.558  12.073  0.5051 -1.2188  0.6584
15703TIP3   OH268599   6.545   2.452   1.636 -0.2273  0.3522  0.1804
15703TIP3    H168600   6.484   2.497   1.578  0.2868 -0.4541 -1.0090
15703TIP3    H268601   6.628   2.453   1.588 -0.1336 -1.5826  0.2515
15704TIP3   OH268602   4.303   2.839   3.894  0.4746  0.1766  0.5220
15704TIP3    H168603   4.288   2.922   3.939 -0.1417  1.0649 -1.2724
15704TIP3    H268604   4.355   2.864   3.817  0.2073 -1.1002 -0.0688
15705TIP3   OH268605   2.950   3.756  14.286  0.7863  0.2199  0.0125
15705TIP3    H168606   2.892   3.753  14.210  1.2734 -0.5616 -0.3301
15705TIP3    H268607   2.972   3.665  14.303  0.9619  0.4177  0.8828
15706TIP3   OH268608   2.871   0.110  13.854 -0.1050  0.0503 -0.1739
15706TIP3    H168609   2.881   0.117  13.759  4.0797 -1.1139  0.0340
15706TIP3    H268610   2.885   0.198  13.887  0.2059  0.1429 -0.5517
15707TIP3   OH268611   4.627   4.251   0.817  0.4018  0.9536 -0.0318
15707TIP3    H168612   4.690   4.202   0.871  0.2787 -0.1403 -0.8773
15707TIP3    H268613   4.552   4.264   0.874  0.2989 -0.1482  0.0994
15708TIP3   OH268614   2.635   0.787  16.309  0.5157  0.0657 -0.4577
15708TIP3    H168615   2.614   0.880  16.293 -0.6176  0.4342  2.9002
15708TIP3    H268616   2.729   0.786  16.327  0.2303  0.8353  1.1594
15709TIP3   OH268617   5.980   5.627  15.855 -0.1486  0.3419  0.0656
15709TIP3    H168618   5.926   5.686  15.907 -0.3165 -1.1723  1.6442
15709TIP3    H268619   6.049   5.599  15.914 -0.8603 -2.1214 -0.2234
15710TIP3   OH268620   2.859   4.903   0.474 -0.0032 -0.8002 -0.0545
15710TIP3    H168621   2.930   4.957   0.439 -1.7152  1.6487  0.1277
15710TIP3    H268622   2.829   4.949   0.552 -1.1734 -2.3002  0.4186
15711TIP3   OH268623   2.271   6.793  14.057 -0.2763  0.2612 -0.1330
15711TIP3    H168624   2.192   6.780  14.109 -0.0658 -0.2396  0.0597
15711TIP3    H268625   2.261   6.733  13.983 -1.5270  2.3893 -1.7753
15712TIP3   OH268626   4.730   5.325   5.965 -0.5123 -0.3174  0.0275
15712TIP3    H168627   4.807   5.321   6.022  0.0920  0.3935 -0.7223
15712TIP3    H268628   4.656   5.335   6.025 -0.0338 -1.0878  0.7588
15713TIP3   OH268629   0.534   3.671  10.514  0.8185 -0.3633  0.2377
15713TIP3    H168630   0.601   3.662  10.447  0.2072  0.4356 -0.4959
15713TIP3    H268631   0.463   3.719  10.471  0.2655 -0.1618  1.3465
15714TIP3   OH268632   2.536   5.824   4.451 -0.1522 -0.0071  0.4624
15714TIP3    H168633   2.539   5.899   4.392  1.5096  0.8047  1.5091
15714TIP3    H268634   2.444   5.818   4.478 -0.4873  1.0382 -0.4101
15715TIP3   OH268635   2.959   0.630   1.949 -0.0424  0.6479 -0.2328
15715TIP3    H168636   2.891   0.697   1.944 -2.6757 -1.8992  0.0205
15715TIP3    H268637   2.967   0.597   1.859 -1.6551 -1.3671  0.3054
15716TIP3   OH268638   1.267   3.987  14.131 -0.0037  0.5855 -0.4038
15716TIP3    H168639   1.218   3.947  14.203  1.6672  0.7396  0.8364
15716TIP3    H268640   1.275   3.916  14.066 -0.7620  0.1908 -0.0721
15717TIP3   OH268641   6.482   3.216  14.915 -0.6928 -0.1638 -0.1050
15717TIP3    H168642   6.502   3.283  14.850  2.5090 -0.4780  0.4433
15717TIP3    H268643   6.505   3.257  14.999 -1.6500 -0.9030  0.5328
15718TIP3   OH268644   5.971   5.028   4.783  0.4214 -0.7457 -0.1391
15718TIP3    H168645   5.913   4.973   4.836 -0.5967 -1.7474 -2.1971
15718TIP3    H268646   6.048   5.043   4.838 -1.3413 -0.2394  2.2718
15719TIP3   OH268647   0.866   4.139  12.476 -0.2817 -0.6759 -0.2474
15719TIP3    H168648   0.808   4.202  12.433 -0.4850 -1.9626 -1.8910
15719TIP3    H268649   0.814   4.106  12.550 -0.3774  0.6672  0.2896
15720TIP3   OH268650   3.383   0.753   1.947  0.5007  0.3411  0.6087
15720TIP3    H168651   3.386   0.836   1.995 -0.8669  0.8691 -0.1698
15720TIP3    H268652   3.327   0.772   1.871 -0.7018 -1.6008  0.9944
15721TIP3   OH268653   0.967   5.497   4.024  0.3753 -0.2684 -0.7250
15721TIP3    H168654   1.027   5.561   3.986  0.9631  0.4619  1.3232
15721TIP3    H268655   1.024   5.435   4.069 -0.3340 -0.4508 -0.0699
15722TIP3   OH268656   3.672   3.864   0.527 -0.3974  0.6064  0.2445
15722TIP3    H168657   3.697   3.772   0.538 -0.5534  0.0402 -3.3130
15722TIP3    H268658   3.738   3.900   0.469 -1.0754  2.3971  0.5639
15723TIP3   OH268659   4.325   3.336   6.528 -0.5569  0.2039 -0.2869
15723TIP3    H168660   4.356   3.422   6.502 -1.3083  0.4797 -0.2826
15723TIP3    H268661   4.239   3.328   6.488 -0.0626 -0.9614 -1.1511
15724TIP3   OH268662   2.607   5.339   1.298  0.5023  0.4983 -0.7557
15724TIP3    H168663   2.599   5.263   1.239 -0.6528  0.1162 -0.1270
15724TIP3    H268664   2.521   5.381   1.293  0.6294  0.8525  0.1258
15725TIP3   OH268665   0.087   2.199  15.381  0.1719 -0.1807 -0.0967
15725TIP3    H168666   0.078   2.159  15.294 -4.4439 -0.0554  0.2196
15725TIP3    H268667   0.078   2.293  15.366  1.3330  0.0128  0.3327
15726TIP3   OH268668   6.262   4.028   0.470  0.1420  0.0975 -0.1209
15726TIP3    H168669   6.204   4.097   0.503 -0.8122 -0.0349 -1.4497
15726TIP3    H268670   6.314   4.002   0.545 -2.0325 -0.2589  1.3279
15727TIP3   OH268671   3.818   2.255   0.585 -0.3735  0.5474 -0.8999
15727TIP3    H168672   3.889   2.244   0.521  2.8522  1.9413  2.2769
15727TIP3    H268673   3.839   2.338   0.628 -2.3688 -0.4518  2.0793
15728TIP3   OH268674   6.687   4.194  15.978 -0.3327 -0.0435 -0.2167
15728TIP3    H168675   6.605   4.222  16.018 -0.3234 -1.2151  0.6406
15728TIP3    H268676   6.750   4.195  16.050 -0.1933 -1.6422 -0.3077
15729TIP3   OH268677   4.774   0.797  13.274  0.2785 -0.3282  0.5630
15729TIP3    H168678   4.843   0.861  13.296 -0.4007  0.2095  1.1485
15729TIP3    H268679   4.719   0.794  13.352 -1.3574  0.5327 -0.5522
15730TIP3   OH268680   1.767   1.786   0.130 -0.0311 -0.0390  0.3783
15730TIP3    H168681   1.764   1.694   0.157 -0.8637 -0.2126 -0.2769
15730TIP3    H268682   1.844   1.822   0.175  0.7075 -1.2219  0.0784
15731TIP3   OH268683   3.830   5.954   1.309 -0.0762  0.4380  0.1918
15731TIP3    H168684   3.806   5.985   1.222 -3.0728 -0.4984  0.6230
15731TIP3    H268685   3.798   6.022   1.369  2.3327  1.2765  0.5730
15732TIP3   OH268686   3.739   4.208   5.664  0.3476 -0.1814 -0.6174
15732TIP3    H168687   3.819   4.221   5.613  0.4215 -0.1782 -0.5014
15732TIP3    H268688   3.769   4.206   5.755  0.1211  0.6329 -0.5232
15733TIP3   OH268689   1.440   2.014  11.052 -0.1662 -0.0973 -0.0652
15733TIP3    H168690   1.408   2.101  11.028 -2.5878 -1.2660 -1.2743
15733TIP3    H268691   1.478   2.026  11.139 -0.4067  2.1763 -0.2428
15734TIP3   OH268692   2.203   1.160  11.579  0.0828 -0.0891  0.3188
15734TIP3    H168693   2.208   1.210  11.497  0.6239 -1.5715 -0.5621
15734TIP3    H268694   2.275   1.195  11.632  0.3759  0.1602 -0.2324
15735TIP3   OH268695   3.210   4.352  14.730  0.3754 -0.4677  0.1408
15735TIP3    H168696   3.232   4.372  14.639  1.8588 -0.0496  0.5768
15735TIP3    H268697   3.222   4.435  14.776 -1.2892 -0.4406  0.5791
15736TIP3   OH268698   5.936   5.586  17.084  0.3355 -0.6982 -0.5902
15736TIP3    H168699   5.873   5.515  17.091 -0.4912 -0.0344 -1.1508
15736TIP3    H268700   5.962   5.586  16.992  2.1948 -1.8296 -0.1049
15737TIP3   OH268701   3.149   1.573   1.822 -0.5007  0.1174  0.1770
15737TIP3    H168702   3.230   1.611   1.857  0.7130 -0.1064 -2.2996
15737TIP3    H268703   3.151   1.482   1.853 -1.2003  0.8243  2.3976
15738TIP3   OH268704   2.680   1.610   4.371 -0.2077  0.0240 -0.4709
15738TIP3    H168705   2.749   1.633   4.310 -0.8955 -0.9180 -1.6108
15738TIP3    H268706   2.698   1.520   4.397 -0.9439 -0.2006 -0.7073
15739TIP3   OH268707   5.575   4.212   4.528  0.1062 -0.3069  0.6294
15739TIP3    H168708   5.487   4.189   4.560 -0.7456  1.1776 -0.5925
15739TIP3    H268709   5.619   4.128   4.518 -0.4624 -0.9394  3.2689
15740TIP3   OH268710   5.380   3.769   3.996 -0.0045 -0.4443  0.3849
15740TIP3    H168711   5.287   3.784   3.981  0.0644 -1.2929 -0.9021
15740TIP3    H268712   5.425   3.827   3.934  0.3599  0.7822  1.7503
15741TIP3   OH268713   0.960   1.692   5.642 -0.0034 -0.2149  0.1037
15741TIP3    H168714   0.956   1.772   5.589 -0.9938  0.1147  0.6616
15741TIP3    H268715   0.897   1.707   5.713  1.5370 -0.5203  1.5624
15742TIP3   OH268716   5.133   4.801   4.384  0.0444  0.3297 -0.2529
15742TIP3    H168717   5.224   4.827   4.397  0.2336  0.1899 -1.3284
15742TIP3    H268718   5.098   4.792   4.473  1.5274 -1.2340  0.1885
15743TIP3   OH268719   6.631   1.105  11.766  0.0064 -0.1164  0.3033
15743TIP3    H168720   6.555   1.133  11.716 -0.3268  1.1096  1.4600
15743TIP3    H268721   6.595   1.072  11.848  0.5820 -1.6173 -0.0356
15744TIP3   OH268722   0.842   1.014  16.250 -0.3937  0.1184 -0.3552
15744TIP3    H168723   0.920   1.061  16.282 -0.2827 -0.3926  0.1231
15744TIP3    H268724   0.770   1.054  16.298 -0.0911 -1.5046  1.4638
15745TIP3   OH268725   6.676   0.926  12.238  0.0072  0.1768  0.7010
15745TIP3    H168726   6.643   1.012  12.266 -1.0946 -0.0234  0.0880
15745TIP3    H268727   6.642   0.916  12.149 -1.7529 -1.8462  1.5471
15746TIP3   OH268728   1.907   4.053   3.939  0.5143 -0.4608 -0.1998
15746TIP3    H168729   1.976   4.061   3.874 -1.5489 -0.4951 -2.4478
15746TIP3    H268730   1.900   3.959   3.956 -0.0450 -0.5980 -1.1603
15747TIP3   OH268731   5.750   6.795  16.387 -0.3944 -0.0911 -0.2346
15747TIP3    H168732   5.671   6.847  16.376  0.4214  0.7216 -2.5172
15747TIP3    H268733   5.819   6.860  16.403 -0.2346 -0.8124  2.2295
15748TIP3   OH268734   0.207   4.722   0.877  0.0330 -0.0942 -0.0873
15748TIP3    H168735   0.168   4.771   0.804 -0.6282 -0.4514  0.0204
15748TIP3    H268736   0.286   4.683   0.840 -0.3259 -0.3148 -0.6322
15749TIP3   OH268737   4.035   1.017   3.070  0.2663  0.2237  0.2858
15749TIP3    H168738   4.082   0.993   3.150 -0.8289  0.1395  0.9145
15749TIP3    H268739   4.046   0.941   3.012  1.2108  0.3570  0.2821
15750TIP3   OH268740   4.079   1.264   5.262 -0.5812  0.1238  0.7327
15750TIP3    H168741   4.101   1.206   5.335  0.4924 -0.5205 -0.0866
15750TIP3    H268742   4.149   1.250   5.198 -0.4973  2.0671  0.3715
15751TIP3   OH268743   3.241   0.560  16.522 -0.1564 -0.3729  0.3241
15751TIP3    H168744   3.201   0.635  16.567 -0.5168 -1.4111  1.7391
15751TIP3    H268745   3.332   0.560  16.552 -0.2623 -0.7435  0.6516
15752TIP3   OH268746   1.834   6.045  10.868  0.0285 -0.5266 -0.4806
15752TIP3    H168747   1.794   6.131  10.855  0.3825 -0.3077 -0.1455
15752TIP3    H268748   1.783   5.986  10.813 -2.3204 -0.6909  1.7478
15753TIP3   OH268749   2.340   2.521   3.155 -0.0643 -0.5519 -0.2063
15753TIP3    H168750   2.268   2.458   3.151 -1.0014  0.4916  0.0780
15753TIP3    H268751   2.340   2.551   3.245  0.4830 -0.2504 -0.3064
15754TIP3   OH268752   0.872   0.760  16.703  0.3885 -0.0348 -0.6702
15754TIP3    H168753   0.795   0.705  16.715  0.6869 -0.6882 -1.6136
15754TIP3    H268754   0.944   0.697  16.694  0.7022  0.4969 -1.9582
15755TIP3   OH268755   6.303   1.137  14.517  0.5519  0.0787 -0.3938
15755TIP3    H168756   6.233   1.135  14.453  0.2525 -1.9206 -0.0339
15755TIP3    H268757   6.380   1.166  14.468 -0.2621  1.1717 -1.0367
15756TIP3   OH268758   3.459   1.261  16.865  0.3045  0.3104 -0.3431
15756TIP3    H168759   3.492   1.272  16.776 -1.3055  0.7882 -0.9072
15756TIP3    H268760   3.529   1.293  16.922  1.4720 -0.3135 -1.4222
15757TIP3   OH268761   4.606   2.782  11.696 -0.0132  0.8692  0.3180
15757TIP3    H168762   4.580   2.873  11.708 -0.8907  0.6838 -0.1300
15757TIP3    H268763   4.636   2.777  11.605  0.0967  0.7257  0.3619
15758TIP3   OH268764   1.614   5.954   3.867 -0.5562 -0.2344  0.2714
15758TIP3    H168765   1.603   6.044   3.896  0.1504  1.0568 -3.2243
15758TIP3    H268766   1.535   5.935   3.815  1.3333  0.0283 -2.8364
15759TIP3   OH268767   4.253   1.508  14.531  0.0290  0.2740 -0.5120
15759TIP3    H168768   4.346   1.487  14.541 -0.0148  0.2096 -0.2333
15759TIP3    H268769   4.227   1.463  14.451  0.1709  0.0641 -0.4419
15760TIP3   OH268770   0.871   1.622   1.640  0.6232  0.3393 -0.3397
15760TIP3    H168771   0.940   1.583   1.694 -0.6570 -0.7606  0.4965
15760TIP3    H268772   0.837   1.550   1.587  0.3326  0.9542 -1.0075
15761TIP3   OH268773   0.227   1.752   5.282 -0.2929 -0.3507 -0.0728
15761TIP3    H168774   0.257   1.831   5.236  1.3383 -1.2350 -0.5718
15761TIP3    H268775   0.296   1.734   5.346 -1.4314 -0.4647  1.1274
15762TIP3   OH268776   2.605   2.658   5.971  0.2594 -0.1586  0.8213
15762TIP3    H168777   2.683   2.621   5.930  0.1211 -1.3926  1.6523
15762TIP3    H268778   2.619   2.648   6.065 -0.4752  0.4846  1.0057
15763TIP3   OH268779   5.933   4.973  13.069  0.2047  0.1577  0.2704
15763TIP3    H168780   5.896   4.895  13.110 -0.6363  0.0160 -0.7500
15763TIP3    H268781   5.984   5.015  13.139  1.0805 -1.5527  0.6887
15764TIP3   OH268782   3.231   3.852  13.087  0.2017 -0.2734 -0.5127
15764TIP3    H168783   3.284   3.791  13.138  1.1164 -1.6665 -3.0636
15764TIP3    H268784   3.294   3.916  13.054 -0.4030  0.6959  0.1921
15765TIP3   OH268785   6.414   2.934   6.034  0.4813  0.4810  0.0658
15765TIP3    H168786   6.466   2.884   6.097  0.0895  1.1564  0.9431
15765TIP3    H268787   6.391   3.015   6.081 -3.7947 -1.0156  0.7545
15766TIP3   OH268788   1.640   0.370   2.180  0.6059 -0.2061  0.3604
15766TIP3    H168789   1.637   0.382   2.275 -0.7010 -0.6198  0.3826
15766TIP3    H268790   1.606   0.282   2.166 -0.1446  0.2211 -0.5688
15767TIP3   OH268791   3.712   0.362   5.097 -0.1866  0.1427  0.4081
15767TIP3    H168792   3.626   0.384   5.060  0.1086  1.7986  0.6785
15767TIP3    H268793   3.742   0.443   5.137  0.2029 -1.1538  2.8978
15768TIP3   OH268794   3.788   1.479   6.381  0.1462 -0.3935 -0.0546
15768TIP3    H168795   3.848   1.416   6.421  0.0201  0.2324  1.1396
15768TIP3    H268796   3.704   1.433   6.377  0.4588 -0.9042 -0.7683
15769TIP3   OH268797   5.712   4.280   4.098 -0.4841  0.1273  0.0390
15769TIP3    H168798   5.669   4.365   4.093  0.2433  0.4180 -2.0559
15769TIP3    H268799   5.805   4.301   4.087 -0.3583 -0.9710 -1.0780
15770TIP3   OH268800   4.463   4.585  16.427 -0.4610  0.6687  0.2343
15770TIP3    H168801   4.407   4.558  16.354  0.8994  2.0439 -1.3544
15770TIP3    H268802   4.413   4.654  16.471 -0.3723  1.3182 -0.6785
15771TIP3   OH268803   1.009   2.603   1.064  0.7812  0.4410 -0.1372
15771TIP3    H168804   0.946   2.631   0.998  0.9596  0.6304 -0.2263
15771TIP3    H268805   0.958   2.597   1.145  0.3563 -0.6984 -0.4794
15772TIP3   OH268806   2.457   6.439   2.990  0.2358  0.0559  0.5567
15772TIP3    H168807   2.461   6.425   3.085  2.3009  1.2821  0.6858
15772TIP3    H268808   2.367   6.467   2.974 -0.5113 -1.4472  1.9545
15773TIP3   OH268809   4.347   3.187  16.810 -0.1973 -0.5119  0.7065
15773TIP3    H168810   4.423   3.219  16.858 -1.5346  4.4966 -0.1912
15773TIP3    H268811   4.374   3.187  16.718 -1.1807  1.1230  0.3986
15774TIP3   OH268812   0.618   0.614   1.752 -0.0385  0.3506  0.2523
15774TIP3    H168813   0.565   0.685   1.718  0.2695 -0.4477 -1.9316
15774TIP3    H268814   0.705   0.653   1.767  0.0603  0.5019 -0.7011
15775TIP3   OH268815   5.575   1.459  15.842 -0.1213 -0.6370  0.0318
15775TIP3    H168816   5.639   1.508  15.893 -1.4873  0.1643  1.0104
15775TIP3    H268817   5.623   1.428  15.766  1.3301  0.2632  0.5690
15776TIP3   OH268818   3.377   0.082   6.816  0.7138  0.2364  0.9157
15776TIP3    H168819   3.385   0.147   6.746 -1.2597  0.8950  1.2457
15776TIP3    H268820   3.466   0.067   6.846  1.7051 -0.7757 -2.3659
15777TIP3   OH268821   0.393   3.877   1.589 -0.4394  0.1460 -0.2425
15777TIP3    H168822   0.398   3.784   1.570  0.1860  0.0919  0.1435
15777TIP3    H268823   0.387   3.920   1.504  1.8932 -0.1098 -0.5842
15778TIP3   OH268824   5.426   6.621  12.933 -0.3570  0.2144 -0.2532
15778TIP3    H168825   5.437   6.692  12.870  0.7521 -0.4789 -0.8470
15778TIP3    H268826   5.496   6.634  12.996 -0.1627 -0.3417 -0.3551
15779TIP3   OH268827   1.493   0.514  16.828  0.0208 -0.1165 -0.2462
15779TIP3    H168828   1.495   0.608  16.848 -0.3898  0.0727 -1.0786
15779TIP3    H268829   1.519   0.509  16.736 -1.8367 -0.6529 -0.7437
15780TIP3   OH268830   0.477   0.118  12.634 -0.2993  0.2862 -0.2605
15780TIP3    H168831   0.411   0.054  12.605 -0.7044  0.6098 -0.0520
15780TIP3    H268832   0.546   0.065  12.674 -0.1662 -0.1004 -0.9804
15781TIP3   OH268833   1.399   4.685  16.993  0.5478 -0.0834 -0.0588
15781TIP3    H168834   1.368   4.608  16.945 -0.7522  0.7572 -0.6117
15781TIP3    H268835   1.435   4.742  16.925  0.8567  0.0901  0.2573
15782TIP3   OH268836   6.464   6.497  13.696  0.4306  0.1203 -0.0318
15782TIP3    H168837   6.438   6.549  13.620  0.4392 -1.8470 -1.4116
15782TIP3    H268838   6.554   6.468  13.676  0.2206 -0.8883  0.4483
15783TIP3   OH268839   3.340   2.214  16.676  0.1708 -0.4358  0.0372
15783TIP3    H168840   3.387   2.230  16.758 -2.0939  0.2810  1.2239
15783TIP3    H268841   3.347   2.296  16.628 -0.1679 -0.2040  0.3788
15784TIP3   OH268842   0.733   5.666   4.959 -0.0130 -0.1020  0.2030
15784TIP3    H168843   0.780   5.745   4.934  1.7809 -0.8372  1.1411
15784TIP3    H268844   0.703   5.684   5.048 -0.1579 -0.2408  0.1821
15785TIP3   OH268845   1.461   6.722   1.859 -0.2716 -0.0838  0.2263
15785TIP3    H168846   1.543   6.692   1.899 -0.2802 -0.9921 -0.4475
15785TIP3    H268847   1.394   6.666   1.897 -0.4268 -0.1870 -0.2100
15786TIP3   OH268848   4.460   5.833  16.082  0.5645  0.1718 -0.4031
15786TIP3    H168849   4.366   5.822  16.071  0.6816 -0.7887 -0.4475
15786TIP3    H268850   4.472   5.928  16.088 -0.7391  0.2087  2.4954
15787TIP3   OH268851   5.249   4.953   0.328 -0.0743 -0.3340 -0.0016
15787TIP3    H168852   5.312   5.022   0.350  2.1860 -2.7589  1.4310
15787TIP3    H268853   5.202   4.936   0.410  1.0741 -2.1401  0.3098
15788TIP3   OH268854   0.379   0.544  13.676  0.0120  0.3921  0.4277
15788TIP3    H168855   0.422   0.588  13.603 -1.6391  1.7801  0.2520
15788TIP3    H268856   0.302   0.599  13.695 -0.3299 -0.6924  2.3004
15789TIP3   OH268857   6.506   4.338   0.926  0.4219  0.0730  0.4023
15789TIP3    H168858   6.485   4.289   0.847  0.8893 -2.2075  1.6381
15789TIP3    H268859   6.601   4.351   0.922  0.4781 -0.2478  0.7096
15790TIP3   OH268860   0.701   6.500  15.884  0.2347 -0.5604 -0.2252
15790TIP3    H168861   0.665   6.578  15.844  0.4575 -1.2782 -1.8803
15790TIP3    H268862   0.774   6.476  15.827  1.1436 -1.0768  1.1443
15791TIP3   OH268863   5.083   6.748  14.316 -0.7469 -0.0270 -0.4844
15791TIP3    H168864   5.045   6.726  14.402 -0.0981  0.5778 -0.0377
15791TIP3    H268865   5.054   6.838  14.299  3.7645  1.9946  1.7542
15792TIP3   OH268866   1.726   1.680   2.127  0.3031 -0.5576 -0.3499
15792TIP3    H168867   1.647   1.689   2.074  0.2904 -0.0443 -0.2497
15792TIP3    H268868   1.791   1.734   2.081 -0.3396  1.7908  1.3917
15793TIP3   OH268869   1.520   0.363  13.372 -0.1913  0.1174  0.1628
15793TIP3    H168870   1.588   0.303  13.343 -0.9311  0.2612 -1.9862
15793TIP3    H268871   1.483   0.398  13.291 -2.4704  0.4223  1.2860
15794TIP3   OH268872   5.298   1.795  14.054  0.0679 -0.0980 -0.2955
15794TIP3    H168873   5.274   1.716  14.102 -1.0067 -0.0437 -0.7235
15794TIP3    H268874   5.358   1.765  13.986 -1.1506 -0.7170 -1.1172
15795TIP3   OH268875   0.993   1.577  12.654  0.0326 -0.3575  0.5378
15795TIP3    H168876   0.922   1.557  12.714  0.9126  0.4361  1.8577
15795TIP3    H268877   0.979   1.668  12.629  0.8977 -0.0242  1.2449
15796TIP3   OH268878   2.589   4.601  16.214  0.0069  0.7091 -0.6845
15796TIP3    H168879   2.652   4.583  16.284 -0.9275  0.5518  0.1256
15796TIP3    H268880   2.643   4.609  16.135  0.8189 -1.9686 -0.4595
15797TIP3   OH268881   1.732   4.966   4.020  0.1659 -0.1387  0.3404
15797TIP3    H168882   1.808   4.908   4.011  0.5266  0.3089  0.4491
15797TIP3    H268883   1.733   5.019   3.941 -0.0927 -0.1938  0.2988
15798TIP3   OH268884   2.712   1.151   1.081 -0.4763  0.1461 -0.2608
15798TIP3    H168885   2.642   1.216   1.089 -2.4629 -1.9135 -0.4306
15798TIP3    H268886   2.711   1.126   0.989 -0.2901 -0.7359 -0.0263
15799TIP3   OH268887   1.137   5.949  10.876  0.1205  0.2027 -0.5698
15799TIP3    H168888   1.169   6.033  10.910 -0.3328  0.6355 -1.2073
15799TIP3    H268889   1.125   5.895  10.954  1.6608  0.2951 -0.2558
15800TIP3   OH268890   4.938   1.690   3.420  0.0616 -0.4096 -0.3344
15800TIP3    H168891   4.850   1.652   3.428  0.5251 -1.5041 -0.4048
15800TIP3    H268892   4.928   1.779   3.454 -1.0073 -0.6313 -0.0424
15801TIP3   OH268893   2.682   5.574   5.421  0.3576  0.1188  0.4792
15801TIP3    H168894   2.602   5.623   5.404  1.4438  1.3736 -1.1749
15801TIP3    H268895   2.701   5.589   5.514 -0.4376  1.1473  0.4782
15802TIP3   OH268896   0.547   2.578   4.098  0.3649  0.0125 -0.2718
15802TIP3    H168897   0.527   2.516   4.028 -0.0663  0.7521 -0.8074
15802TIP3    H268898   0.510   2.537   4.177 -0.5320 -0.0936 -0.7359
15803TIP3   OH268899   0.716   6.793   2.780  0.9555 -0.0826  0.2644
15803TIP3    H168900   0.760   6.749   2.853  4.0354  1.3847 -0.6205
15803TIP3    H268901   0.660   6.725   2.743 -0.2458 -1.0297  3.5883
15804TIP3   OH268902   0.356   0.347   3.212  0.3884  0.4542 -0.3157
15804TIP3    H168903   0.263   0.365   3.225  0.0220 -0.4034 -1.5960
15804TIP3    H268904   0.392   0.427   3.174  0.3122  1.0069  0.7673
15805TIP3   OH268905   4.109   3.060   0.921 -0.3880 -0.0710  0.2330
15805TIP3    H168906   4.065   3.126   0.866 -0.3754 -1.2361 -1.2200
15805TIP3    H268907   4.127   2.988   0.860  0.5149 -0.9826  1.5819
15806TIP3   OH268908   5.931   0.893  14.880  0.0521 -0.2585 -0.6429
15806TIP3    H168909   5.951   0.896  14.787  0.5974  1.2142 -0.4955
15806TIP3    H268910   5.839   0.866  14.884 -0.2651  0.6467 -1.6437
15807TIP3   OH268911   5.972   0.959  12.335 -0.3291  0.4962  0.3015
15807TIP3    H168912   6.058   0.963  12.377 -0.5725 -1.7908  1.1234
15807TIP3    H268913   5.910   0.950  12.408 -1.1401  0.8038 -0.3445
15808TIP3   OH268914   3.579   5.940   1.437 -0.3104 -0.0568  0.0658
15808TIP3    H168915   3.649   5.906   1.493  0.0457  1.3963  0.5384
15808TIP3    H268916   3.505   5.881   1.452  0.2373 -0.5286  0.9777
15809TIP3   OH268917   0.674   1.342   5.315 -0.4942 -0.2041  0.2268
15809TIP3    H168918   0.644   1.253   5.297  0.7390 -0.3696 -1.0434
15809TIP3    H268919   0.595   1.389   5.341 -1.1672 -1.6425  0.8236
15810TIP3   OH268920   5.978   3.696  10.513 -0.1791  0.0053  0.1127
15810TIP3    H168921   6.019   3.775  10.478  0.4702  0.7775  2.5243
15810TIP3    H268922   6.026   3.677  10.593 -0.7153 -2.5214 -0.1255
15811TIP3   OH268923   0.657   4.501   2.542  0.4626  0.3056  0.5967
15811TIP3    H168924   0.610   4.544   2.613  0.5722  0.6220  0.4804
15811TIP3    H268925   0.602   4.514   2.465  1.6313  2.3534  0.0589
15812TIP3   OH268926   5.985   2.164  11.412  0.2064 -0.0997  0.4420
15812TIP3    H168927   6.038   2.233  11.452  1.3999 -0.2670 -0.8194
15812TIP3    H268928   6.037   2.085  11.422  0.1805 -0.2708 -0.7874
15813TIP3   OH268929   2.467   4.002  12.935 -0.5063 -0.5464  0.1748
15813TIP3    H168930   2.393   4.048  12.895  0.3673  0.1053 -0.7009
15813TIP3    H268931   2.478   4.044  13.021 -0.5458 -0.0021 -0.0854
15814TIP3   OH268932   6.131   0.099   1.212  0.3914 -0.2635 -0.1353
15814TIP3    H168933   6.063   0.167   1.209  1.1625  0.5116 -0.1514
15814TIP3    H268934   6.100   0.038   1.279  0.7719  1.2858  1.4987
15815TIP3   OH268935   3.861   5.453  13.416  0.2130  0.5623  0.6463
15815TIP3    H168936   3.829   5.389  13.479  0.3311  0.4251  0.5674
15815TIP3    H268937   3.787   5.469  13.358  0.4194 -0.0859  0.1989
15816TIP3   OH268938   5.006   3.891   5.882 -0.9195  0.0236  0.3226
15816TIP3    H168939   4.962   3.833   5.820 -3.3780  1.6160  0.5039
15816TIP3    H268940   5.016   3.837   5.961 -1.3402 -0.7740 -0.1568
15817TIP3   OH268941   1.006   3.058  11.043  0.2548  0.1926 -0.2358
15817TIP3    H168942   0.980   3.129  10.985  1.1203  1.5844  1.0473
15817TIP3    H268943   0.948   3.067  11.119  0.3214 -0.5134 -0.0955
15818TIP3   OH268944   2.787   1.865   5.232 -0.4968  0.1228  0.0865
15818TIP3    H168945   2.773   1.897   5.143  0.5343  0.1275 -0.0843
15818TIP3    H268946   2.865   1.912   5.263  1.5256 -2.7295 -0.4394
15819TIP3   OH268947   0.447   1.803  12.392 -0.1882  0.1878  0.3899
15819TIP3    H168948   0.490   1.754  12.463 -0.6090 -0.7196  0.0302
15819TIP3    H268949   0.450   1.744  12.317  0.1407  1.0998 -0.3222
15820TIP3   OH268950   0.428   2.620  14.500  0.0207  0.1338  0.1044
15820TIP3    H168951   0.422   2.556  14.571 -1.3859  0.1599  0.0236
15820TIP3    H268952   0.495   2.585  14.442  1.3811  0.2481  1.5661
15821TIP3   OH268953   1.652   0.348   0.376 -0.5981  0.0842 -0.0601
15821TIP3    H168954   1.570   0.305   0.402  1.5982 -4.2987  0.0934
15821TIP3    H268955   1.653   0.340   0.280 -0.6702  0.8251 -0.1277
15822TIP3   OH268956   6.481   3.559   1.509  0.0523  0.4943  0.0183
15822TIP3    H168957   6.391   3.568   1.478  0.6521 -0.0043 -1.9619
15822TIP3    H268958   6.479   3.592   1.599 -2.0785  0.5621 -0.0281
15823TIP3   OH268959   4.333   1.136   3.931 -0.4423  0.5078 -0.4943
15823TIP3    H168960   4.366   1.055   3.893  0.6704  1.2088 -1.0515
15823TIP3    H268961   4.323   1.116   4.024 -0.0436 -0.2295 -0.6066
15824TIP3   OH268962   1.507   3.076   4.116  0.1272  0.7456  0.5312
15824TIP3    H168963   1.460   3.003   4.076 -0.2558  2.2717 -1.9619
15824TIP3    H268964   1.599   3.051   4.111 -0.1925 -0.8965  2.5494
15825TIP3   OH268965   4.577   5.595  13.046  0.8731  0.5475  0.4933
15825TIP3    H168966   4.482   5.580  13.046  0.9362  0.0874  2.0724
15825TIP3    H268967   4.614   5.514  13.081  1.7361  1.3877  1.5750
15826TIP3   OH268968   4.544   2.787   3.553  0.0597 -0.4511 -0.2560
15826TIP3    H168969   4.512   2.700   3.574 -2.6087  0.2668 -1.1309
15826TIP3    H268970   4.521   2.800   3.461  1.6760  0.6457 -0.5346
15827TIP3   OH268971   6.463   0.546  12.969  0.3035  0.3375  0.1255
15827TIP3    H168972   6.471   0.470  13.027  1.1325 -0.2835 -0.7771
15827TIP3    H268973   6.386   0.526  12.915  0.8602 -0.1454 -0.5021
15828TIP3   OH268974   1.356   2.764  12.517 -0.2593 -0.0858  1.1704
15828TIP3    H168975   1.449   2.785  12.520 -0.0641 -0.9207  1.1380
15828TIP3    H268976   1.312   2.849  12.509  0.5156  0.2761  0.7105
15829TIP3   OH268977   0.728   0.540  15.112 -0.0768 -0.4189  0.1851
15829TIP3    H168978   0.740   0.487  15.191 -0.1793 -0.6929  0.0158
15829TIP3    H268979   0.647   0.507  15.073  0.6925 -1.2053 -0.7624
15830TIP3   OH268980   1.461   0.329   0.595  0.6995 -0.2614  0.6926
15830TIP3    H168981   1.529   0.263   0.610  0.2162 -1.1450 -0.8525
15830TIP3    H268982   1.392   0.307   0.659  0.9968 -0.6123  0.8968
15831TIP3   OH268983   3.940   3.444   0.208 -0.2729  0.0739 -0.3213
15831TIP3    H168984   3.978   3.365   0.248 -0.9246  0.1582  0.4794
15831TIP3    H268985   3.960   3.435   0.115  0.8731 -0.3568 -0.0484
15832TIP3   OH268986   1.541   3.085   6.199 -0.2107  0.7554  0.1034
15832TIP3    H168987   1.502   3.023   6.260 -1.4747  0.9511 -0.4912
15832TIP3    H268988   1.634   3.061   6.196 -0.5588 -0.6612  0.4002
15833TIP3   OH268989   3.596   6.040   2.231 -0.5144 -0.2561 -0.0211
15833TIP3    H168990   3.623   6.122   2.271 -1.2731 -0.0551  0.0869
15833TIP3    H268991   3.524   6.064   2.173 -1.1648 -0.9330  0.4919
15834TIP3   OH268992   6.539   1.674  13.029 -0.7696  0.4627 -0.0624
15834TIP3    H168993   6.534   1.651  13.122 -1.3649  1.9418  0.3053
15834TIP3    H268994   6.449   1.665  12.998 -0.9204  1.6957 -0.0291
15835TIP3   OH268995   6.559   6.091   1.647 -0.2098 -0.3397  0.7126
15835TIP3    H168996   6.517   6.005   1.654 -1.8376  0.2801 -0.8034
15835TIP3    H268997   6.593   6.109   1.734 -1.5807 -1.6853  1.5458
15836TIP3   OH268998   6.364   1.633   1.939 -0.0910  0.1157  0.3916
15836TIP3    H168999   6.307   1.668   2.008  0.5939 -0.2877  1.1607
15836TIP3    H269000   6.325   1.666   1.858 -0.1241  1.6995  1.0378
15837TIP3   OH269001   1.773   1.787   2.691  0.7209  0.6701 -0.1821
15837TIP3    H169002   1.859   1.749   2.709 -0.2940 -1.1273  1.0236
15837TIP3    H269003   1.729   1.786   2.776 -0.9247  0.4614 -1.0350
15838TIP3   OH269004   4.328   2.185  10.502 -0.5647  0.8356 -0.2431
15838TIP3    H169005   4.355   2.249  10.567  0.9956  0.8461 -0.8781
15838TIP3    H269006   4.361   2.101  10.535 -2.4290  0.3455  0.4900
15839TIP3   OH269007   0.204   3.784  11.744  0.1420  0.1476  0.4374
15839TIP3    H169008   0.292   3.762  11.713 -0.5625 -0.7301 -0.9763
15839TIP3    H269009   0.204   3.879  11.752  0.3013  0.4362 -2.4557
15840TIP3   OH269010   0.865   5.688  10.636 -0.1303 -0.7128  0.1855
15840TIP3    H169011   0.891   5.778  10.658 -0.5175 -1.0360  2.0108
15840TIP3    H269012   0.875   5.683  10.541  2.7430  0.3659  0.3764
15841TIP3   OH269013   4.937   4.691   2.372  0.4351 -0.1581  0.3092
15841TIP3    H169014   4.889   4.774   2.379  1.4566  0.6393 -1.9309
15841TIP3    H269015   5.013   4.711   2.317  0.9166 -2.4821  0.0828
15842TIP3   OH269016   2.249   6.445   0.066 -0.1184 -0.3482  0.3889
15842TIP3    H169017   2.281   6.371   0.118 -0.6900 -0.5119  0.5129
15842TIP3    H269018   2.164   6.416   0.033 -0.7344  0.5640  1.1325
15843TIP3   OH269019   4.087   1.507  12.831 -0.2477  0.2027 -1.1001
15843TIP3    H169020   4.146   1.580  12.849 -1.8499  1.4762 -0.9031
15843TIP3    H269021   4.039   1.494  12.913  0.1346 -1.1724 -1.0921
15844TIP3   OH269022   0.525   2.857   3.464  0.3982  0.3810  0.2831
15844TIP3    H169023   0.445   2.825   3.421 -0.1949  1.0833  0.8593
15844TIP3    H269024   0.538   2.796   3.537  0.9531 -0.3308 -0.4045
15845TIP3   OH269025   0.523   2.526  11.551 -0.6635 -0.1830 -0.5282
15845TIP3    H169026   0.566   2.611  11.561 -0.5014 -0.2800 -0.4005
15845TIP3    H269027   0.589   2.462  11.578 -0.6251 -0.3789 -1.0666
15846TIP3   OH269028   2.195   3.282   2.393  0.6683 -0.5771 -0.0606
15846TIP3    H169029   2.221   3.363   2.436  0.4543  0.2501 -1.4449
15846TIP3    H269030   2.260   3.217   2.421  1.5008  0.3510  0.1715
15847TIP3   OH269031   6.651   5.806  12.799  0.3714 -0.0191 -0.4404
15847TIP3    H169032   6.724   5.839  12.747  0.1364 -0.5586 -1.1262
15847TIP3    H269033   6.588   5.878  12.799  1.9559  1.4605  2.3487
15848TIP3   OH269034   5.277   6.630   5.787 -0.0726  0.1166  0.3215
15848TIP3    H169035   5.357   6.595   5.827 -1.2683 -1.8824  1.0634
15848TIP3    H269036   5.257   6.708   5.839  0.3027 -0.4918  1.3996
15849TIP3   OH269037   6.372   2.077   2.209  0.0800 -0.4720 -0.4766
15849TIP3    H169038   6.442   2.139   2.187 -2.5939  2.3752 -1.2588
15849TIP3    H269039   6.341   2.106   2.295  0.3520 -2.2200  0.2351
15850TIP3   OH269040   2.906   4.297  12.755  0.7976  0.8006  0.5687
15850TIP3    H169041   2.994   4.261  12.754 -0.1149 -1.4901  0.2449
15850TIP3    H269042   2.907   4.361  12.826  2.1497 -0.7243  1.9643
15851TIP3   OH269043   2.442   2.988   3.096 -0.1850 -0.6761  0.2606
15851TIP3    H169044   2.398   2.925   3.039 -0.2927 -0.7145  0.3856
15851TIP3    H269045   2.445   2.945   3.182 -0.0208 -0.6205  0.2834
15852TIP3   OH269046   5.040   2.577   1.665  0.4765 -0.3012 -0.0516
15852TIP3    H169047   4.961   2.523   1.672  0.8675 -0.8557  0.1222
15852TIP3    H269048   5.084   2.544   1.586 -0.5770  1.4897 -1.4276
15853TIP3   OH269049   1.974   6.666   0.348  0.4313 -0.0468  0.6183
15853TIP3    H169050   2.026   6.704   0.277  1.7238 -1.3231  0.8831
15853TIP3    H269051   1.903   6.620   0.304  1.5980 -1.3848  0.1150
15854TIP3   OH269052   2.002   5.924   4.507 -0.3025  0.5018  0.2082
15854TIP3    H169053   1.959   5.850   4.551  0.5717 -0.1179  0.0326
15854TIP3    H269054   1.977   5.913   4.415 -0.0847  0.3590  0.1657
15855TIP3   OH269055   2.721   3.915  12.818 -0.6057 -0.3610  0.8030
15855TIP3    H169056   2.640   3.946  12.859  0.1479  0.4360  1.7353
15855TIP3    H269057   2.790   3.942  12.879  0.2827 -1.8498  0.4750
15856TIP3   OH269058   3.844   4.296   4.037 -0.7719 -0.1173 -0.3087
15856TIP3    H169059   3.777   4.341   3.986 -2.3127 -0.7464  1.1176
15856TIP3    H269060   3.800   4.219   4.072  1.0961 -1.3065 -0.5030
15857TIP3   OH269061   5.170   1.861   0.839 -0.6221  0.7636  0.7058
15857TIP3    H169062   5.200   1.931   0.780  1.5798 -0.5112  0.2690
15857TIP3    H269063   5.250   1.827   0.879 -1.4914 -2.4901 -0.1876
15858TIP3   OH269064   3.532   2.096   3.093 -0.2999  0.4039 -0.1279
15858TIP3    H169065   3.596   2.067   3.029  1.5546  0.9890  1.4124
15858TIP3    H269066   3.491   2.173   3.053  2.1456  1.8817  0.1137
15859TIP3   OH269067   0.499   3.911   3.239 -0.0003  0.0782  0.7844
15859TIP3    H169068   0.523   3.964   3.315 -2.4310  0.5118  1.3126
15859TIP3    H269069   0.580   3.867   3.214  1.3071  1.4735  2.3907
15860TIP3   OH269070   6.772   4.039  13.145  0.2862 -0.0437  0.2332
15860TIP3    H169071   6.702   4.004  13.200  1.3390  1.4184  2.5838
15860TIP3    H269072   6.738   4.121  13.110 -0.7215 -1.4151 -2.0955
15861TIP3   OH269073   4.301   1.627   5.300 -0.2983  0.1751  0.2565
15861TIP3    H169074   4.221   1.639   5.351 -0.9427 -1.8064 -0.2270
15861TIP3    H269075   4.304   1.703   5.242 -1.1823  0.8861  1.1385
15862TIP3   OH269076   0.726   4.186  11.464  0.0178  0.3548 -0.1073
15862TIP3    H169077   0.736   4.141  11.381  0.1140  1.6405 -0.8144
15862TIP3    H269078   0.714   4.278  11.440  0.7244  0.8383  1.3120
15863TIP3   OH269079   3.868   2.706  16.888 -0.3016 -0.3624 -0.3225
15863TIP3    H169080   3.857   2.615  16.914 -0.4628 -0.3379 -0.3104
15863TIP3    H269081   3.961   2.725  16.906 -0.2451 -0.5521 -0.4160
15864TIP3   OH269082   6.239   5.217   2.535  0.3402  0.1875 -0.0209
15864TIP3    H169083   6.192   5.288   2.580 -0.3210  0.3569 -0.9384
15864TIP3    H269084   6.228   5.141   2.591  1.1688  0.8450  1.0437
15865TIP3   OH269085   6.123   4.795  12.825 -0.1279 -0.4447  0.2512
15865TIP3    H169086   6.137   4.844  12.744  0.1718  1.2207  1.3050
15865TIP3    H269087   6.029   4.779  12.827 -0.1861 -0.1901 -0.2432
15866TIP3   OH269088   2.143   5.533  14.871 -0.7679  0.0478  0.2994
15866TIP3    H169089   2.127   5.454  14.820 -0.3715  0.9279 -1.2333
15866TIP3    H269090   2.236   5.531  14.890 -1.1200 -0.8388  1.9628
15867TIP3   OH269091   0.476   2.692   4.699  0.1605  0.2142 -0.5227
15867TIP3    H169092   0.394   2.741   4.686 -1.0652 -1.8295 -0.7285
15867TIP3    H269093   0.448   2.601   4.708  2.3192 -0.3395  0.8509
15868TIP3   OH269094   0.981   3.870  13.403  0.1038 -0.3712 -0.9112
15868TIP3    H169095   0.935   3.899  13.324  1.3628  0.5570 -1.3384
15868TIP3    H269096   0.939   3.788  13.428 -1.2553  0.0709 -1.7166
15869TIP3   OH269097   5.791   4.556  16.652  0.0464  0.2045 -0.1788
15869TIP3    H169098   5.759   4.530  16.565 -3.6129  1.9044  0.5576
15869TIP3    H269099   5.754   4.643  16.665  0.6325 -0.0003  3.0427
15870TIP3   OH269100   1.918   4.516   5.006 -0.0027 -0.5518  0.0343
15870TIP3    H169101   1.893   4.604   4.979  0.9676 -0.1111  0.5629
15870TIP3    H269102   1.841   4.483   5.054 -0.0058  0.3790  0.6830
15871TIP3   OH269103   1.558   6.080   4.904 -0.0736  0.7666 -0.2558
15871TIP3    H169104   1.625   6.116   4.845 -1.3585  1.7189 -1.1568
15871TIP3    H269105   1.491   6.148   4.908 -1.3958 -0.5307 -0.0465
15872TIP3   OH269106   6.464   2.273   0.138  0.2789  0.3013  0.1126
15872TIP3    H169107   6.466   2.229   0.053  0.4060 -1.6195  1.0642
15872TIP3    H269108   6.525   2.222   0.192 -1.8600 -0.2197  2.1327
15873TIP3   OH269109   2.620   5.213   2.638  0.1976 -0.1947 -0.5583
15873TIP3    H169110   2.639   5.151   2.568 -0.4441  0.6660 -1.5121
15873TIP3    H269111   2.533   5.247   2.617  0.8495  1.5682 -0.4700
15874TIP3   OH269112   0.047   0.178  13.923  0.2178  0.1682  0.0920
15874TIP3    H169113   0.135   0.141  13.918 -0.1838 -0.8187  0.0511
15874TIP3    H269114   0.035   0.221  13.838  0.3038 -0.5468 -0.2919
15875TIP3   OH269115   0.656   6.323   3.777 -0.1015 -0.0308 -0.4220
15875TIP3    H169116   0.694   6.367   3.701  0.1000 -0.3646 -0.5151
15875TIP3    H269117   0.597   6.388   3.815  0.1140  0.2849 -0.6213
15876TIP3   OH269118   0.128   4.709  14.010 -0.2527 -0.0112 -0.8123
15876TIP3    H169119   0.156   4.648  13.942 -1.0427  0.1521 -1.2838
15876TIP3    H269120   0.071   4.771  13.965 -1.9231 -0.7267  0.2592
15877TIP3   OH269121   2.015   1.549  11.676  0.2299 -0.8308  0.7687
15877TIP3    H169122   2.007   1.456  11.697 -0.4114 -1.4568 -2.0083
15877TIP3    H269123   1.947   1.591  11.728 -1.6868 -2.3864 -0.3880
15878TIP3   OH269124   3.139   4.223   6.114 -0.4666 -1.0878 -0.4364
15878TIP3    H169125   3.233   4.206   6.127 -0.2610  0.8550  0.7437
15878TIP3    H269126   3.095   4.154   6.163  0.3442  0.9282  3.2597
15879TIP3   OH269127   5.758   3.630  13.888 -0.5853  0.3014  0.2587
15879TIP3    H169128   5.685   3.590  13.936 -1.2080  0.5787 -0.4355
15879TIP3    H269129   5.755   3.722  13.913 -0.9263  0.4513 -0.3217
15880TIP3   OH269130   5.121   3.791  12.987 -0.1571  0.7198  0.1578
15880TIP3    H169131   5.120   3.728  13.059 -0.6372 -0.0564 -0.5225
15880TIP3    H269132   5.212   3.792  12.957  0.3677  2.0891  1.6563
15881TIP3   OH269133   4.145   2.370  11.993 -0.7911 -0.3301  0.1198
15881TIP3    H169134   4.093   2.444  11.962 -0.0258 -0.4123 -1.4338
15881TIP3    H269135   4.193   2.403  12.068 -0.6266  0.6974 -0.4265
15882TIP3   OH269136   4.640   2.695   0.472 -0.4721 -0.2987 -0.4990
15882TIP3    H169137   4.642   2.772   0.529 -0.1264 -0.1498 -0.7089
15882TIP3    H269138   4.565   2.644   0.503 -1.1097  0.4490 -0.7987
15883TIP3   OH269139   5.949   0.085  15.076 -0.8376  0.3320  0.0339
15883TIP3    H169140   5.938  -0.004  15.109 -0.2493  0.2210 -0.0695
15883TIP3    H269141   5.944   0.076  14.981 -0.3315  0.3463  0.0054
15884TIP3   OH269142   4.629   4.054  11.988 -0.0472 -0.2315  0.2373
15884TIP3    H169143   4.681   3.982  11.955 -0.7501 -1.2871  1.3919
15884TIP3    H269144   4.543   4.016  12.006 -1.1652  1.4292 -1.4209
15885TIP3   OH269145   6.238   0.065   1.925  0.0921 -0.4840 -0.0406
15885TIP3    H169146   6.287   0.026   1.998  0.2653  0.6371  0.4597
15885TIP3    H269147   6.262   0.158   1.928 -1.6562 -0.0204 -0.1312
15886TIP3   OH269148   0.121   3.699   0.081  0.6965 -0.0701 -0.3537
15886TIP3    H169149   0.125   3.605   0.063 -0.5789 -0.4806  1.3080
15886TIP3    H269150   0.036   3.727   0.046  0.1629  0.0136  0.9550
15887TIP3   OH269151   3.963   6.473  12.811 -0.4308  0.7007 -0.1989
15887TIP3    H169152   4.058   6.486  12.807 -0.3965  0.4035 -0.3717
15887TIP3    H269153   3.945   6.410  12.741 -0.5302 -0.6061  0.9878
15888TIP3   OH269154   3.309   4.804  13.031 -0.5088 -0.3731  0.5697
15888TIP3    H169155   3.312   4.805  12.935 -1.5796 -1.6211  0.5095
15888TIP3    H269156   3.397   4.778  13.057 -0.5477 -1.2075 -0.1134
15889TIP3   OH269157   3.572   0.025  11.248 -0.1527 -0.4258  0.8563
15889TIP3    H169158   3.658   0.005  11.212 -1.2545 -1.2013 -1.4214
15889TIP3    H269159   3.558   0.118  11.227 -0.2047 -0.5106  0.5129
15890TIP3   OH269160   1.749   5.088   0.127  0.3549 -0.4238 -0.2869
15890TIP3    H169161   1.707   5.166   0.162 -0.0774 -0.4390 -0.7558
15890TIP3    H269162   1.840   5.113   0.113  0.5805 -0.4852  1.0422
15891TIP3   OH269163   0.163   5.288   3.347  0.1399  0.3979 -0.2173
15891TIP3    H169164   0.158   5.250   3.260  2.5869 -2.0502  0.6408
15891TIP3    H269165   0.107   5.232   3.401  1.7290 -0.5023  0.5397
15892TIP3   OH269166   3.991   2.770   2.006  0.1256  0.6523 -0.2386
15892TIP3    H169167   3.965   2.702   1.944 -1.9185  0.0842  1.1844
15892TIP3    H269168   4.004   2.723   2.089  2.9617  1.3714 -0.2185
15893TIP3   OH269169   6.343   1.304   0.948  0.2030 -0.1791 -0.0616
15893TIP3    H169170   6.346   1.240   1.019  1.2365  0.2990  0.3453
15893TIP3    H269171   6.434   1.313   0.920  0.3938  2.4493  1.1595
15894TIP3   OH269172   2.443   5.222   5.655 -0.6309  0.3582  0.1652
15894TIP3    H169173   2.384   5.147   5.667 -2.1978  1.6095  0.4635
15894TIP3    H269174   2.421   5.256   5.568  0.3643  0.2357 -0.1407
15895TIP3   OH269175   1.848   4.172  13.299  0.1740  0.1129  0.3638
15895TIP3    H169176   1.890   4.256  13.281 -0.3056  0.4576  0.8438
15895TIP3    H269177   1.905   4.108  13.258  0.6442  0.6588  0.1553
15896TIP3   OH269178   3.457   3.916  15.104  0.9237 -0.3934  0.2389
15896TIP3    H169179   3.533   3.919  15.046  0.3876  0.7486 -0.4191
15896TIP3    H269180   3.461   3.998  15.153 -1.3068  0.9229 -1.6746
15897TIP3   OH269181   1.257   3.520  15.162  0.5078 -0.4646  0.1394
15897TIP3    H169182   1.211   3.599  15.133 -0.7104 -1.3297 -0.2776
15897TIP3    H269183   1.297   3.486  15.082  2.4489  0.6267  0.5962
15898TIP3   OH269184   4.217   6.529  16.151  0.1948  0.2098  0.0215
15898TIP3    H169185   4.139   6.477  16.174  0.5387 -0.5846 -0.5705
15898TIP3    H269186   4.247   6.491  16.068  0.5839  1.2233 -0.3066
15899TIP3   OH269187   5.540   6.756   5.159  0.1357  0.7716  0.5124
15899TIP3    H169188   5.625   6.712   5.152  1.0732  2.5515  0.3717
15899TIP3    H269189   5.511   6.765   5.068  0.1639  0.8637  0.5123
15900TIP3   OH269190   0.804   6.683  15.681  0.1782 -0.3146  0.3728
15900TIP3    H169191   0.892   6.712  15.707  0.5847 -1.4535  0.2861
15900TIP3    H269192   0.799   6.702  15.587  0.7284 -1.2304  0.1554
15901TIP3   OH269193   3.952   6.096  11.807 -0.7632 -0.9309  0.5314
15901TIP3    H169194   4.007   6.038  11.754 -1.2110 -0.3216 -0.6205
15901TIP3    H269195   3.977   6.076  11.897  1.6750 -0.3516  0.0350
15902TIP3   OH269196   6.590   1.360   0.866  0.3076 -0.3217 -0.2463
15902TIP3    H169197   6.616   1.429   0.927  1.8432 -0.3454 -0.8523
15902TIP3    H269198   6.592   1.401   0.780 -1.4567 -0.4002 -0.3383
15903TIP3   OH269199   1.540   0.442   1.652  0.8214  0.0566 -0.6042
15903TIP3    H169200   1.582   0.357   1.658  0.9054  0.0156 -1.7548
15903TIP3    H269201   1.528   0.469   1.743  2.0300 -0.5700 -0.2485
15904TIP3   OH269202   0.414   6.204   5.989 -0.2946 -0.4576  0.0476
15904TIP3    H169203   0.326   6.242   5.986 -0.4843 -0.8275  0.7473
15904TIP3    H269204   0.401   6.120   6.033  0.2904 -0.8478 -0.5261
15905TIP3   OH269205   4.967   1.976   0.174 -1.2238 -0.5857 -0.2446
15905TIP3    H169206   4.886   1.990   0.222 -0.2024 -0.6726  1.5484
15905TIP3    H269207   5.014   1.909   0.223  0.9663  1.1204  0.1025
15906TIP3   OH269208   4.830   6.511  15.999 -0.3234  0.5810 -0.9030
15906TIP3    H169209   4.865   6.437  15.950 -0.3124  0.8029 -1.2342
15906TIP3    H269210   4.848   6.588  15.943 -0.3847  0.8228 -0.5905
15907TIP3   OH269211   1.381   4.596  15.236 -0.2994  0.0284 -0.0698
15907TIP3    H169212   1.339   4.557  15.313 -0.8143 -1.0512 -0.8896
15907TIP3    H269213   1.472   4.610  15.263 -0.1404 -1.6097  0.2933
15908TIP3   OH269214   4.405   0.935   4.124 -0.3419  0.0469  0.5948
15908TIP3    H169215   4.376   0.863   4.180 -0.7591 -1.2076 -1.1682
15908TIP3    H269216   4.437   1.002   4.184 -2.4459 -0.5176  2.3901
15909TIP3   OH269217   0.782   2.906   5.545  0.0199  0.3961 -0.4195
15909TIP3    H169218   0.851   2.972   5.537 -1.0245  1.4651 -0.7258
15909TIP3    H269219   0.741   2.923   5.630 -0.6712  0.5618 -0.7814
15910TIP3   OH269220   1.168   1.453  14.196  0.1205  0.4204  0.1801
15910TIP3    H169221   1.204   1.417  14.277  0.5702 -0.7307 -0.5234
15910TIP3    H269222   1.103   1.517  14.226 -0.7380 -0.9983  1.4603
15911TIP3   OH269223   4.286   4.728  14.437  0.0622 -0.6611  0.4875
15911TIP3    H169224   4.231   4.650  14.438 -1.1553  0.1480 -0.8219
15911TIP3    H269225   4.304   4.744  14.344  0.3663  0.5658  0.7449
15912TIP3   OH269226   4.088   0.995  15.432  0.7055  0.2311 -0.5323
15912TIP3    H169227   4.091   0.961  15.522 -0.3888 -1.1095 -0.9876
15912TIP3    H269228   4.088   0.917  15.377  1.5017  1.0549 -1.7131
15913TIP3   OH269229   5.821   6.568   3.067 -0.8510 -0.1781 -0.0164
15913TIP3    H169230   5.751   6.540   3.008 -1.2618  1.2944 -0.2673
15913TIP3    H269231   5.834   6.495   3.127  1.1473 -2.6269 -3.3089
15914TIP3   OH269232   1.650   0.637   0.181 -0.1416  0.1708  0.6445
15914TIP3    H169233   1.636   0.721   0.138 -0.7304  0.5745  1.6340
15914TIP3    H269234   1.588   0.578   0.139 -0.5191  0.4987  0.7441
15915TIP3   OH269235   4.059   6.424   5.332  0.0834  0.1879  0.6375
15915TIP3    H169236   4.131   6.470   5.288  0.0274  1.9114  2.2504
15915TIP3    H269237   4.038   6.351   5.274  0.5339  1.8966 -1.7780
15916TIP3   OH269238   4.333   4.943   0.232  0.1243 -0.6710 -0.9812
15916TIP3    H169239   4.401   4.961   0.298 -0.3076 -0.8124 -0.4988
15916TIP3    H269240   4.371   4.976   0.150  0.5683 -0.2809 -0.6261
15917TIP3   OH269241   5.412   1.633   3.570  0.3353  0.0120 -0.2011
15917TIP3    H169242   5.410   1.694   3.644  1.5843  0.4022 -0.4838
15917TIP3    H269243   5.338   1.660   3.515  1.5260  1.9583 -0.8656
15918TIP3   OH269244   1.057   2.633  16.126  0.0029  0.6378 -0.4568
15918TIP3    H169245   1.138   2.683  16.136  0.1582  0.2321  0.3469
15918TIP3    H269246   1.006   2.656  16.204 -0.4533  0.5167 -0.7202
15919TIP3   OH269247   2.817   1.013   4.340  0.3354 -0.0357  0.1581
15919TIP3    H169248   2.899   0.967   4.354  0.9039  1.2439  1.1751
15919TIP3    H269249   2.770   1.005   4.423  0.3564  1.0080  0.2879
15920TIP3   OH269250   6.198   6.489   0.692  0.5893 -0.4679 -0.1788
15920TIP3    H169251   6.269   6.432   0.719  1.6153  0.6186 -0.5385
15920TIP3    H269252   6.121   6.455   0.737  1.2696 -1.8407 -0.0298
15921TIP3   OH269253   1.236   1.463   1.959  0.0445  0.4407 -0.4229
15921TIP3    H169254   1.198   1.406   2.026 -0.4661  1.0714 -0.1703
15921TIP3    H269255   1.328   1.438   1.955 -0.5646 -1.7063 -1.6576
15922TIP3   OH269256   5.487   3.850  14.410 -0.3609 -0.3986 -0.8531
15922TIP3    H169257   5.412   3.906  14.434 -0.5831 -1.5428  1.2052
15922TIP3    H269258   5.558   3.912  14.391 -1.3086  0.6420 -1.0704
15923TIP3   OH269259   6.319   5.146  12.453 -0.0862 -1.2349  0.3225
15923TIP3    H169260   6.285   5.233  12.431 -1.1043 -1.9473 -0.9653
15923TIP3    H269261   6.391   5.163  12.514  1.2924  0.6670 -1.7616
15924TIP3   OH269262   4.032   6.251  14.473 -0.1528  0.2590 -0.1972
15924TIP3    H169263   4.069   6.173  14.431 -2.0098  0.0665 -1.5229
15924TIP3    H269264   3.997   6.219  14.556  0.2840 -0.0489 -0.1261
15925TIP3   OH269265   5.002   1.919  12.902  0.1565 -0.1670 -0.5170
15925TIP3    H169266   5.019   2.001  12.856  2.0386  0.1933  0.7782
15925TIP3    H269267   4.972   1.945  12.989  0.3524 -0.8380 -0.2428
15926TIP3   OH269268   4.758   6.136   0.152 -0.1585 -0.0719  0.1362
15926TIP3    H169269   4.782   6.228   0.148  0.8611 -0.2840  1.0984
15926TIP3    H269270   4.681   6.134   0.209  1.2856 -0.0772  2.1273
15927TIP3   OH269271   1.457   3.888  11.648 -0.4061 -0.2350  0.4668
15927TIP3    H169272   1.520   3.919  11.712 -0.2642 -0.8278  0.6183
15927TIP3    H269273   1.423   3.807  11.685  1.2598 -1.7313 -1.1772
15928TIP3   OH269274   1.593   6.249   6.453 -0.2733  0.0462  0.5017
15928TIP3    H169275   1.684   6.224   6.435  0.1487  1.5585  0.4080
15928TIP3    H269276   1.599   6.340   6.482 -1.6964 -0.0764  1.2243
15929TIP3   OH269277   4.676   0.261   1.257  0.7570 -0.3850 -0.1073
15929TIP3    H169278   4.614   0.238   1.327 -0.3935  0.8317 -0.7008
15929TIP3    H269279   4.742   0.314   1.300 -0.2297  0.8008 -0.0319
15930TIP3   OH269280   1.740   5.166   4.240  0.1108 -0.4065  0.3815
15930TIP3    H169281   1.742   5.104   4.168 -1.7085 -0.5933  0.4634
15930TIP3    H269282   1.695   5.243   4.205  0.6099  0.1059  0.8489
15931TIP3   OH269283   1.496   6.313  12.849  0.0981  0.0094 -0.2746
15931TIP3    H169284   1.477   6.391  12.796 -0.3303 -0.8459 -1.3967
15931TIP3    H269285   1.533   6.348  12.930 -0.9882  1.4332 -0.3712
15932TIP3   OH269286   4.032   5.787   2.512 -0.4138  0.0604  0.1250
15932TIP3    H169287   4.008   5.877   2.490 -0.8044 -0.0277  0.1932
15932TIP3    H269288   4.125   5.782   2.491  0.1995  1.2012  2.4117
15933TIP3   OH269289   4.945   5.739   4.596  0.3006  0.0486 -0.1242
15933TIP3    H169290   5.034   5.723   4.626  0.5843  1.5864 -0.1151
15933TIP3    H269291   4.893   5.745   4.676  0.1175 -1.1422 -0.1374
15934TIP3   OH269292   2.715   4.857   4.273  0.0651 -0.4197  0.2278
15934TIP3    H169293   2.646   4.858   4.206  1.2143 -0.8274 -0.9931
15934TIP3    H269294   2.782   4.916   4.240  1.7297 -2.4573 -0.2040
15935TIP3   OH269295   5.156   1.527   5.693 -0.3855 -0.2851  0.5613
15935TIP3    H169296   5.084   1.474   5.658 -0.4904  0.4547 -0.3746
15935TIP3    H269297   5.224   1.464   5.715 -0.1697 -0.7526 -1.3726
15936TIP3   OH269298   5.530   3.984  12.651  0.2636  0.2169  0.0901
15936TIP3    H169299   5.447   3.941  12.672  0.2848 -0.9551 -2.0289
15936TIP3    H269300   5.566   3.932  12.579  3.0222  0.5009  1.2046
15937TIP3   OH269301   2.635   0.667   6.384 -0.2473  0.6057  0.5919
15937TIP3    H169302   2.576   0.633   6.452 -1.6056  2.0378  0.1579
15937TIP3    H269303   2.599   0.753   6.362  0.2655  0.2433 -1.8221
15938TIP3   OH269304   0.582   2.122   3.441  0.6279  0.3516  0.7573
15938TIP3    H169305   0.667   2.088   3.412  0.7822 -0.1041  1.7287
15938TIP3    H269306   0.557   2.066   3.514  1.0607  2.5475  2.6580
15939TIP3   OH269307   6.345   4.804   0.955  0.3494 -0.0634 -0.0770
15939TIP3    H169308   6.422   4.785   1.008 -0.4102 -0.1141  1.0307
15939TIP3    H269309   6.317   4.891   0.984  0.6805  0.4691 -1.3202
15940TIP3   OH269310   6.077   6.437  16.746  0.4688 -1.2070  0.5728
15940TIP3    H169311   6.084   6.404  16.657  0.9986  2.3588 -0.7998
15940TIP3    H269312   5.995   6.400  16.779 -0.7015 -1.0403 -2.0700
15941TIP3   OH269313   0.955   0.972  12.621  0.2527 -0.3638 -0.1441
15941TIP3    H169314   0.922   1.043  12.566 -2.9450 -0.5060  1.4633
15941TIP3    H269315   1.037   1.006  12.658  0.8222  0.9095 -2.5100
15942TIP3   OH269316   4.350   0.982   2.225  0.0992  0.5243 -0.0773
15942TIP3    H169317   4.330   1.062   2.274 -2.9351 -0.0529 -0.3268
15942TIP3    H269318   4.301   0.991   2.143 -0.1534 -1.5499 -0.1701
15943TIP3   OH269319   3.102   2.885  12.344  0.5414 -0.0393 -0.0263
15943TIP3    H169320   3.118   2.913  12.254  1.0340 -0.3584 -0.0388
15943TIP3    H269321   3.137   2.796  12.348 -2.7761 -1.4237 -0.5391
15944TIP3   OH269322   0.462   3.138  12.935 -0.1202  0.3161 -0.0729
15944TIP3    H169323   0.383   3.191  12.930 -1.3798 -1.5993 -1.2543
15944TIP3    H269324   0.490   3.144  13.026 -3.0884 -1.0445  0.9861
15945TIP3   OH269325   1.350   2.592   5.060  0.2473  0.2758 -0.3334
15945TIP3    H169326   1.355   2.581   5.155  2.5664  1.0491 -0.3237
15945TIP3    H269327   1.424   2.649   5.039  0.0163 -0.2388 -2.6651
15946TIP3   OH269328   0.810   4.163  10.956  0.1308 -0.3966  0.6033
15946TIP3    H169329   0.786   4.254  10.939  0.5450 -0.1011  1.5878
15946TIP3    H269330   0.903   4.158  10.932 -0.2687 -0.9562 -0.9354
15947TIP3   OH269331   1.530   5.211  12.986 -0.2038  0.6923 -0.2662
15947TIP3    H169332   1.471   5.160  12.930  0.1041 -0.3497  0.3516
15947TIP3    H269333   1.494   5.202  13.074  1.4404 -0.8105  0.2825
15948TIP3   OH269334   1.987   1.914  15.846  0.8990  0.1132 -0.1181
15948TIP3    H169335   2.025   1.849  15.905 -2.1308  0.2946  2.1749
15948TIP3    H269336   2.021   1.998  15.876 -0.7677  0.2240  1.5940
15949TIP3   OH269337   3.721   0.937  13.724  0.1772  0.4636  0.3130
15949TIP3    H169338   3.640   0.989  13.728 -0.7167 -0.9171  0.4355
15949TIP3    H269339   3.770   0.975  13.651  0.1948  2.3912  1.2688
15950TIP3   OH269340   4.136   2.748  16.933  0.5099  0.4660  0.3097
15950TIP3    H169341   4.142   2.827  16.987  2.0196  0.4951  0.1146
15950TIP3    H269342   4.192   2.684  16.977  0.2596 -0.1127 -0.1995
15951TIP3   OH269343   4.362   1.054  15.160 -0.5178  0.2211  0.5362
15951TIP3    H169344   4.389   1.035  15.070  0.8350  0.3756  0.8867
15951TIP3    H269345   4.309   0.979  15.186 -1.5388  0.5214 -0.6413
15952TIP3   OH269346   1.131   1.343  13.946  0.1472 -0.5564  0.0810
15952TIP3    H169347   1.062   1.277  13.957 -0.5912  0.2802  0.5077
15952TIP3    H269348   1.153   1.369  14.035  1.7348 -1.5516 -0.0106
15953TIP3   OH269349   6.713   1.993   2.297  0.8985 -0.3152 -0.0400
15953TIP3    H169350   6.677   2.011   2.210  0.1218  2.0396  0.7249
15953TIP3    H269351   6.807   1.990   2.283  0.7850  0.0866 -0.9688
15954TIP3   OH269352   2.730   2.691   2.976 -0.6304  0.0174  0.3271
15954TIP3    H169353   2.773   2.743   2.908  0.3786 -0.6323  0.4622
15954TIP3    H269354   2.639   2.683   2.946 -0.1074 -0.5838 -1.1398
15955TIP3   OH269355   2.531   0.155  13.182 -0.2425  0.3543 -0.1340
15955TIP3    H169356   2.615   0.179  13.144 -0.4478 -0.5450 -1.1590
15955TIP3    H269357   2.476   0.233  13.170 -0.4771 -0.1060 -2.1992
15956TIP3   OH269358   2.058   2.850   2.424  0.2995 -0.2629 -0.1156
15956TIP3    H169359   2.038   2.814   2.510  0.0545  0.5991  0.1847
15956TIP3    H269360   2.145   2.814   2.402  0.0595 -1.0305  0.1831
15957TIP3   OH269361   3.976   4.227  12.327 -0.6597  0.1216  0.1146
15957TIP3    H169362   3.981   4.306  12.274  0.5148 -0.3931 -0.5496
15957TIP3    H269363   3.910   4.173  12.283  1.1349 -0.8020 -1.5264
15958TIP3   OH269364   5.105   3.210  11.054  0.0813 -0.0668  0.2845
15958TIP3    H169365   5.184   3.158  11.037  0.9165  1.3640 -0.3035
15958TIP3    H269366   5.086   3.252  10.971 -0.3859  0.8438  0.8454
15959TIP3   OH269367   3.789   1.885  15.570  0.6282 -0.7883 -0.0723
15959TIP3    H169368   3.721   1.866  15.506  0.1313  1.3957 -0.2503
15959TIP3    H269369   3.791   1.981  15.574  2.1328 -0.8720  1.5913
15960TIP3   OH269370   6.676   4.664  15.784  0.0199 -0.7708 -0.1197
15960TIP3    H169371   6.673   4.613  15.865 -1.0339 -0.6109 -0.0438
15960TIP3    H269372   6.737   4.735  15.803  2.7218 -2.8566 -0.7587
15961TIP3   OH269373   4.223   4.003  16.800 -0.0598  0.1243  0.0142
15961TIP3    H169374   4.157   3.937  16.819  1.6692 -1.0441  2.0352
15961TIP3    H269375   4.195   4.040  16.715 -2.1269 -1.7714 -0.1815
15962TIP3   OH269376   4.133   6.040   4.772  0.1615  0.2865 -0.1424
15962TIP3    H169377   4.113   6.025   4.865  1.0062  0.2269  0.0310
15962TIP3    H269378   4.181   6.123   4.771  2.7171 -1.1520 -0.1935
15963TIP3   OH269379   0.080   1.979   2.584 -0.1559  0.0260  0.5791
15963TIP3    H169380   0.080   1.917   2.511  3.7134  1.4367 -0.7378
15963TIP3    H269381   0.016   2.046   2.558 -0.4756 -0.6672 -0.4735
15964TIP3   OH269382   0.753   1.916   0.997  0.4617  0.0715 -0.0863
15964TIP3    H169383   0.714   1.976   1.060  1.1390  0.6982 -0.2595
15964TIP3    H269384   0.843   1.947   0.986 -0.2632  1.4128 -3.0707
15965TIP3   OH269385   4.712   4.399  13.721  0.3403  0.6068 -0.0253
15965TIP3    H169386   4.785   4.457  13.697 -0.0446  1.9578  1.9067
15965TIP3    H269387   4.754   4.324  13.763  0.7108  0.5822 -0.4319
15966TIP3   OH269388   0.487   6.083   5.453 -0.1451 -0.1910 -0.2544
15966TIP3    H169389   0.532   6.089   5.368  0.6400  0.9659  0.2273
15966TIP3    H269390   0.417   6.020   5.438 -1.1858  1.3730 -2.2945
15967TIP3   OH269391   2.481   6.254  14.632 -0.4226 -0.0525  0.5237
15967TIP3    H169392   2.548   6.314  14.600 -0.8453  0.6296  0.9188
15967TIP3    H269393   2.427   6.307  14.691 -1.9459 -0.3267 -0.6079
15968TIP3   OH269394   0.263   3.332   2.054 -0.4315  0.6254  0.3890
15968TIP3    H169395   0.316   3.254   2.069  0.1221  1.3255  2.1186
15968TIP3    H269396   0.268   3.346   1.959 -0.1019 -1.1251  0.1344
15969TIP3   OH269397   4.189   3.729   1.968  0.2215  0.1639 -0.2087
15969TIP3    H169398   4.191   3.680   2.050 -0.2633  0.3495 -0.0788
15969TIP3    H269399   4.134   3.805   1.988  1.0061  0.7865 -0.3931
15970TIP3   OH269400   1.868   3.416  12.103  0.0660 -0.4641  0.2770
15970TIP3    H169401   1.859   3.511  12.107 -0.1939 -0.5044  0.7000
15970TIP3    H269402   1.961   3.401  12.091 -0.0549 -0.1136 -1.1794
15971TIP3   OH269403   3.811   6.588   2.300 -0.3762 -0.0583 -0.7120
15971TIP3    H169404   3.757   6.667   2.297  1.1462  1.2743  3.2910
15971TIP3    H269405   3.897   6.617   2.268  0.4000  0.1948  1.4901
15972TIP3   OH269406   6.746   1.823   5.408  0.4600  0.5215  0.0021
15972TIP3    H169407   6.772   1.868   5.489  0.1530  1.0983 -0.2159
15972TIP3    H269408   6.661   1.861   5.386 -0.0586 -0.5513  0.1003
15973TIP3   OH269409   5.006   3.457  15.778 -0.1552 -0.5649 -0.1015
15973TIP3    H169410   5.098   3.455  15.804 -0.8503 -1.4036  2.4720
15973TIP3    H269411   4.958   3.455  15.861 -2.5576 -4.6523 -1.4426
15974TIP3   OH269412   0.697   2.727  13.410  0.4197  0.1277  0.0765
15974TIP3    H169413   0.705   2.798  13.346 -0.4866  0.7276  0.6238
15974TIP3    H269414   0.757   2.750  13.480  0.0753  0.3939  0.2846
15975TIP3   OH269415   0.610   4.346   4.666  0.0649  0.3360  0.0069
15975TIP3    H169416   0.569   4.396   4.596 -0.4109 -0.4716 -0.2900
15975TIP3    H269417   0.615   4.408   4.739 -0.5703  0.8066 -0.3398
15976TIP3   OH269418   6.240   4.654   4.390  0.1249  0.0450 -0.3712
15976TIP3    H169419   6.180   4.710   4.439 -0.2619 -1.1736  0.5781
15976TIP3    H269420   6.263   4.585   4.452  0.3099 -1.0387 -1.6368
15977TIP3   OH269421   6.075   5.714   5.257  0.3290 -0.2586 -0.0234
15977TIP3    H169422   6.093   5.807   5.244  0.9300 -0.1260  1.6827
15977TIP3    H269423   6.151   5.670   5.221  0.9681  0.0053  0.9869
15978TIP3   OH269424   2.838   0.475   1.466 -0.2535 -0.0225  0.4446
15978TIP3    H169425   2.774   0.420   1.510 -0.2882 -0.3853 -0.0547
15978TIP3    H269426   2.811   0.565   1.486 -1.1826 -0.1724 -0.1586
15979TIP3   OH269427   3.758   4.814  15.161 -0.4376 -0.9483 -0.7951
15979TIP3    H169428   3.715   4.899  15.173  1.0019 -0.3429  0.1516
15979TIP3    H269429   3.729   4.763  15.236 -0.0454 -0.7613 -0.5152
15980TIP3   OH269430   6.531   6.787   0.437 -0.1981 -0.0435  0.0923
15980TIP3    H169431   6.528   6.785   0.533  1.7651 -0.3039  0.1723
15980TIP3    H269432   6.551   6.697   0.412  1.0786  0.3781 -0.4608
15981TIP3   OH269433   6.023   1.938   2.528  0.2577 -0.3515 -0.1412
15981TIP3    H169434   6.082   1.911   2.598 -0.6629  1.3290  1.3072
15981TIP3    H269435   6.069   1.915   2.447  2.5614  0.3046  0.9714
15982TIP3   OH269436   0.480   5.397   5.358 -0.1012 -0.2705 -0.7644
15982TIP3    H169437   0.466   5.432   5.270 -0.0229  1.5753 -0.0538
15982TIP3    H269438   0.521   5.468   5.406 -2.6387 -0.2893  1.5397
15983TIP3   OH269439   4.587   6.174  14.083  0.5659 -0.4966  0.2660
15983TIP3    H169440   4.576   6.124  14.001  0.0129 -0.8712  0.5646
15983TIP3    H269441   4.509   6.229  14.088 -0.1465 -1.5776  1.3016
15984TIP3   OH269442   3.602   6.661   6.012  0.0512 -0.2226  0.5285
15984TIP3    H169443   3.564   6.670   6.099  0.4756 -2.5491  0.9805
15984TIP3    H269444   3.584   6.745   5.969 -3.1008 -0.2639  1.6863
15985TIP3   OH269445   3.461   6.508  17.221  0.0013 -0.4112  0.1727
15985TIP3    H169446   3.375   6.471  17.238 -1.0729  1.8496 -0.1679
15985TIP3    H269447   3.456   6.538  17.130  0.3688  1.7586  0.8491
15986TIP3   OH269448   3.737   5.334   5.097 -0.3239  0.3353 -0.7275
15986TIP3    H169449   3.823   5.297   5.077 -0.3853  0.1284 -0.6177
15986TIP3    H269450   3.727   5.407   5.036  0.0902  0.5956 -0.4902
15987TIP3   OH269451   2.973   3.407  12.653  0.0101  0.5727  0.0116
15987TIP3    H169452   3.034   3.438  12.721 -1.6184 -1.2862  2.4181
15987TIP3    H269453   2.892   3.455  12.670 -0.5064 -0.1361 -0.4217
15988TIP3   OH269454   2.716   2.530   3.803 -0.0621 -0.2257  0.3086
15988TIP3    H169455   2.696   2.524   3.710  1.1501  0.6728 -0.0192
15988TIP3    H269456   2.803   2.490   3.811  0.7556  1.6011  0.7207
15989TIP3   OH269457   4.891   5.782  17.220  0.8632 -0.2117  0.5667
15989TIP3    H169458   4.860   5.823  17.301 -1.0252 -0.9360  0.2237
15989TIP3    H269459   4.904   5.690  17.243  0.3630 -0.4108  0.0433
15990TIP3   OH269460   0.739   1.012   0.183 -0.5040 -0.5341  0.0844
15990TIP3    H169461   0.781   1.094   0.207 -0.8788 -0.1160 -0.6752
15990TIP3    H269462   0.682   0.991   0.258 -1.2426  0.4644 -0.1979
15991TIP3   OH269463   1.617   1.390  13.309 -0.4432  0.2443 -0.5664
15991TIP3    H169464   1.598   1.430  13.394  3.2349 -2.7535  1.8232
15991TIP3    H269465   1.680   1.449  13.268  0.6275 -0.1400  0.4807
15992TIP3   OH269466   5.170   6.690   0.951 -0.7377 -0.0999 -0.3925
15992TIP3    H169467   5.134   6.776   0.973 -0.1766  0.0396  0.0080
15992TIP3    H269468   5.244   6.709   0.893  1.1227 -0.1003  1.8802
15993TIP3   OH269469   5.613   5.854   1.124  0.0731 -0.0853 -0.0031
15993TIP3    H169470   5.534   5.872   1.072  0.1522  1.6030  0.4275
15993TIP3    H269471   5.621   5.759   1.122 -1.0311 -0.1800 -1.4488
15994TIP3   OH269472   2.056   1.389   2.029  0.2766  0.0942 -0.4052
15994TIP3    H169473   2.046   1.381   1.934  1.4571 -0.7291 -0.4770
15994TIP3    H269474   2.128   1.329   2.050 -1.1329 -1.0824  1.2386
15995TIP3   OH269475   4.035   3.406  16.338 -0.1448 -0.0935  0.3966
15995TIP3    H169476   4.100   3.393  16.269  0.2261 -0.4215  0.8063
15995TIP3    H269477   3.978   3.329  16.333 -0.2169 -0.0372  0.3476
15996TIP3   OH269478   5.208   1.564   0.726 -0.0554 -0.6788 -0.2107
15996TIP3    H169479   5.231   1.641   0.777  0.6555 -0.1171 -1.3497
15996TIP3    H269480   5.112   1.566   0.720  0.0758  1.6899 -2.5627
15997TIP3   OH269481   4.343   0.432  14.892 -0.7245 -0.1488  0.3160
15997TIP3    H169482   4.268   0.434  14.833 -1.3892 -0.2910  1.1433
15997TIP3    H269483   4.351   0.340  14.917 -0.5151 -0.0705  0.5353
15998TIP3   OH269484   5.543   1.175   3.970  0.3801 -0.0412  0.6263
15998TIP3    H169485   5.461   1.151   3.927 -0.2771  0.2909  1.6576
15998TIP3    H269486   5.593   1.222   3.903 -1.1462  1.5784  0.5894
15999TIP3   OH269487   0.385   0.220   0.656 -0.9461  0.1685 -0.2148
15999TIP3    H169488   0.363   0.227   0.563 -0.1748  0.1963 -0.4012
15999TIP3    H269489   0.387   0.126   0.673 -0.2160  0.1329 -0.4504
16000TIP3   OH269490   4.440   2.264  14.852  0.4923  0.7665  0.0889
16000TIP3    H169491   4.385   2.190  14.879  2.4046 -0.2349  1.4301
16000TIP3    H269492   4.422   2.275  14.759 -4.3265  2.5502  1.0516
16001TIP3   OH269493   2.733   6.734  16.765 -0.7769 -0.8652 -0.2493
16001TIP3    H169494   2.738   6.682  16.685  1.4626 -0.4925 -0.3663
16001TIP3    H269495   2.703   6.820  16.736 -0.4882 -0.8873 -0.6194
16002TIP3   OH269496   4.741   2.565   1.572 -0.5359 -0.1350 -0.3929
16002TIP3    H169497   4.698   2.634   1.522  0.1690 -0.5238 -1.5695
16002TIP3    H269498   4.713   2.484   1.528  0.5720 -0.4457 -0.5339
16003TIP3   OH269499   5.232   4.687   2.553 -0.2125  0.0208  0.6795
16003TIP3    H169500   5.299   4.688   2.484  0.0133 -0.4486  0.8850
16003TIP3    H269501   5.181   4.766   2.538 -0.2606 -0.1531 -0.1290
16004TIP3   OH269502   0.641   0.552   0.265  0.3317 -0.1366 -0.0887
16004TIP3    H169503   0.631   0.495   0.189  0.8708 -1.4163  0.7864
16004TIP3    H269504   0.627   0.640   0.231 -1.4991 -0.8579 -1.2844
16005TIP3   OH269505   1.609   3.329   2.804  0.0915  0.2701 -0.4646
16005TIP3    H169506   1.671   3.315   2.876 -1.4208  1.7969  1.1731
16005TIP3    H269507   1.523   3.327   2.845 -0.9450 -1.0949 -2.6004
16006TIP3   OH269508   2.990   4.836   3.492  0.6051  0.1397  0.0915
16006TIP3    H169509   2.937   4.803   3.565 -0.1275 -1.0056 -0.9360
16006TIP3    H269510   2.997   4.761   3.433 -0.7933  1.7127 -2.1281
16007TIP3   OH269511   1.270   0.071   3.842  0.0067  0.0053 -0.1292
16007TIP3    H169512   1.235   0.017   3.913 -0.0427 -1.4309 -1.2414
16007TIP3    H269513   1.359   0.040   3.830  0.2570  0.7521 -0.2001
16008TIP3   OH269514   2.035   3.190   3.779 -0.7283  0.0450 -0.3083
16008TIP3    H169515   2.039   3.147   3.693 -1.2366  0.1157 -0.3677
16008TIP3    H269516   2.013   3.281   3.760  0.5188  0.3829 -0.1931
16009TIP3   OH269517   2.351   5.596   3.742 -0.3860  0.0237 -0.7168
16009TIP3    H169518   2.305   5.669   3.783 -0.1610  0.5719 -1.4263
16009TIP3    H269519   2.283   5.551   3.692 -1.3237 -2.4089  2.5557
16010TIP3   OH269520   1.801   1.707   1.183 -0.5814  0.1913  0.5108
16010TIP3    H169521   1.749   1.710   1.103 -1.6501  0.2661  1.2031
16010TIP3    H269522   1.778   1.624   1.223 -1.2006  0.8281  1.5002
16011TIP3   OH269523   4.916   5.030  12.266 -0.4576 -0.4081  0.5895
16011TIP3    H169524   4.997   4.985  12.290  0.5289  1.5582  1.0611
16011TIP3    H269525   4.864   5.031  12.346  0.2144  0.7134  1.0200
16012TIP3   OH269526   2.829   6.414   4.745 -0.1648  0.0529  0.1371
16012TIP3    H169527   2.914   6.443   4.713 -0.9505  0.6088 -1.5187
16012TIP3    H269528   2.838   6.412   4.840  1.2322  1.5802  0.0579
16013TIP3   OH269529   2.701   3.865  14.525 -1.2439  0.2314  0.4776
16013TIP3    H169530   2.787   3.901  14.503 -0.7792  0.0622  1.9836
16013TIP3    H269531   2.710   3.771  14.509 -1.2178  0.2439  0.4191
16014TIP3   OH269532   5.828   2.067   3.324  0.0142 -0.7298 -0.3198
16014TIP3    H169533   5.858   2.158   3.319 -1.3707 -0.0954  2.0006
16014TIP3    H269534   5.780   2.062   3.407 -1.8793 -3.0060 -1.4954
16015TIP3   OH269535   3.262   0.908  15.864  0.0148 -0.3963  0.2269
16015TIP3    H169536   3.345   0.937  15.828 -0.6314 -0.6531 -1.5165
16015TIP3    H269537   3.207   0.986  15.863 -0.5222 -0.7840 -0.8949
16016TIP3   OH269538   4.702   4.206   1.093  0.1893  0.4180  0.3159
16016TIP3    H169539   4.737   4.166   1.172  0.0562 -0.3146  0.0078
16016TIP3    H269540   4.607   4.196   1.101  0.2851 -2.6683 -1.4765
16017TIP3   OH269541   5.310   0.434  16.546  0.5100 -0.0115 -0.5359
16017TIP3    H169542   5.304   0.510  16.603 -0.2467 -0.5144  0.0758
16017TIP3    H269543   5.337   0.362  16.604 -0.9754 -0.6853 -0.6378
16018TIP3   OH269544   0.433   4.170  11.580  0.3520  0.3882 -0.2468
16018TIP3    H169545   0.385   4.213  11.509  0.0813  0.5962  0.0570
16018TIP3    H269546   0.366   4.155  11.647  0.6927  0.5981  0.1420
16019TIP3   OH269547   6.595   4.209  16.632 -0.3739 -0.4974  0.4040
16019TIP3    H169548   6.531   4.179  16.697 -1.0680  1.1143  0.4890
16019TIP3    H269549   6.640   4.282  16.676  0.1793 -0.3635 -0.3829
16020TIP3   OH269550   1.994   2.297  15.032  0.1136 -0.4042 -0.1459
16020TIP3    H169551   2.004   2.310  14.938 -1.4461 -1.4872 -0.5018
16020TIP3    H269552   1.955   2.209  15.040  0.6073 -0.4994  1.5277
16021TIP3   OH269553   4.864   5.604  14.838  0.6038 -0.7201 -0.3402
16021TIP3    H169554   4.775   5.606  14.803  0.2594 -3.5038  0.2229
16021TIP3    H269555   4.855   5.623  14.931  0.7876  0.5336 -0.5760
16022TIP3   OH269556   3.081   2.724  13.627  0.2755 -0.2476  0.1724
16022TIP3    H169557   3.124   2.799  13.586 -1.7362  0.5050 -0.6096
16022TIP3    H269558   3.056   2.756  13.714  1.0379 -0.6126  0.5370
16023TIP3   OH269559   5.253   3.607   2.571  0.1385 -0.5801  0.6625
16023TIP3    H169560   5.271   3.669   2.500 -1.2691 -1.9719 -0.9632
16023TIP3    H269561   5.214   3.661   2.640 -0.3607  0.4809 -0.4207
16024TIP3   OH269562   4.080   4.499   1.716 -0.5140  0.2685  0.0013
16024TIP3    H169563   4.064   4.581   1.670  0.4382  0.0464 -0.7380
16024TIP3    H269564   4.023   4.435   1.673  0.1074  0.1416 -0.6405
16025TIP3   OH269565   5.947   0.607   3.262 -0.6236 -0.3720  0.0292
16025TIP3    H169566   5.967   0.521   3.300  0.7486 -0.0122  0.1563
16025TIP3    H269567   5.854   0.619   3.277 -0.3152 -0.7157  2.3475
16026TIP3   OH269568   5.595   5.381   1.604  0.3445 -0.6823 -0.2931
16026TIP3    H169569   5.521   5.321   1.619 -0.5703  0.7101  0.9732
16026TIP3    H269570   5.612   5.375   1.510 -1.2043 -1.2432 -0.5596
16027TIP3   OH269571   1.353   4.030   4.818 -0.5343 -0.3173 -0.1133
16027TIP3    H169572   1.263   4.034   4.850  0.5864  1.2525  2.9936
16027TIP3    H269573   1.395   3.963   4.871  0.4605 -0.1812 -0.7066
16028TIP3   OH269574   3.331   5.713  11.503  0.2038  0.1707 -0.0219
16028TIP3    H169575   3.247   5.669  11.511 -0.2772  1.1789  0.6087
16028TIP3    H269576   3.367   5.712  11.592  0.3588  0.6877 -0.0737
16029TIP3   OH269577   5.253   0.687   1.664  0.0182 -0.1328  0.0693
16029TIP3    H169578   5.305   0.695   1.583 -0.9537  3.0644 -0.2839
16029TIP3    H269579   5.316   0.657   1.729  1.1761 -1.2189 -1.4905
16030TIP3   OH269580   6.074   0.355   5.309 -0.3204  0.5537  0.3214
16030TIP3    H169581   6.065   0.294   5.236  2.0389 -0.6367  0.9596
16030TIP3    H269582   5.999   0.337   5.365 -0.4781 -0.7157 -0.2820
16031TIP3   OH269583   2.797   6.813  14.385  0.3029  0.4508 -0.2207
16031TIP3    H169584   2.785   6.888  14.326 -2.7874  2.0627  2.3322
16031TIP3    H269585   2.828   6.851  14.467 -0.5479 -1.1568  0.8648
16032TIP3   OH269586   5.836   5.560   2.806 -0.6899 -0.2679  0.4800
16032TIP3    H169587   5.917   5.569   2.856 -0.9412 -0.0185  0.8483
16032TIP3    H269588   5.776   5.516   2.866 -1.5140  1.4970  0.9975
16033TIP3   OH269589   1.008   5.695  15.213  0.0106 -0.3227 -0.5505
16033TIP3    H169590   1.034   5.767  15.271  0.0726 -0.5418 -0.3079
16033TIP3    H269591   0.922   5.668  15.244 -0.4950  0.3666 -1.3183
16034TIP3   OH269592   2.971   5.824   0.784  0.7969 -0.3709 -0.6045
16034TIP3    H169593   2.945   5.786   0.701  0.7217  1.0904 -1.2601
16034TIP3    H269594   3.028   5.757   0.824  0.0694 -1.4682 -1.3813
16035TIP3   OH269595   3.507   4.044  14.048 -0.3766  0.5442  0.6285
16035TIP3    H169596   3.446   4.076  13.982 -0.7130  0.3530  0.8435
16035TIP3    H269597   3.585   4.099  14.038  0.1496 -0.4601 -0.9054
16036TIP3   OH269598   1.497   6.310   0.460  0.5490 -0.4995 -0.4210
16036TIP3    H169599   1.418   6.290   0.510  1.0990 -0.2027  0.5940
16036TIP3    H269600   1.519   6.400   0.485  2.7531 -1.5012  1.4667
16037TIP3   OH269601   2.883   1.910   4.595 -0.0682 -0.2522 -0.2411
16037TIP3    H169602   2.921   1.824   4.612  1.5601  0.5323  0.1908
16037TIP3    H269603   2.803   1.892   4.546 -2.1400 -2.2864  3.6539
16038TIP3   OH269604   0.963   0.945   1.189  0.1956  0.2177 -0.4047
16038TIP3    H169605   0.935   0.912   1.104 -1.5910 -3.2062  1.3863
16038TIP3    H269606   0.881   0.968   1.234  0.8963 -0.4634  1.2873
16039TIP3   OH269607   1.199   3.259  11.499 -0.2028 -0.2830  0.2034
16039TIP3    H169608   1.199   3.165  11.477  1.9396  0.1884 -2.0079
16039TIP3    H269609   1.292   3.280  11.512 -0.6794  1.5372  0.6836
16040TIP3   OH269610   5.247   5.269   2.868 -0.0610  0.1207 -0.2795
16040TIP3    H169611   5.237   5.194   2.810 -3.6424  0.5377 -0.3285
16040TIP3    H269612   5.233   5.235   2.956 -1.3258  0.6332 -0.2695
16041TIP3   OH269613   5.795   1.442   6.387 -0.9564 -0.1915 -0.0349
16041TIP3    H169614   5.766   1.460   6.298  1.6473  0.6328 -0.7764
16041TIP3    H269615   5.886   1.414   6.377 -0.9722 -1.1889  2.2774
16042TIP3   OH269616   2.474   5.301  12.193  0.0145 -0.4868  0.6637
16042TIP3    H169617   2.478   5.206  12.208 -1.6880 -0.8909 -1.2877
16042TIP3    H269618   2.512   5.313  12.106 -0.4860  0.5487  0.5915
16043TIP3   OH269619   6.227   5.992   5.942  0.2935 -0.1396  0.1929
16043TIP3    H169620   6.303   6.019   5.995  0.9256  0.6359 -1.0973
16043TIP3    H269621   6.254   5.909   5.903 -1.0371 -1.9109  2.8610
16044TIP3   OH269622   2.413   2.909  12.518  0.1965 -0.6330 -0.6346
16044TIP3    H169623   2.461   2.992  12.514  1.8444 -1.5141  0.1145
16044TIP3    H269624   2.403   2.883  12.427  0.8254 -0.2509 -0.8168
16045TIP3   OH269625   5.269   1.868   1.836 -0.1572  0.3571 -0.0042
16045TIP3    H169626   5.249   1.870   1.929 -1.6421 -1.0935 -0.2756
16045TIP3    H269627   5.329   1.794   1.826  0.0817  0.5752 -0.1751
16046TIP3   OH269628   1.233   3.301   4.159  0.0223 -0.0448 -0.5270
16046TIP3    H169629   1.327   3.305   4.138  0.8849  1.4252  3.1321
16046TIP3    H269630   1.215   3.208   4.169  1.7651 -0.2145  1.2798
16047TIP3   OH269631   2.267   5.150   3.952 -0.1754  0.0377 -0.2717
16047TIP3    H169632   2.246   5.236   3.989  0.8337  0.9359 -1.7041
16047TIP3    H269633   2.292   5.097   4.027 -3.2821  0.1906  0.9673
16048TIP3   OH269634   5.055   3.093   3.537 -0.3843  0.1593 -0.5235
16048TIP3    H169635   5.050   3.151   3.613  1.3478 -1.2474  0.7090
16048TIP3    H269636   4.972   3.105   3.492 -1.2818  1.3139  1.3704
16049TIP3   OH269637   2.557   0.097  16.398  0.3816  0.0299 -0.6758
16049TIP3    H169638   2.493   0.165  16.419  0.1717 -0.5078  0.5005
16049TIP3    H269639   2.638   0.127  16.439 -0.0867 -1.1411  1.1800
16050TIP3   OH269640   3.778   6.366  10.763 -0.2504 -0.2831  0.7782
16050TIP3    H169641   3.700   6.404  10.803  0.4176  0.7448  1.1377
16050TIP3    H269642   3.850   6.401  10.815  0.5453 -0.0378 -0.4739
16051TIP3   OH269643   2.638   3.848   3.180  0.1952  0.0586  0.5125
16051TIP3    H169644   2.630   3.789   3.105  1.7015 -0.0036  0.3971
16051TIP3    H269645   2.617   3.935   3.145 -2.5082 -0.4378  0.7886
16052TIP3   OH269646   5.330   2.512   0.571  0.4672  0.3529  0.1553
16052TIP3    H169647   5.360   2.494   0.483 -0.0728 -1.0875  0.2469
16052TIP3    H269648   5.373   2.594   0.596 -1.0225  1.8987 -2.2137
16053TIP3   OH269649   1.230   2.510   1.491  0.5035 -0.2183 -0.8626
16053TIP3    H169650   1.224   2.419   1.521 -1.5713 -0.6078 -2.3500
16053TIP3    H269651   1.149   2.525   1.443  0.5793  2.6064 -0.2043
16054TIP3   OH269652   3.990   3.373  13.841  0.1805  0.2485 -0.2860
16054TIP3    H169653   3.949   3.430  13.775  1.6702  1.8722  0.1489
16054TIP3    H269654   4.075   3.350  13.803  0.8107  0.7259  0.8148
16055TIP3   OH269655   5.883   4.618  10.535 -0.1369  0.1766 -0.4019
16055TIP3    H169656   5.871   4.525  10.555  0.8530 -0.0592 -0.9166
16055TIP3    H269657   5.796   4.656  10.548 -0.3760 -0.6708  0.5910
16056TIP3   OH269658   3.794   4.686   4.001 -0.0276  0.5085  0.4591
16056TIP3    H169659   3.825   4.639   4.079  1.9225  0.3330 -0.4137
16056TIP3    H269660   3.861   4.670   3.935 -2.1456 -0.1467 -1.5849
16057TIP3   OH269661   5.649   6.733  16.745  0.3245 -0.0807  0.6516
16057TIP3    H169662   5.587   6.775  16.686 -0.9010 -0.9538  1.2919
16057TIP3    H269663   5.729   6.723  16.693 -0.4815 -0.1026 -0.6040
16058TIP3   OH269664   5.210   1.123  15.925  0.5918 -0.2150  0.2193
16058TIP3    H169665   5.285   1.105  15.983 -0.7332 -0.0701  2.0081
16058TIP3    H269666   5.215   1.217  15.909  0.3878 -0.0863  0.9077
16059TIP3   OH269667   4.975   2.585   6.032 -0.3865  0.5787 -0.6527
16059TIP3    H169668   4.995   2.496   6.062 -0.1399  0.9524  0.3286
16059TIP3    H269669   5.058   2.619   6.000 -0.5514  0.3465 -1.3462
16060TIP3   OH269670   4.020   2.472  15.478 -0.2272 -0.4347  0.3119
16060TIP3    H169671   3.939   2.523  15.484 -0.2017 -0.2766 -0.5614
16060TIP3    H269672   4.088   2.537  15.463  0.1665 -0.5084  1.6957
16061TIP3   OH269673   4.941   5.883   1.929 -0.0906  0.1246  1.0170
16061TIP3    H169674   5.034   5.905   1.925  0.4318 -1.8186  1.8563
16061TIP3    H269675   4.933   5.802   1.880 -1.0319 -0.6870  2.4757
16062TIP3   OH269676   2.550   2.802  15.135 -0.5709  0.2045  0.0607
16062TIP3    H169677   2.611   2.749  15.187  0.2320  0.3637 -0.7050
16062TIP3    H269678   2.478   2.742  15.115 -0.5511 -0.0579  0.7688
16063TIP3   OH269679   1.831   1.123   3.441 -0.5762 -0.1445 -0.1982
16063TIP3    H169680   1.870   1.169   3.515 -1.2075 -1.5399  1.0340
16063TIP3    H269681   1.808   1.192   3.379 -0.5815  1.0934  1.1547
16064TIP3   OH269682   0.022   1.526  11.175  0.2714  0.0539  0.1195
16064TIP3    H169683  -0.048   1.512  11.239  0.8889  0.3578  0.8795
16064TIP3    H269684  -0.021   1.523  11.090 -0.4883 -0.8538  0.5300
16065TIP3   OH269685   0.939   4.364  13.904  0.2913  0.3233 -0.0909
16065TIP3    H169686   0.889   4.285  13.922  0.1639  0.0062 -1.7841
16065TIP3    H269687   0.874   4.428  13.876  0.7942 -0.0547 -2.1788
16066TIP3   OH269688   4.595   6.649  13.951 -0.0287  0.1366  0.1879
16066TIP3    H169689   4.652   6.594  13.897 -0.1121 -0.0343  0.2764
16066TIP3    H269690   4.637   6.651  14.037  0.8158  1.4982 -0.2503
16067TIP3   OH269691   3.123   4.331  11.641  0.0616  0.2382 -0.1431
16067TIP3    H169692   3.037   4.355  11.676 -1.0166 -0.2754 -2.3742
16067TIP3    H269693   3.171   4.414  11.637  0.2199  0.3118  2.4961
16068TIP3   OH269694   2.695   6.411  14.561  0.1495  0.0589 -0.1309
16068TIP3    H169695   2.674   6.503  14.548  1.0021  0.1317 -1.0252
16068TIP3    H269696   2.748   6.410  14.641 -0.1369  0.3052  0.0628
16069TIP3   OH269697   4.397   5.210  13.605 -0.3223 -0.0397 -0.1786
16069TIP3    H169698   4.426   5.123  13.577  1.7696  0.3375  0.7425
16069TIP3    H269699   4.454   5.270  13.556  1.7415  0.6803  2.9718
16070TIP3   OH269700   4.324   6.452   1.457 -0.0810 -0.6755 -0.5697
16070TIP3    H169701   4.260   6.400   1.408  0.7734 -0.9966 -1.3734
16070TIP3    H269702   4.365   6.508   1.391 -0.8525  0.8944  0.2649
16071TIP3   OH269703   1.158   3.783  14.719 -0.2951  0.0125 -0.1054
16071TIP3    H169704   1.095   3.771  14.648 -1.5312 -1.7196  1.2531
16071TIP3    H269705   1.154   3.876  14.740  0.6313  0.7195 -2.7769
16072TIP3   OH269706   6.529   0.697  16.719 -0.1959  0.0841  0.7157
16072TIP3    H169707   6.557   0.771  16.666 -0.6345 -0.1360  0.1698
16072TIP3    H269708   6.481   0.737  16.792 -0.4090  0.3406  0.4349
16073TIP3   OH269709   5.692   6.648  13.042  0.1957  0.2459 -0.4206
16073TIP3    H169710   5.719   6.697  12.964 -0.3653  0.8899 -0.2170
16073TIP3    H269711   5.757   6.578  13.050  1.5766  1.5276 -0.1531
16074TIP3   OH269712   1.723   5.706  17.210 -0.0380 -0.0588 -0.2924
16074TIP3    H169713   1.761   5.641  17.151  1.1079  1.6698 -1.5051
16074TIP3    H269714   1.733   5.789  17.164  2.2229  1.5459  2.9435
16075TIP3   OH269715   6.771   2.006   5.158 -0.7330 -0.3521 -0.2540
16075TIP3    H169716   6.814   1.926   5.189 -0.3765  0.6998  2.0589
16075TIP3    H269717   6.679   1.995   5.181 -0.4458  0.4895  1.3625
16076TIP3   OH269718   4.614   2.498  16.601 -0.0625  0.4013 -0.5394
16076TIP3    H169719   4.608   2.593  16.591 -2.0226  0.6548  2.3783
16076TIP3    H269720   4.523   2.468  16.602  0.4208 -1.1292  1.5389
16077TIP3   OH269721   0.034   2.478   1.789  0.2671 -0.0087  0.0461
16077TIP3    H169722   0.076   2.456   1.706  1.6317  1.3862  0.3554
16077TIP3    H269723  -0.056   2.446   1.779  0.1814  0.8683 -2.2692
16078TIP3   OH269724   3.156   2.261  15.499  0.1456 -0.3628 -0.0088
16078TIP3    H169725   3.207   2.275  15.578 -2.1678 -0.1484  1.5039
16078TIP3    H269726   3.080   2.318  15.508 -1.4913 -2.2618 -1.1267
16079TIP3   OH269727   3.776   1.453   6.000 -0.1193  0.3218 -0.0933
16079TIP3    H169728   3.769   1.532   6.054  2.7295  1.0672 -0.7161
16079TIP3    H269729   3.869   1.430   6.004 -0.6938 -2.2881 -0.9483
16080TIP3   OH269730   2.175   2.331  12.718 -0.5590 -0.0754 -0.9917
16080TIP3    H169731   2.108   2.373  12.772 -0.2609 -0.0209 -0.6603
16080TIP3    H269732   2.143   2.242  12.705 -0.8674  0.0548 -1.1330
16081TIP3   OH269733   1.698   6.270   1.534 -0.4827 -0.6922 -0.3847
16081TIP3    H169734   1.767   6.260   1.469 -1.2816 -0.5450 -1.2628
16081TIP3    H269735   1.629   6.209   1.506 -1.4724  0.4753 -0.5494
16082TIP3   OH269736   3.858   1.179   5.028  0.0221  0.1586 -0.2869
16082TIP3    H169737   3.929   1.156   4.969  0.9819  0.9580  0.5241
16082TIP3    H269738   3.870   1.273   5.045 -1.6795  0.4731 -0.7325
16083TIP3   OH269739   3.808   6.651  15.699 -0.2625 -0.2210  0.2182
16083TIP3    H169740   3.741   6.608  15.646 -0.5801  0.6410 -0.0950
16083TIP3    H269741   3.796   6.745  15.681 -0.2967  0.0776  1.7156
16084TIP3   OH269742   4.018   0.553   5.887 -0.0111 -0.3790  0.2412
16084TIP3    H169743   4.022   0.564   5.792  0.7730 -0.5878  0.2454
16084TIP3    H269744   3.926   0.565   5.908  0.1498  2.0473 -0.2436
16085TIP3   OH269745   1.490   3.875  14.491 -0.0358  0.0170  0.2636
16085TIP3    H169746   1.580   3.845  14.508 -0.9611 -1.9197  2.0547
16085TIP3    H269747   1.443   3.795  14.465 -1.1268  1.1149 -1.2252
16086TIP3   OH269748   1.138   4.677   3.093  0.7476  0.8551 -0.1764
16086TIP3    H169749   1.107   4.757   3.136 -1.3273  0.2261 -0.4921
16086TIP3    H269750   1.064   4.647   3.041  1.7365 -0.9199 -0.5886
16087TIP3   OH269751   4.713   0.100  16.025 -0.1667 -0.1361 -0.4237
16087TIP3    H169752   4.618   0.095  16.037 -0.3351  0.9870 -1.1384
16087TIP3    H269753   4.749   0.095  16.114 -0.8582 -1.2028 -0.2038
16088TIP3   OH269754   3.655   1.907  17.118  0.1997  0.3215  0.1306
16088TIP3    H169755   3.740   1.936  17.149  0.6872 -1.7366  0.7659
16088TIP3    H269756   3.593   1.941  17.183  0.8271 -0.6565  1.2527
16089TIP3   OH269757   0.331   1.785   4.101 -0.0751 -0.0107  0.6986
16089TIP3    H169758   0.264   1.726   4.069  1.5217 -0.8407 -1.2010
16089TIP3    H269759   0.342   1.850   4.031 -0.5265  1.5051  1.9863
16090TIP3   OH269760   0.947   2.337   2.590 -0.2298 -0.3973  0.3348
16090TIP3    H169761   0.868   2.373   2.548  0.7712 -0.4059 -1.6334
16090TIP3    H269762   1.018   2.359   2.530  1.2882 -0.3508  2.1131
16091TIP3   OH269763   0.045   2.071   4.866 -0.5527 -0.0739 -0.2409
16091TIP3    H169764  -0.002   2.149   4.896  0.5458  0.4990  0.0411
16091TIP3    H269765   0.047   2.013   4.943  0.8295  0.6987  0.3214
16092TIP3   OH269766   4.693   1.559   2.412  0.0646  0.3612 -0.1716
16092TIP3    H169767   4.780   1.529   2.389 -0.0639 -1.2634  1.4008
16092TIP3    H269768   4.641   1.545   2.332  0.9476  0.2008 -0.7229
16093TIP3   OH269769   0.657   1.259  12.216 -0.1005 -0.1761 -0.4245
16093TIP3    H169770   0.744   1.294  12.196  0.2121 -1.8245 -2.0336
16093TIP3    H269771   0.607   1.271  12.136 -1.7939  1.9421  0.8886
16094TIP3   OH269772   6.649   1.179  15.050 -0.7929 -0.2683  0.1088
16094TIP3    H169773   6.557   1.204  15.059 -0.6715  0.0959  0.3560
16094TIP3    H269774   6.693   1.257  15.018 -0.7098 -0.6951 -0.8406
16095TIP3   OH269775   5.532   5.630   4.000  0.4173 -0.4440 -0.0610
16095TIP3    H169776   5.485   5.561   4.047 -0.0630 -0.6810 -0.8793
16095TIP3    H269777   5.511   5.615   3.908  0.8413  0.3948 -0.3002
16096TIP3   OH269778   6.559   2.928   1.865  0.5160 -0.0085  0.3245
16096TIP3    H169779   6.531   2.935   1.774  1.6200  2.0355  0.1000
16096TIP3    H269780   6.628   2.861   1.863  0.8629  0.3539 -0.4449
16097TIP3   OH269781   4.923   4.948   0.927 -0.2033  0.0379  0.4499
16097TIP3    H169782   4.888   5.006   0.860  1.6864 -0.1274 -0.7208
16097TIP3    H269783   4.856   4.880   0.937 -0.4917  0.0375 -1.3089
16098TIP3   OH269784   2.518   2.338   2.169 -0.0694  0.5248  0.0003
16098TIP3    H169785   2.432   2.317   2.132 -0.0754  0.1415  0.2263
16098TIP3    H269786   2.568   2.370   2.095  0.3578 -1.5490 -0.6594
16099TIP3   OH269787   0.828   3.949   0.730  0.1932  0.0222 -0.3777
16099TIP3    H169788   0.816   3.855   0.727  0.2597 -0.0032  0.1094
16099TIP3    H269789   0.887   3.969   0.656 -1.4840 -0.0503 -1.7647
16100TIP3   OH269790   4.473   5.685  13.742 -0.1529 -0.1565 -0.4658
16100TIP3    H169791   4.383   5.719  13.741  0.1821  0.7569  0.5085
16100TIP3    H269792   4.485   5.651  13.830 -0.3827 -2.5904 -1.3212
16101TIP3   OH269793   0.056   2.614   4.441 -0.0183 -0.0961 -0.1298
16101TIP3    H169794   0.086   2.544   4.383  0.5795  0.1145 -0.0795
16101TIP3    H269795   0.062   2.577   4.529 -1.2150 -0.5183 -0.2209
16102TIP3   OH269796   4.667   6.636   2.010  0.3418  0.2780  0.5300
16102TIP3    H169797   4.585   6.635   1.960  1.9530 -1.7414 -2.2313
16102TIP3    H269798   4.687   6.543   2.023  1.3163  0.7751  2.7248
16103TIP3   OH269799   6.079   5.399  16.609 -0.3455 -0.3087 -0.4140
16103TIP3    H169800   6.010   5.360  16.554 -1.3164 -0.0634  0.6069
16103TIP3    H269801   6.151   5.417  16.548 -1.0871 -0.8044 -1.4560
16104TIP3   OH269802   3.943   4.553   5.546 -0.5656 -0.3121  0.1186
16104TIP3    H169803   3.890   4.572   5.623 -1.5377 -2.9136  0.1217
16104TIP3    H269804   3.982   4.468   5.564  2.8679  1.0561 -0.3280
16105TIP3   OH269805   0.216   3.846   5.165  0.2985  0.8924 -0.5153
16105TIP3    H169806   0.149   3.914   5.174 -0.9136 -0.3315 -0.0094
16105TIP3    H269807   0.272   3.858   5.242 -1.4924 -0.3358  1.0476
16106TIP3   OH269808   2.231   0.189   4.239 -0.3401 -0.0311 -0.2133
16106TIP3    H169809   2.221   0.170   4.146  0.3116  0.5057 -0.4008
16106TIP3    H269810   2.309   0.139   4.265  0.1099  0.6683 -0.2088
16107TIP3   OH269811   4.128   3.098  13.682 -0.1338 -0.3976  0.3378
16107TIP3    H169812   4.072   3.144  13.619 -0.2955 -0.6721  0.2793
16107TIP3    H269813   4.195   3.057  13.628  0.8944  1.0068  0.5214
16108TIP3   OH269814   3.690   6.387   1.880 -0.1622 -0.2221 -0.2577
16108TIP3    H169815   3.645   6.309   1.847 -0.4498  0.4398 -1.4215
16108TIP3    H269816   3.684   6.379   1.975 -2.0421 -0.5591 -0.3833
16109TIP3   OH269817   0.550   0.579  16.010  0.4435 -0.3886  0.4953
16109TIP3    H169818   0.545   0.669  16.042 -1.9896 -0.0590 -0.6877
16109TIP3    H269819   0.481   0.533  16.057 -0.2837 -0.9121 -1.0531
16110TIP3   OH269820   1.381   5.631  11.975  0.4997  0.2112 -0.0187
16110TIP3    H169821   1.288   5.610  11.984  0.1894  1.8049  0.7251
16110TIP3    H269822   1.416   5.624  12.063  0.5709  1.8830  0.1012
16111TIP3   OH269823   4.250   4.164   1.332 -0.2012 -0.6560  0.3555
16111TIP3    H169824   4.171   4.182   1.383 -1.2872  0.3617 -1.5856
16111TIP3    H269825   4.224   4.184   1.241  2.1827 -0.6658 -0.3563
16112TIP3   OH269826   5.866   3.299   1.411  0.4351  1.1135  0.0518
16112TIP3    H169827   5.815   3.223   1.441  0.8040  0.4783 -0.9285
16112TIP3    H269828   5.813   3.375   1.437 -1.4701  0.4452 -1.7921
16113TIP3   OH269829   1.869   0.996   0.978 -0.8519  0.1541  0.2071
16113TIP3    H169830   1.828   0.910   0.968 -0.1972 -0.0575 -0.6948
16113TIP3    H269831   1.930   0.985   1.051  1.7325 -1.1262 -2.0652
16114TIP3   OH269832   0.817   2.195  16.130  0.0335  0.1180  0.0472
16114TIP3    H169833   0.888   2.213  16.191  0.6381  1.4512 -1.0202
16114TIP3    H269834   0.860   2.187  16.045 -0.9612 -0.2403 -0.4291
16115TIP3   OH269835   0.881   4.263   0.797  0.6093 -0.4329  0.3477
16115TIP3    H169836   0.836   4.345   0.776 -0.1741 -0.7387  0.8222
16115TIP3    H269837   0.974   4.283   0.788  0.3460 -0.2988 -2.5824
16116TIP3   OH269838   5.111   2.885  15.209 -0.0471  0.3869 -0.4244
16116TIP3    H169839   5.057   2.830  15.265  2.9214 -1.3984  0.7698
16116TIP3    H269840   5.101   2.973  15.246  0.2269 -0.4168  1.6363
16117TIP3   OH269841   6.323   1.227   5.157 -0.5716 -0.4286 -0.0491
16117TIP3    H169842   6.381   1.162   5.196  0.4576  1.3963  1.5211
16117TIP3    H269843   6.251   1.236   5.221  0.1857  1.2260  0.5998
16118TIP3   OH269844   6.159   3.453   1.010  0.2111  0.1887 -0.1123
16118TIP3    H169845   6.111   3.375   0.982  2.3714 -1.6870  1.3395
16118TIP3    H269846   6.106   3.526   0.976 -2.3046 -1.8440 -0.7315
16119TIP3   OH269847   1.631   0.568  12.675 -0.3350 -0.2630  0.3184
16119TIP3    H169848   1.718   0.607  12.677  0.0169 -1.0498  0.7312
16119TIP3    H269849   1.639   0.489  12.729 -0.7159 -1.5544 -1.4800
16120TIP3   OH269850   5.767   1.686   1.390  0.0436 -0.4018 -0.1477
16120TIP3    H169851   5.774   1.695   1.485 -0.1294 -0.9153 -0.0886
16120TIP3    H269852   5.823   1.757   1.356 -0.2995  0.1060  0.3303
16121TIP3   OH269853   5.715   0.005  11.917 -0.1093  0.0125  0.1671
16121TIP3    H169854   5.689  -0.050  11.844  1.2078 -0.5574  0.1240
16121TIP3    H269855   5.635   0.016  11.969 -0.4794 -1.5694 -0.0581
16122TIP3   OH269856   0.602   3.279   0.424 -0.0250  0.2393 -0.0947
16122TIP3    H169857   0.616   3.204   0.367 -0.1506  0.2907 -0.1931
16122TIP3    H269858   0.558   3.243   0.501  0.1666  0.1660 -0.0204
16123TIP3   OH269859   5.762   2.827   1.483 -0.3448  0.2656  0.0483
16123TIP3    H169860   5.807   2.872   1.411 -1.4138  0.6936 -0.3522
16123TIP3    H269861   5.810   2.745   1.494  1.5157  1.4000  0.6520
16124TIP3   OH269862   0.778   6.445   3.565 -0.2877 -0.0646 -0.0408
16124TIP3    H169863   0.824   6.529   3.556 -0.2568 -0.0895 -0.1096
16124TIP3    H269864   0.842   6.380   3.538 -1.0086  0.0430 -2.1326
16125TIP3   OH269865   2.809   4.357   0.982  0.4717  0.1364  0.0272
16125TIP3    H169866   2.737   4.415   1.008  0.8368  1.0866 -1.0159
16125TIP3    H269867   2.871   4.361   1.055 -0.5623 -0.7543  0.9672
16126TIP3   OH269868   6.104   0.069   1.647  0.0094  0.8364  0.5230
16126TIP3    H169869   6.095  -0.024   1.629  0.2994  1.0554 -0.7724
16126TIP3    H269870   6.145   0.073   1.734 -0.1982 -0.2343  0.6710
16127TIP3   OH269871   1.063   5.699   4.873 -0.4760 -0.4017  0.5513
16127TIP3    H169872   1.063   5.710   4.968 -3.4267  3.1590  0.2261
16127TIP3    H269873   1.130   5.759   4.842 -0.0562 -0.9983  0.2855
16128TIP3   OH269874   4.445   2.718   1.139 -1.0592  0.0733 -0.2320
16128TIP3    H169875   4.372   2.674   1.096 -0.6180 -0.1710 -0.7363
16128TIP3    H269876   4.405   2.770   1.209 -1.6079 -0.9895  0.2523
16129TIP3   OH269877   3.092   2.783  15.903  0.2545  0.1590 -0.4702
16129TIP3    H169878   3.178   2.742  15.897  0.6015  0.7837  0.1628
16129TIP3    H269879   3.030   2.711  15.894  0.8505 -0.3717 -0.3479
16130TIP3   OH269880   5.082   1.395   1.777  0.0833 -0.0477  0.7265
16130TIP3    H169881   5.105   1.438   1.694 -1.1720 -0.0140  0.3956
16130TIP3    H269882   5.033   1.460   1.826 -1.6202 -1.0102  0.3274
16131TIP3   OH269883   2.050   0.629   5.776  0.4593  0.0810  0.2988
16131TIP3    H169884   2.001   0.710   5.793 -1.3153 -1.1542  1.1547
16131TIP3    H269885   1.989   0.575   5.726  2.2767 -0.0432 -1.8464
16132TIP3   OH269886   4.758   4.804  14.388 -1.0573  0.6252  0.3189
16132TIP3    H169887   4.761   4.726  14.444 -0.1388  0.5437  0.1526
16132TIP3    H269888   4.690   4.859  14.427  1.2542  1.6993  2.9634
16133TIP3   OH269889   3.989   2.480   1.124  0.3036 -0.3165 -0.0803
16133TIP3    H169890   4.046   2.557   1.131  0.4060 -0.4895  1.0441
16133TIP3    H269891   4.042   2.408   1.157 -0.4231 -0.5454  0.6042
16134TIP3   OH269892   0.330   4.393  15.995  0.3668 -0.0558 -0.1746
16134TIP3    H169893   0.391   4.459  16.028 -0.6975  1.3092 -0.8738
16134TIP3    H269894   0.252   4.402  16.049  0.3953 -1.1040  0.0596
16135TIP3   OH269895   6.493   0.134  10.923 -0.2927  0.0345 -0.3543
16135TIP3    H169896   6.568   0.153  10.980 -1.0155  1.4222  0.1425
16135TIP3    H269897   6.421   0.114  10.984  0.2106 -3.6582 -0.8159
16136TIP3   OH269898   4.759   6.386   4.779  0.2075  0.3473  0.3951
16136TIP3    H169899   4.849   6.382   4.809 -0.0346 -0.9995  0.9673
16136TIP3    H269900   4.739   6.297   4.751 -0.5272  0.9239 -0.9715
16137TIP3   OH269901   6.482   4.784  11.585  0.2087  0.2548 -0.0947
16137TIP3    H169902   6.482   4.864  11.532  1.3983 -0.0685 -0.5902
16137TIP3    H269903   6.535   4.722  11.534  1.2248 -0.1118  1.3925
16138TIP3   OH269904   4.366   4.953   1.106 -0.6771  0.4291 -0.3605
16138TIP3    H169905   4.458   4.960   1.129 -0.2158 -0.5364 -1.8368
16138TIP3    H269906   4.324   5.026   1.152  0.4258 -0.5181  2.1897
16139TIP3   OH269907   3.066   2.916  11.813  0.0019 -0.1938  0.2810
16139TIP3    H169908   3.049   2.850  11.746 -0.2077 -1.0201  1.1259
16139TIP3    H269909   3.157   2.942  11.799 -0.8782  1.7784 -2.1431
16140TIP3   OH269910   2.164   5.190  11.025  0.5123  0.3697 -0.3314
16140TIP3    H169911   2.077   5.185  10.986  1.6178  0.8360 -2.9573
16140TIP3    H269912   2.173   5.281  11.053  1.1248  0.9965 -2.4728
16141TIP3   OH269913   3.098   2.615   2.560  0.0215  0.0886  0.3148
16141TIP3    H169914   3.012   2.583   2.587 -0.2209  1.5716  1.3573
16141TIP3    H269915   3.131   2.547   2.501 -1.0616 -1.3876  1.3554
16142TIP3   OH269916   4.553   4.929  16.535 -0.7801  0.5309 -0.2518
16142TIP3    H169917   4.512   4.871  16.600 -2.0857  1.6242 -0.0725
16142TIP3    H269918   4.553   4.877  16.454  0.8866 -0.8527  0.5979
16143TIP3   OH269919   1.828   0.775   6.117  0.6625  0.0628  0.1304
16143TIP3    H169920   1.885   0.788   6.193 -0.4919  0.3613  0.9578
16143TIP3    H269921   1.794   0.686   6.127 -0.9946  0.7583  1.0293
16144TIP3   OH269922   4.198   0.891  17.114 -0.2702 -0.3360 -0.5181
16144TIP3    H169923   4.234   0.880  17.202 -2.4698  1.2445  0.6484
16144TIP3    H269924   4.263   0.944  17.067  0.3318 -0.0830  0.5868
16145TIP3   OH269925   3.857   6.307  11.307 -0.2422  0.1085 -0.2484
16145TIP3    H169926   3.895   6.334  11.223 -1.2516  0.7031 -0.5283
16145TIP3    H269927   3.844   6.388  11.355  1.2921 -0.3246  0.9172
16146TIP3   OH269928   6.188   1.010  14.086 -0.3944 -0.5717  0.1891
16146TIP3    H169929   6.265   0.954  14.090  1.2614  1.5625 -0.8151
16146TIP3    H269930   6.159   1.005  13.994  2.6468  3.8154 -1.1998
16147TIP3   OH269931   2.377   4.774   1.553  0.2919  0.3028 -0.0465
16147TIP3    H169932   2.398   4.713   1.623  1.1917  1.7999  1.0103
16147TIP3    H269933   2.315   4.726   1.497  1.3058 -1.6986  0.5219
16148TIP3   OH269934   2.105   0.770   1.074  0.0554 -0.6065  0.2977
16148TIP3    H169935   2.161   0.844   1.054 -0.0057 -0.3458  1.0499
16148TIP3    H269936   2.123   0.750   1.166 -0.6896 -0.8565  0.3984
16149TIP3   OH269937   0.822   4.219   4.801  0.3743  0.0986  0.6592
16149TIP3    H169938   0.742   4.242   4.752  0.8044  1.0045  0.3730
16149TIP3    H269939   0.865   4.153   4.747 -0.5637 -0.9612  1.1874
16150TIP3   OH269940   5.607   1.394  11.358 -0.0887 -0.4140 -0.5053
16150TIP3    H169941   5.633   1.365  11.445 -1.2879  0.3673  0.1150
16150TIP3    H269942   5.557   1.321  11.322 -0.0578 -0.5160 -0.3382
16151TIP3   OH269943   5.781   5.311   3.557 -0.7654 -0.4296 -0.2264
16151TIP3    H169944   5.854   5.255   3.530 -1.5644 -1.0442 -1.1449
16151TIP3    H269945   5.770   5.294   3.650 -0.5927 -1.3305 -0.3694
16152TIP3   OH269946   3.352   2.713   4.233 -0.1558 -0.4130  0.9221
16152TIP3    H169947   3.417   2.777   4.260  1.3758 -1.8280  0.6521
16152TIP3    H269948   3.283   2.720   4.300 -0.3610  1.9689  0.5135
16153TIP3   OH269949   6.017   0.451  12.614  0.3631  0.6310 -0.3805
16153TIP3    H169950   5.983   0.396  12.685  2.1785  0.2206  0.1929
16153TIP3    H269951   5.982   0.411  12.534 -1.4876  0.9492  0.2426
16154TIP3   OH269952   5.663   3.271  12.841 -0.2588  0.0760  0.7232
16154TIP3    H169953   5.622   3.193  12.803 -0.6739  0.6655 -0.0549
16154TIP3    H269954   5.697   3.241  12.925  0.4912 -1.2137 -0.0071
16155TIP3   OH269955   1.348   3.086   1.453 -0.5199  0.0566  0.0794
16155TIP3    H169956   1.436   3.109   1.421 -0.2947 -0.4879  0.2995
16155TIP3    H269957   1.332   3.147   1.524 -0.1516 -0.0983  0.2979
16156TIP3   OH269958   6.763   5.108  15.900  0.5745  0.1259 -0.1521
16156TIP3    H169959   6.771   5.093  15.995 -1.6031 -0.2453 -0.0063
16156TIP3    H269960   6.679   5.068  15.877  0.3611  1.6016 -1.9659
16157TIP3   OH269961   6.658   2.613  13.280  0.2633  0.0612  0.8850
16157TIP3    H169962   6.726   2.550  13.301  0.8815  0.1816 -0.6606
16157TIP3    H269963   6.618   2.635  13.364  0.3690 -1.9878  1.4917
16158TIP3   OH269964   5.341   0.262   4.357 -0.4151  0.5454 -0.1836
16158TIP3    H169965   5.319   0.355   4.356  0.5987  0.8225  1.9332
16158TIP3    H269966   5.360   0.241   4.266  3.5246  3.4174 -0.1266
16159TIP3   OH269967   3.156   4.263   5.500  0.3594 -0.1688 -0.4372
16159TIP3    H169968   3.216   4.216   5.558  1.5060  0.0161 -1.4388
16159TIP3    H269969   3.145   4.204   5.425 -1.1068 -0.4092 -0.0352
16160TIP3   OH269970   6.799   2.939  15.715 -0.2480 -0.5487  0.3984
16160TIP3    H169971   6.814   2.868  15.778 -0.6410 -0.1715  0.9212
16160TIP3    H269972   6.779   2.894  15.633 -1.6271 -1.0494  0.9936
16161TIP3   OH269973   2.125   0.338  15.153 -0.5380  0.3324 -0.2036
16161TIP3    H169974   2.142   0.247  15.175 -1.5537  0.1128 -0.3210
16161TIP3    H269975   2.208   0.369  15.115  0.3656 -0.0446  1.4102
16162TIP3   OH269976   4.380   3.974  13.827 -0.5142  0.1124 -0.0336
16162TIP3    H169977   4.300   4.025  13.814 -0.0388  1.2449  1.3166
16162TIP3    H269978   4.440   4.008  13.760 -0.4888  0.7313  0.2951
16163TIP3   OH269979   6.497   3.824   0.283 -0.2713 -0.5271 -0.6057
16163TIP3    H169980   6.480   3.877   0.362  0.5852 -1.2416  0.0711
16163TIP3    H269981   6.590   3.839   0.264 -0.4488 -0.4593 -1.4040
16164TIP3   OH269982   3.507   1.808  12.847 -0.6303  0.2639  0.5553
16164TIP3    H169983   3.567   1.859  12.902  0.0221 -1.4570  1.4949
16164TIP3    H269984   3.550   1.803  12.762 -0.6224  1.1309  0.5079
16165TIP3   OH269985   1.589   0.686   4.633  0.1432  0.1808 -0.0769
16165TIP3    H169986   1.613   0.606   4.680 -0.8148  0.6465  1.2509
16165TIP3    H269987   1.506   0.663   4.589  1.0220 -0.2444 -1.5395
16166TIP3   OH269988   3.439   1.461   3.699 -0.5923 -0.1407 -0.7622
16166TIP3    H169989   3.386   1.483   3.621 -1.3893 -0.0705 -0.2127
16166TIP3    H269990   3.378   1.471   3.772  0.7575  2.1598  0.1260
16167TIP3   OH269991   5.503   1.857  13.151 -0.0541 -0.2648 -0.2861
16167TIP3    H169992   5.534   1.894  13.233  0.6213 -1.3161 -0.0618
16167TIP3    H269993   5.575   1.802  13.120 -0.6841 -0.6614 -1.0749
16168TIP3   OH269994   4.096   5.020  11.883 -0.4332 -0.1194  0.2163
16168TIP3    H169995   4.141   5.103  11.865 -0.4111 -0.3600 -0.9229
16168TIP3    H269996   4.167   4.956  11.889 -0.4347 -0.0204  1.3267
16169TIP3   OH269997   1.045   2.167  13.644 -0.3408  0.5733  0.2120
16169TIP3    H169998   1.139   2.148  13.641 -0.1948  1.3384 -0.0066
16169TIP3    H269999   1.011   2.132  13.562 -0.2233  0.4275  0.2264
16170TIP3   OH270000   1.887   5.834   4.977 -0.6991  0.1624  0.5957
16170TIP3    H170001   1.900   5.855   5.069  1.1480  2.0833 -0.0424
16170TIP3    H270002   1.953   5.768   4.957  0.6355  1.5950  0.0923
16171TIP3   OH270003   5.891   4.219  13.479  0.2374  0.0732  0.1936
16171TIP3    H170004   5.821   4.183  13.533 -0.8579 -1.5502 -2.2103
16171TIP3    H270005   5.859   4.211  13.389  1.8240  3.1134 -0.6963
16172TIP3   OH270006   5.726   3.766   0.874 -0.1122  0.1239  0.4035
16172TIP3    H170007   5.692   3.716   0.800  0.6073  0.9848 -0.5222
16172TIP3    H270008   5.662   3.753   0.944 -0.8755 -0.5656 -0.4158
16173TIP3   OH270009   1.847   4.958   5.652 -0.2652  0.6022 -0.4964
16173TIP3    H170010   1.785   4.891   5.681  0.5324  0.0792  0.0182
16173TIP3    H270011   1.835   5.030   5.715  0.9946 -0.2673  0.7689
16174TIP3   OH270012   6.023   0.576  14.323 -0.0294 -0.2048 -0.1679
16174TIP3    H170013   6.093   0.632  14.289 -1.5476  1.4803 -0.5940
16174TIP3    H270014   6.029   0.496  14.271  0.9315  0.3200 -0.8804
16175TIP3   OH270015   2.695   2.564  16.780 -0.1206  0.2188  0.4332
16175TIP3    H170016   2.770   2.623  16.774  0.4821 -0.6751 -1.1531
16175TIP3    H270017   2.695   2.516  16.697 -1.3252 -1.1395  1.1799
16176TIP3   OH270018   1.004   1.060   2.454  0.3651  0.4503  0.0102
16176TIP3    H170019   0.997   0.999   2.527  2.5047  0.0873 -0.0583
16176TIP3    H270020   0.984   1.145   2.493  2.7649  0.4524  1.3773
16177TIP3   OH270021   5.248   6.102  14.917 -0.4211  0.3076  0.0053
16177TIP3    H170022   5.154   6.086  14.916 -0.5995  1.3018  0.5400
16177TIP3    H270023   5.263   6.161  14.844 -0.1742 -0.0384 -0.2262
16178TIP3   OH270024   6.199   3.314  16.556 -0.0145  0.6887  0.0271
16178TIP3    H170025   6.176   3.258  16.630  0.1423  0.2313 -0.2656
16178TIP3    H270026   6.294   3.325  16.563 -0.1361  1.4784  0.4741
16179TIP3   OH270027   6.047   2.723   1.086  0.3553 -0.6688 -0.1145
16179TIP3    H170028   6.134   2.722   1.127  0.6517  0.5902 -0.6679
16179TIP3    H270029   6.060   2.682   1.001  0.6588  0.4625 -0.6316
16180TIP3   OH270030   1.704   0.344  16.113 -0.7486  0.4731 -0.0186
16180TIP3    H170031   1.737   0.403  16.180  0.1425  0.0806 -0.0996
16180TIP3    H270032   1.614   0.372  16.098 -1.1425  0.1960  1.7352
16181TIP3   OH270033   1.521   4.018   1.763 -0.1546  0.0875 -0.1576
16181TIP3    H170034   1.445   4.034   1.819  0.7471 -0.0994  1.1552
16181TIP3    H270035   1.529   3.923   1.759  0.3036  0.1093  0.1344
16182TIP3   OH270036   6.217   1.506  10.989 -0.3540  0.5618  0.0651
16182TIP3    H170037   6.196   1.435  10.929 -0.4849  0.2296  0.5049
16182TIP3    H270038   6.164   1.580  10.958 -1.2284  0.0855  0.4182
16183TIP3   OH270039   2.535   2.118  11.652 -0.3087  0.0271  0.0736
16183TIP3    H170040   2.486   2.049  11.608  0.4633 -1.0044  0.8020
16183TIP3    H270041   2.583   2.162  11.581  1.4302 -2.0341 -0.0905
16184TIP3   OH270042   6.523   5.776   2.327 -0.9532 -0.4754 -0.4120
16184TIP3    H170043   6.574   5.767   2.408 -1.3134 -1.7392 -0.3131
16184TIP3    H270044   6.480   5.862   2.335  0.9003  0.4663 -0.3669
16185TIP3   OH270045   0.105   0.022  17.025 -0.2870  0.4221  0.5383
16185TIP3    H170046   0.047   0.086  17.067  0.4042  0.2498  1.7961
16185TIP3    H270047   0.052  -0.058  17.022 -0.6698  0.6848  0.2313
16186TIP3   OH270048   1.649   1.470  16.440 -0.1383 -0.1554 -0.1709
16186TIP3    H170049   1.559   1.451  16.413 -0.5968  0.0926  1.1616
16186TIP3    H270050   1.646   1.472  16.535  1.0132  1.2672 -0.1511
16187TIP3   OH270051   2.503   6.090  12.429 -0.6299 -0.3193  0.4448
16187TIP3    H170052   2.543   6.084  12.343  2.3553  0.3495  1.7187
16187TIP3    H270053   2.550   6.025  12.482  0.9389  2.5803  2.7608
16188TIP3   OH270054   0.850   0.952   2.836  0.1007  0.2290 -0.3981
16188TIP3    H170055   0.772   1.007   2.824  0.5679  0.7657 -1.1116
16188TIP3    H270056   0.834   0.903   2.916 -0.1307  1.7791  0.5197
16189TIP3   OH270057   5.359   6.257  16.736 -0.2901 -0.3739 -0.4468
16189TIP3    H170058   5.416   6.183  16.716 -0.0609 -0.0919 -0.8622
16189TIP3    H270059   5.416   6.320  16.779 -0.1415  0.1714 -1.4375
16190TIP3   OH270060   2.846   5.159   3.348  0.0807 -0.4061  0.0070
16190TIP3    H170061   2.799   5.079   3.324 -0.8737 -0.1422  0.9438
16190TIP3    H270062   2.902   5.133   3.421  0.8597 -0.5524 -0.6381
16191TIP3   OH270063   4.979   4.312   2.501  0.4893  0.1649 -0.0744
16191TIP3    H170064   5.046   4.262   2.548 -1.7273 -0.1626  2.8722
16191TIP3    H270065   4.991   4.402   2.532  0.4958  0.3692 -0.6697
16192TIP3   OH270066   5.718   2.623  14.539  0.3901  0.4815  0.0063
16192TIP3    H170067   5.654   2.679  14.585  2.7479  1.2575  2.4777
16192TIP3    H270068   5.785   2.684  14.509  0.3745 -0.4223 -1.9191
16193TIP3   OH270069   5.630   3.864  13.683  0.2771  0.4220 -0.0881
16193TIP3    H170070   5.535   3.872  13.680  0.2441  0.6311  1.0007
16193TIP3    H270071   5.645   3.783  13.732  0.6419  1.4402  1.5604
16194TIP3   OH270072   1.658   0.988   6.167  0.5345  0.1087 -0.7268
16194TIP3    H170073   1.728   0.928   6.142 -0.5318 -1.4671 -0.0186
16194TIP3    H270074   1.592   0.932   6.207 -0.0857  1.8785  0.8019
16195TIP3   OH270075   3.188   1.278   1.812 -0.8136  0.0661  0.0517
16195TIP3    H170076   3.132   1.202   1.794 -2.3410  1.0962  0.4111
16195TIP3    H270077   3.215   1.268   1.903 -1.6296  0.3586  0.3213
16196TIP3   OH270078   3.277   3.146   5.130 -0.8597 -0.0377  0.1675
16196TIP3    H170079   3.297   3.061   5.168 -1.1888  0.5264  1.6106
16196TIP3    H270080   3.182   3.156   5.140 -0.9280  0.2053 -0.6304
16197TIP3   OH270081   3.330   4.848   6.060  0.5362 -0.0786 -0.0420
16197TIP3    H170082   3.340   4.943   6.063  0.2006 -0.0709  0.8078
16197TIP3    H270083   3.236   4.834   6.071  0.6924 -0.5514  0.6914
16198TIP3   OH270084   5.585   2.574  14.249  0.5812 -0.9829  0.1355
16198TIP3    H170085   5.501   2.589  14.292  1.2398  1.6536  0.5551
16198TIP3    H270086   5.649   2.618  14.304  1.6809  0.7914 -2.4615
16199TIP3   OH270087   2.836   6.089  16.522  0.2378 -0.4852 -0.1166
16199TIP3    H170088   2.819   5.998  16.548  1.9697 -1.1589 -1.2841
16199TIP3    H270089   2.794   6.097  16.436 -1.5444  0.4128  0.7904
16200TIP3   OH270090   2.405   3.627  13.678 -0.1901  0.2158  0.5727
16200TIP3    H170091   2.457   3.552  13.650 -1.0211  0.4363 -1.6413
16200TIP3    H270092   2.467   3.682  13.726  1.2945 -0.1617 -0.8755
16201TIP3   OH270093   2.236   0.027   5.342  0.0316 -0.4357  0.1956
16201TIP3    H170094   2.297  -0.005   5.408 -0.7354  0.6147  1.4182
16201TIP3    H270095   2.225   0.120   5.362  0.1604  0.0121 -1.6929
16202TIP3   OH270096   4.496   3.845   4.380 -0.6775 -0.4120  0.1437
16202TIP3    H170097   4.511   3.917   4.441 -0.1500 -0.3193 -0.0875
16202TIP3    H270098   4.405   3.820   4.394 -0.8005  0.1517  0.3874
16203TIP3   OH270099   6.510   3.551  17.282  0.3656 -0.6260 -0.1892
16203TIP3    H170100   6.500   3.465  17.241 -1.0524 -0.1360 -0.8942
16203TIP3    H270101   6.426   3.594  17.270  1.1969  1.0510 -0.2588
16204TIP3   OH270102   1.976   4.766  14.992 -0.3416  0.4009  0.5821
16204TIP3    H170103   2.027   4.816  14.929 -0.8300  0.3872  0.1700
16204TIP3    H270104   2.038   4.743  15.061  0.6709 -1.3011 -0.8749
16205TIP3   OH270105   3.609   1.156  16.074  0.5203  0.4822 -0.1356
16205TIP3    H170106   3.616   1.062  16.090 -1.6160 -0.1455 -2.4882
16205TIP3    H270107   3.572   1.192  16.155 -1.0600 -1.0982 -0.1396
16206TIP3   OH270108   5.319   6.730  15.146  0.0145 -0.4276 -0.1096
16206TIP3    H170109   5.341   6.756  15.236 -2.5423  0.8726  0.1809
16206TIP3    H270110   5.285   6.641  15.154 -3.4888  0.8927  0.7822
16207TIP3   OH270111   5.248   4.233   6.185  0.2333 -0.0712  0.0722
16207TIP3    H170112   5.297   4.209   6.106  0.4489  0.2980  0.0927
16207TIP3    H270113   5.284   4.317   6.211 -0.5462  0.3024 -0.0258
16208TIP3   OH270114   1.270   0.064  11.998 -0.1738  0.2582  0.1951
16208TIP3    H170115   1.309   0.150  11.985  0.7859 -0.4840 -2.1708
16208TIP3    H270116   1.344   0.003  11.992 -1.4306 -1.0832 -3.1266
16209TIP3   OH270117   4.888   0.038  12.761 -0.1893  0.1703 -0.3778
16209TIP3    H170118   4.801   0.066  12.789  0.2272  1.0403  0.0804
16209TIP3    H270119   4.929   0.004  12.840  0.0641  0.2337 -0.4806
16210TIP3   OH270120   4.048   0.742   1.511 -0.1943  0.5725 -0.0526
16210TIP3    H170121   4.083   0.671   1.457  1.6793  0.8663  0.7615
16210TIP3    H270122   3.992   0.697   1.574 -0.5233  0.0102 -0.7277
16211TIP3   OH270123   6.346   6.224  13.489  0.2345  0.3415 -0.1691
16211TIP3    H170124   6.421   6.227  13.429 -0.3321  1.5750 -0.8543
16211TIP3    H270125   6.319   6.132  13.489  2.0486 -0.2214  0.4959
16212TIP3   OH270126   5.939   0.050   6.310 -0.2866 -0.1929 -0.1599
16212TIP3    H170127   5.937   0.138   6.348 -0.4582 -1.3396  2.6223
16212TIP3    H270128   6.006   0.055   6.242  1.2386  1.5244  1.4090
16213TIP3   OH270129   2.658   2.998   0.345 -0.4209  0.4161 -0.0346
16213TIP3    H170130   2.722   2.977   0.278 -1.1715  1.5478 -1.1121
16213TIP3    H270131   2.651   2.918   0.397  2.0671  0.3711  0.2923
16214TIP3   OH270132   6.035   2.455   5.244 -0.1750 -0.2240 -0.3476
16214TIP3    H170133   6.045   2.550   5.242 -2.4046  0.1294  1.9333
16214TIP3    H270134   6.100   2.422   5.182  0.3129  2.7995 -1.5167
16215TIP3   OH270135   6.341   1.790   2.981  0.2921  0.6572  0.5740
16215TIP3    H170136   6.262   1.779   3.035 -0.1357 -0.7718 -0.3174
16215TIP3    H270137   6.363   1.701   2.953  1.0964  1.2730 -0.7746
16216TIP3   OH270138   2.795   3.471   4.527 -0.0739 -0.8471  0.1729
16216TIP3    H170139   2.756   3.466   4.615  0.2317 -1.9191  0.2576
16216TIP3    H270140   2.889   3.459   4.542  0.0012 -0.8270 -0.2851
16217TIP3   OH270141   1.327   6.519  13.569 -0.0018 -0.5008 -0.1848
16217TIP3    H170142   1.368   6.562  13.494 -1.5535  0.0873 -0.7073
16217TIP3    H270143   1.271   6.452  13.531  1.3981 -2.1374  0.5836
16218TIP3   OH270144   2.787   0.744   1.456 -0.0732 -0.0621  1.0719
16218TIP3    H170145   2.754   0.831   1.481 -0.0151  0.4078 -0.4468
16218TIP3    H270146   2.872   0.761   1.417 -0.0242 -0.8184  0.8460
16219TIP3   OH270147   3.419   0.599   0.274  0.8775 -0.4479  0.2992
16219TIP3    H170148   3.347   0.538   0.258  2.3244 -2.2754  0.5641
16219TIP3    H270149   3.404   0.670   0.211 -1.5207 -0.4390  0.8283
16220TIP3   OH270150   4.755   2.378  14.073 -0.4603 -0.5066  0.1519
16220TIP3    H170151   4.676   2.379  14.126  0.1451  0.8437  1.0588
16220TIP3    H270152   4.730   2.332  13.993 -2.6221  1.3222 -0.2805
16221TIP3   OH270153   4.798   4.414   2.791 -0.4372  0.3765  0.2956
16221TIP3    H170154   4.860   4.468   2.742 -0.7300  1.5824  1.2076
16221TIP3    H270155   4.853   4.359   2.846 -0.1332 -0.2392 -0.6133
16222TIP3   OH270156   1.545   4.406  13.941 -0.2095  0.3583  0.3703
16222TIP3    H170157   1.534   4.311  13.932 -1.3176  0.5484 -0.3865
16222TIP3    H270158   1.594   4.417  14.022  0.8035 -0.9136 -0.0417
16223TIP3   OH270159   2.630   6.790  13.870 -0.5792  0.0504 -0.0652
16223TIP3    H170160   2.698   6.848  13.838 -1.7575  1.4709 -0.0564
16223TIP3    H270161   2.559   6.799  13.806 -0.4638 -2.0283 -0.5221
16224TIP3   OH270162   6.354   4.945  12.876 -0.1965  0.8589  0.0357
16224TIP3    H170163   6.298   4.868  12.887 -0.3314  0.9966  0.3012
16224TIP3    H270164   6.294   5.017  12.858  0.0565  0.5364 -2.1616
16225TIP3   OH270165   1.421   0.667   0.359  0.4942  0.2227  0.2558
16225TIP3    H170166   1.414   0.588   0.413 -0.2628 -0.4141 -0.7644
16225TIP3    H270167   1.501   0.655   0.307 -0.0615 -0.2461 -0.4937
16226TIP3   OH270168   2.304   6.680   0.590 -0.1760  0.0829 -0.7698
16226TIP3    H170169   2.283   6.767   0.556  1.0142  0.8902  0.5273
16226TIP3    H270170   2.393   6.662   0.559  0.0776 -0.1144  0.0682
16227TIP3   OH270171   1.261   1.183  12.824  0.2512 -0.5781 -0.2639
16227TIP3    H170172   1.189   1.152  12.878 -0.5991 -1.7708 -2.0522
16227TIP3    H270173   1.262   1.125  12.749  1.8133  0.6680 -1.2527
16228TIP3   OH270174   4.769   5.330   4.900  0.2669  0.2212 -0.0971
16228TIP3    H170175   4.714   5.280   4.839  0.3018 -1.6645  1.3695
16228TIP3    H270176   4.706   5.371   4.960  0.2126  2.3381 -1.5417
16229TIP3   OH270177   1.938   2.079   6.140  0.3057 -0.3322 -0.0261
16229TIP3    H170178   1.941   2.155   6.082  1.1986  0.7692  1.4405
16229TIP3    H270179   2.025   2.040   6.132  0.5299 -0.0074  0.7857
16230TIP3   OH270180   4.117   1.514   5.608 -0.0554  0.3779 -0.0229
16230TIP3    H170181   4.052   1.546   5.671 -1.2912  1.2255 -1.6608
16230TIP3    H270182   4.200   1.551   5.637 -1.1081  3.3323 -0.6183
16231TIP3   OH270183   5.901   0.463  16.869  0.2552 -0.5919  0.3046
16231TIP3    H170184   5.874   0.384  16.821 -0.8456 -0.4849  0.7266
16231TIP3    H270185   5.854   0.534  16.827 -1.3957 -0.6052  2.0622
16232TIP3   OH270186   5.970   5.312   1.009 -0.5860 -0.2141  0.2903
16232TIP3    H170187   6.009   5.240   0.959 -1.7334 -0.9747  0.4777
16232TIP3    H270188   5.928   5.269   1.083 -0.3232  0.7583  1.0177
16233TIP3   OH270189   4.953   2.545  15.597 -0.1947  0.0667 -0.0506
16233TIP3    H170190   4.977   2.453  15.614 -1.5239 -0.2222  0.2914
16233TIP3    H270191   4.858   2.543  15.584 -0.1806  1.3491 -0.3870
16234TIP3   OH270192   6.147   3.136   4.939  0.1277 -0.1506 -0.1029
16234TIP3    H170193   6.126   3.223   4.972  0.0806  0.4087 -1.5756
16234TIP3    H270194   6.137   3.078   5.014 -1.8650  0.8111  0.3866
16235TIP3   OH270195   3.315   6.036  14.466  0.2882 -0.1593 -0.0571
16235TIP3    H170196   3.269   6.029  14.382  0.0947  0.2536  0.0123
16235TIP3    H270197   3.247   6.022  14.531  0.7192 -1.9553  0.0083
16236TIP3   OH270198   6.309   4.893   5.221 -0.1192  0.5815  0.2490
16236TIP3    H170199   6.247   4.965   5.230 -1.1081 -0.2189  0.0313
16236TIP3    H270200   6.254   4.816   5.205  0.8357 -0.4677  1.8273
16237TIP3   OH270201   0.460   6.358  14.166  0.0092  0.2214 -0.3204
16237TIP3    H170202   0.537   6.411  14.146  0.3198  0.8961  2.3926
16237TIP3    H270203   0.486   6.269  14.146  0.9132  0.6427 -1.0277
16238TIP3   OH270204   5.802   2.472  15.417  0.5483  0.5207 -0.5861
16238TIP3    H170205   5.853   2.428  15.485  0.1101 -0.0350 -0.6123
16238TIP3    H270206   5.774   2.554  15.458 -1.2411 -0.6222  0.5675
16239TIP3   OH270207   5.474   6.624   0.013  0.3094 -0.1276  0.3745
16239TIP3    H170208   5.412   6.644  -0.057  1.0086  1.1995  0.1292
16239TIP3    H270209   5.552   6.676  -0.008  1.1963 -1.1195  1.1473
16240TIP3   OH270210   1.508   1.697  14.819 -0.2322 -0.6803  0.3971
16240TIP3    H170211   1.548   1.739  14.742 -3.1470  0.4369 -0.5441
16240TIP3    H270212   1.575   1.636  14.849  1.8202  0.4289 -1.7276
16241TIP3   OH270213   1.827   4.062   4.212 -0.0038 -0.7341  0.2312
16241TIP3    H170214   1.900   4.014   4.250 -0.0016 -0.3309  0.7397
16241TIP3    H270215   1.836   4.049   4.117 -0.4296 -2.3575  0.3925
16242TIP3   OH270216   6.760   3.519   5.339 -0.0245 -0.0974  0.2230
16242TIP3    H170217   6.791   3.533   5.249  0.6996 -1.5881  0.2141
16242TIP3    H270218   6.665   3.527   5.334  0.2140  2.7937 -0.0979
16243TIP3   OH270219   5.499   5.466   3.065 -0.7898  0.4634  0.6265
16243TIP3    H170220   5.412   5.458   3.105 -1.0085 -1.6678 -0.2060
16243TIP3    H270221   5.486   5.440   2.974  0.6199  0.6140  0.3795
16244TIP3   OH270222   0.122   2.133   0.418 -0.5004  0.2094  0.0357
16244TIP3    H170223   0.202   2.124   0.470 -1.2252  0.0921  1.1322
16244TIP3    H270224   0.088   2.044   0.411  0.3229  0.0011 -1.8400
16245TIP3   OH270225   5.544   4.099  16.248  0.4967 -0.4337  0.4684
16245TIP3    H170226   5.581   4.153  16.178 -0.9899 -0.8482 -0.6854
16245TIP3    H270227   5.509   4.022  16.202 -0.1133 -0.9083  1.7228
16246TIP3   OH270228   5.364   3.832   6.251 -0.4220  0.1561 -0.2397
16246TIP3    H170229   5.404   3.911   6.217  0.4811 -1.0752 -2.0924
16246TIP3    H270230   5.405   3.760   6.203 -2.8089 -1.3269 -0.1843
16247TIP3   OH270231   4.738   3.383  11.252 -0.9868 -0.0823  0.0682
16247TIP3    H170232   4.736   3.392  11.157 -2.2451  0.3436  0.1127
16247TIP3    H270233   4.826   3.353  11.273  0.5158  3.4407 -0.9236
16248TIP3   OH270234   0.969   3.214   2.524 -0.6968  0.4776  0.0949
16248TIP3    H170235   0.906   3.223   2.595  0.5140 -1.6238  1.4817
16248TIP3    H270236   0.936   3.141   2.472  0.3271 -0.3190  0.5557
16249TIP3   OH270237   2.616   3.212  14.068  0.1196  0.3146 -0.4633
16249TIP3    H170238   2.571   3.221  13.984  0.7766 -0.6371 -0.9319
16249TIP3    H270239   2.555   3.165  14.123 -0.2404  0.7771 -0.4664
16250TIP3   OH270240   2.074   2.850   4.258  0.1716  0.3783  0.5285
16250TIP3    H170241   2.160   2.809   4.256  1.0938  2.2091  1.1084
16250TIP3    H270242   2.089   2.938   4.222 -1.6490  0.3685 -0.3177
16251TIP3   OH270243   0.179   4.690   3.569  0.1505  0.3163 -0.2389
16251TIP3    H170244   0.174   4.643   3.486 -1.5851 -0.6192  0.3581
16251TIP3    H270245   0.173   4.622   3.635  1.0634  1.0931  0.6570
16252TIP3   OH270246   3.552   2.408   7.032 -0.1147 -0.1659  0.1281
16252TIP3    H170247   3.579   2.326   7.073 -1.2597 -0.7843 -0.3353
16252TIP3    H270248   3.580   2.476   7.094  0.2790 -0.9419  0.8130
16253TIP3   OH270249   2.301   4.290   1.124  0.4332 -0.4736  0.3243
16253TIP3    H170250   2.341   4.376   1.137  1.3851 -0.8034 -0.3967
16253TIP3    H270251   2.213   4.299   1.163  1.2722  0.1723  2.1366
16254TIP3   OH270252   4.328   6.684   3.029 -0.2406  0.0193 -0.1743
16254TIP3    H170253   4.340   6.696   2.935  1.2264 -1.1296 -0.1435
16254TIP3    H270254   4.239   6.650   3.037 -0.1032 -0.6085 -1.2108
16255TIP3   OH270255   2.850   5.472   1.165  0.3067 -0.5684  0.2091
16255TIP3    H170256   2.763   5.439   1.141 -0.0653 -0.9926  2.0803
16255TIP3    H270257   2.857   5.556   1.119 -1.4162 -0.1550  0.6672
16256TIP3   OH270258   5.727   3.167  13.115  0.0597  0.4140  0.1462
16256TIP3    H170259   5.803   3.188  13.170  0.8741 -2.2877  0.1230
16256TIP3    H270260   5.676   3.105  13.167  0.0829 -1.0339 -1.5182
16257TIP3   OH270261   4.775   3.278   6.198  0.2451 -0.0682  0.1457
16257TIP3    H170262   4.706   3.229   6.153  1.3387 -0.4324 -1.1657
16257TIP3    H270263   4.810   3.215   6.262  1.7963 -1.1195 -1.6868
16258TIP3   OH270264   3.299   1.867   4.466  0.0571 -0.2592 -0.4058
16258TIP3    H170265   3.248   1.793   4.431 -3.2791  0.5165  2.5736
16258TIP3    H270266   3.273   1.941   4.411  0.7735 -0.5835 -1.1947
16259TIP3   OH270267   3.419   5.039   5.176 -1.1760 -0.2044 -0.2287
16259TIP3    H170268   3.505   5.039   5.218 -1.2331 -1.6369 -0.0792
16259TIP3    H270269   3.430   5.095   5.099 -0.2039 -0.0828 -0.0097
16260TIP3   OH270270   6.687   3.954   4.631  0.4074  0.0423 -0.3123
16260TIP3    H170271   6.782   3.960   4.643  0.4114  0.2703 -0.4505
16260TIP3    H270272   6.677   3.913   4.545  0.3777 -2.5879  0.8899
16261TIP3   OH270273   2.692   1.146  13.586 -0.1039  0.0206 -0.2684
16261TIP3    H170274   2.728   1.224  13.626 -0.3830  0.9535 -1.7969
16261TIP3    H270275   2.704   1.077  13.652 -0.2805  1.4325  1.2725
16262TIP3   OH270276   6.397   3.337  12.923  0.3672 -0.1792 -0.3028
16262TIP3    H170277   6.354   3.383  12.995 -2.4790 -0.0727 -2.0382
16262TIP3    H270278   6.440   3.262  12.965 -1.1659 -0.0788  1.5014
16263TIP3   OH270279   4.329   2.074   6.492  0.0994  0.2490 -0.2249
16263TIP3    H170280   4.258   2.082   6.428  0.1777  0.9063 -0.2394
16263TIP3    H270281   4.353   1.982   6.491  0.7026  0.4121 -1.7926
16264TIP3   OH270282   0.912   0.152  15.781 -0.5280 -0.0575 -0.0902
16264TIP3    H170283   0.821   0.161  15.811 -0.7354  0.0531 -0.7518
16264TIP3    H270284   0.906   0.156  15.686 -0.0719 -2.4712 -0.2320
16265TIP3   OH270285   6.472   2.460   2.656  0.7206  0.3331  0.7339
16265TIP3    H170286   6.404   2.424   2.714 -1.1430  2.0460 -0.3197
16265TIP3    H270287   6.494   2.544   2.695  0.8746  0.6173  0.0369
16266TIP3   OH270288   5.508   0.801  13.346 -0.2367  0.1561  0.1226
16266TIP3    H170289   5.549   0.778  13.429  1.2044  0.7143 -0.4266
16266TIP3    H270290   5.575   0.785  13.280 -1.1042  0.4896 -0.8518
16267TIP3   OH270291   4.522   6.509   0.098  0.0042  0.4138 -0.0745
16267TIP3    H170292   4.443   6.481   0.051 -0.3945  0.6287  0.4646
16267TIP3    H270293   4.490   6.563   0.169  0.5147 -1.0256  1.2698
16268TIP3   OH270294   0.654   0.047  14.746 -0.7573 -0.2235  0.1890
16268TIP3    H170295   0.584   0.077  14.804 -2.1069 -1.1515 -0.9157
16268TIP3    H270296   0.611   0.030  14.662  0.6755 -1.4062 -0.3437
16269TIP3   OH270297   3.965   3.799  16.903  0.1434  0.0060 -0.6434
16269TIP3    H170298   3.968   3.735  16.974 -0.5768 -0.3188 -0.9005
16269TIP3    H270299   3.891   3.856  16.925  0.6375  0.6150 -0.5369
16270TIP3   OH270300   3.076   6.458   2.391  0.7158  0.4431 -0.1546
16270TIP3    H170301   3.006   6.445   2.327 -0.5365 -0.0556  1.2799
16270TIP3    H270302   3.030   6.472   2.474  2.3156  0.4332  0.7517
16271TIP3   OH270303   2.199   5.446   0.015 -0.5663  0.3344  0.5082
16271TIP3    H170304   2.203   5.381  -0.055  2.7172  2.4660 -1.4135
16271TIP3    H270305   2.111   5.483   0.008 -0.9207 -0.8005 -1.2476
16272TIP3   OH270306   3.628   4.419  17.208  0.0660  0.3870 -0.2318
16272TIP3    H170307   3.703   4.467  17.173 -0.1915  0.5136 -0.6171
16272TIP3    H270308   3.554   4.479  17.198 -0.3703 -0.2993 -1.2566
16273TIP3   OH270309   4.583   0.781  15.208 -0.0741 -0.5438  0.3448
16273TIP3    H170310   4.658   0.733  15.173 -0.8396 -1.8906  0.4821
16273TIP3    H270311   4.507   0.732  15.177 -0.9018  0.8446  0.1415
16274TIP3   OH270312   4.136   3.587  10.913 -0.0565  0.2075  0.3571
16274TIP3    H170313   4.085   3.565  10.991 -1.4785  2.3919  0.0816
16274TIP3    H270314   4.071   3.614  10.848  1.2544  0.3968 -0.9129
16275TIP3   OH270315   5.947   1.365   5.834  0.8357 -0.1939  0.8683
16275TIP3    H170316   5.916   1.429   5.898 -1.5064  1.1592 -1.5114
16275TIP3    H270317   5.880   1.297   5.833  1.7963 -1.1660  1.1646
16276TIP3   OH270318   2.122   5.800  14.562  0.1980 -0.1483  0.9176
16276TIP3    H170319   2.176   5.841  14.629  1.0091  1.1530 -0.5094
16276TIP3    H270320   2.099   5.871  14.503 -0.8798 -1.1959  0.0532
16277TIP3   OH270321   3.829   4.829  15.483  0.0550 -0.2181  0.5557
16277TIP3    H170322   3.889   4.758  15.462 -0.9962 -0.7013 -0.9374
16277TIP3    H270323   3.880   4.909  15.469 -0.1096 -0.5681 -2.3559
16278TIP3   OH270324   5.761   4.044   4.242  0.1388  0.0296  0.3756
16278TIP3    H170325   5.769   4.126   4.193 -1.1139 -0.3518 -0.4978
16278TIP3    H270326   5.812   3.981   4.193 -0.1441 -0.0695  0.2066
16279TIP3   OH270327   4.356   1.932  15.262  0.3833  0.1098  0.3952
16279TIP3    H170328   4.265   1.954  15.282  0.3134  0.0976  0.0893
16279TIP3    H270329   4.361   1.933  15.166  0.8568  0.7195  0.4244
16280TIP3   OH270330   2.933   0.171  14.950 -0.6108 -0.0714 -0.1195
16280TIP3    H170331   2.924   0.266  14.952 -0.4175 -0.0671  0.7230
16280TIP3    H270332   2.978   0.153  14.868 -1.5359  0.4827 -0.7636
16281TIP3   OH270333   6.639   1.451   1.731  0.1288 -0.2929  0.3068
16281TIP3    H170334   6.721   1.402   1.741  1.0402  1.0415 -0.4864
16281TIP3    H270335   6.640   1.514   1.803  1.1496  1.5634 -1.2753
16282TIP3   OH270336   6.580   2.223   2.931 -0.1070 -0.1867  0.4799
16282TIP3    H170337   6.581   2.317   2.948 -1.3776 -0.5154  2.5002
16282TIP3    H270338   6.629   2.185   3.003  1.0690 -1.0418 -0.7369
16283TIP3   OH270339   5.179   5.741  14.691 -0.0946  0.4696  0.8491
16283TIP3    H170340   5.100   5.693  14.714 -0.4950  2.0688  2.9124
16283TIP3    H270341   5.149   5.828  14.664  0.7761  0.2778 -0.8180
16284TIP3   OH270342   3.719   1.976  12.948 -0.6067  0.0282  0.0186
16284TIP3    H170343   3.807   1.988  12.983  0.1129 -3.3412 -0.4667
16284TIP3    H270344   3.703   2.053  12.895  0.9947  1.9372  2.2246
16285TIP3   OH270345   3.967   6.287   4.684 -0.1490  0.0536 -0.4729
16285TIP3    H170346   4.030   6.291   4.756  1.0467  2.6590 -1.6139
16285TIP3    H270347   3.884   6.263   4.726  0.8065  0.1486  1.5459
16286TIP3   OH270348   4.107   4.081   0.392  0.7406  0.0452  0.0218
16286TIP3    H170349   4.117   4.129   0.309  1.1969  1.4028  0.8477
16286TIP3    H270350   4.197   4.064   0.420  0.5865  0.2176  0.6075
16287TIP3   OH270351   0.042   3.858   5.485  0.1297  0.0255 -0.2805
16287TIP3    H170352  -0.031   3.907   5.445 -1.0923 -1.4853  0.0389
16287TIP3    H270353   0.091   3.824   5.410  0.5006  1.0054 -0.4973
16288TIP3   OH270354   3.796   2.628  15.341  0.2509  0.3839 -0.1514
16288TIP3    H170355   3.748   2.710  15.350 -0.3632  0.1431 -1.1837
16288TIP3    H270356   3.845   2.637  15.259 -1.2638 -0.9876 -1.2524
16289TIP3   OH270357   1.049   4.366   5.662  0.5424  0.1636 -0.2197
16289TIP3    H170358   0.981   4.319   5.615 -0.6420  0.7568  0.8670
16289TIP3    H270359   1.130   4.321   5.639 -0.4620 -1.7946  0.0525
16290TIP3   OH270360   0.088   2.438   4.195 -0.3059 -0.7144 -0.6603
16290TIP3    H170361   0.100   2.498   4.122 -2.1051  0.1695 -0.2449
16290TIP3    H270362   0.025   2.373   4.163 -3.3760  1.3168  0.9986
16291TIP3   OH270363   6.495   3.954  11.817  0.8698  1.0935 -0.0430
16291TIP3    H170364   6.408   3.951  11.857  0.8524 -1.1723 -0.2209
16291TIP3    H270365   6.552   3.911  11.880  1.4942  0.7571 -0.8388
16292TIP3   OH270366   6.133   4.685  14.265  0.7285 -0.2875 -0.1450
16292TIP3    H170367   6.045   4.656  14.239  0.3007  0.3374  0.5619
16292TIP3    H270368   6.179   4.605  14.288  0.4927 -0.6644 -0.9818
16293TIP3   OH270369   4.168   3.949  17.167  0.0725  0.4312 -0.0650
16293TIP3    H170370   4.099   3.968  17.104 -0.4355 -0.2460  0.2834
16293TIP3    H270371   4.221   4.029  17.169 -0.3038  0.7051 -0.8374
16294TIP3   OH270372   3.045   6.130   0.149  0.0088 -0.1493 -0.1429
16294TIP3    H170373   3.032   6.055   0.208 -0.6919 -1.2222 -1.6143
16294TIP3    H270374   2.960   6.174   0.148  0.1553  0.1411 -0.0115
16295TIP3   OH270375   0.880   5.683  14.580 -0.8171 -0.6055  0.2716
16295TIP3    H170376   0.835   5.723  14.506 -0.8871  0.5663  0.9346
16295TIP3    H270377   0.822   5.698  14.655 -0.4725 -1.2561  0.6780
16296TIP3   OH270378   5.112   6.603  13.821 -1.0133  0.5495  1.0377
16296TIP3    H170379   5.077   6.583  13.908 -2.2899  1.3956  0.7397
16296TIP3    H270380   5.174   6.675  13.836  0.8129 -1.1061  1.5999
16297TIP3   OH270381   3.686   2.279   5.157 -0.0075 -0.1524 -0.2284
16297TIP3    H170382   3.629   2.265   5.081  0.2896  2.1089 -0.9071
16297TIP3    H270383   3.711   2.191   5.185 -2.5418 -1.1313 -0.8984
16298TIP3   OH270384   4.598   1.208   1.038 -0.5208 -0.2741 -0.1968
16298TIP3    H170385   4.663   1.267   0.999 -0.9895  1.1547  1.1560
16298TIP3    H270386   4.648   1.129   1.059  0.5246  0.3544 -0.2726
16299TIP3   OH270387   4.505   6.261   3.345 -0.8597 -0.0645 -0.5432
16299TIP3    H170388   4.458   6.236   3.425 -1.9068 -1.6757 -1.6163
16299TIP3    H270389   4.541   6.178   3.312  2.9709  1.1457  0.3443
16300TIP3   OH270390   4.707   5.775  13.600 -0.3084 -0.0231 -0.4054
16300TIP3    H170391   4.624   5.744  13.636  0.0066 -0.4908 -0.0793
16300TIP3    H270392   4.685   5.805  13.512 -1.0977  1.1680  0.1741
16301TIP3   OH270393   0.024   3.857  13.685 -0.2633 -0.5296 -0.2069
16301TIP3    H170394  -0.002   3.884  13.597  1.0660 -0.7133 -0.6639
16301TIP3    H270395   0.013   3.937  13.738  1.7696  0.4263 -1.1595
16302TIP3   OH270396   5.511   2.205   2.926 -0.1715  0.5276 -0.8656
16302TIP3    H170397   5.488   2.279   2.982  0.7498  0.7293 -0.7557
16302TIP3    H270398   5.431   2.152   2.923 -0.3571  0.7343  0.2796
16303TIP3   OH270399   3.623   4.779   1.458  0.4422 -0.1390  0.1891
16303TIP3    H170400   3.554   4.712   1.454  1.6075 -1.3867  0.8221
16303TIP3    H270401   3.580   4.859   1.426 -0.9277 -1.2052 -0.7004
16304TIP3   OH270402   5.026   3.939  12.549 -0.2109 -0.1399  0.1914
16304TIP3    H170403   5.009   3.860  12.601  0.2856 -0.5981 -0.3458
16304TIP3    H270404   4.980   4.009  12.596 -1.6814 -0.9671  0.0041
16305TIP3   OH270405   1.550   3.698   1.833 -0.7648  0.4573 -0.3860
16305TIP3    H170406   1.510   3.620   1.795  0.2368 -0.7741  0.9947
16305TIP3    H270407   1.515   3.702   1.922  0.3321  0.7060  0.0511
16306TIP3   OH270408   6.165   0.868   2.909  0.4418  0.3105  0.2284
16306TIP3    H170409   6.135   0.952   2.874 -2.4645 -1.0168 -0.6396
16306TIP3    H270410   6.221   0.832   2.841 -0.7302  0.2180 -0.7036
16307TIP3   OH270411   2.220   0.980  15.460 -0.1932 -0.1408  0.5736
16307TIP3    H170412   2.262   0.936  15.386  0.8163 -0.9794  1.6183
16307TIP3    H270413   2.127   0.964  15.448 -0.2769  1.7849 -1.8065
16308TIP3   OH270414   4.073   0.285   6.422 -0.6320  0.1846 -0.1232
16308TIP3    H170415   4.047   0.304   6.512 -0.4676 -1.1308  0.1992
16308TIP3    H270416   4.159   0.325   6.413  0.0972 -1.1447  0.8289
16309TIP3   OH270417   5.925   1.945  12.008 -0.2540 -0.8750  0.5016
16309TIP3    H170418   5.918   1.894  11.928 -0.6626 -2.0415  1.2686
16309TIP3    H270419   6.011   1.986  12.003  0.3973 -2.2511  0.2181
16310TIP3   OH270420   2.853   4.060  11.641 -0.5217 -0.9551  0.1776
16310TIP3    H170421   2.926   4.011  11.602 -1.3412 -2.1995  0.1800
16310TIP3    H270422   2.825   4.120  11.572  0.5339 -0.4376  0.1915
16311TIP3   OH270423   5.957   4.228   3.255  0.3046  0.3913  0.0600
16311TIP3    H170424   5.934   4.295   3.319 -3.6154 -0.3058 -0.5218
16311TIP3    H270425   5.969   4.148   3.307 -0.7883  0.2921  0.1738
16312TIP3   OH270426   4.945   4.759  13.441 -0.0865 -0.2095 -0.4723
16312TIP3    H170427   4.977   4.848  13.428  0.9174 -0.6742 -1.2700
16312TIP3    H270428   4.851   4.765  13.424 -0.3837  1.0882  1.5196
16313TIP3   OH270429   1.243   4.785  17.192 -0.4226 -0.9633 -0.3663
16313TIP3    H170430   1.240   4.874  17.156  2.5952  0.2942  2.2751
16313TIP3    H270431   1.294   4.735  17.129 -1.0113 -0.5084 -1.2124
16314TIP3   OH270432   2.318   2.860  17.196 -0.0996  0.1566  0.4856
16314TIP3    H170433   2.297   2.954  17.196 -1.1928 -0.0719  2.2553
16314TIP3    H270434   2.240   2.818  17.230  0.3607 -1.4244 -0.3789
16315TIP3   OH270435   5.082   0.306   4.026 -0.1052  0.5072  0.1015
16315TIP3    H170436   5.129   0.377   3.982 -0.6955  0.9972  0.2609
16315TIP3    H270437   5.043   0.255   3.955  1.1463 -0.2382 -0.0578
16316TIP3   OH270438   4.043   5.720   1.584  0.1748  0.0886  0.2733
16316TIP3    H170439   3.978   5.685   1.523 -1.0780  1.1932  0.9362
16316TIP3    H270440   4.079   5.796   1.538  0.1156  0.1974  0.4070
16317TIP3   OH270441   4.926   1.123  16.179  0.7036  0.0809 -0.5555
16317TIP3    H170442   4.903   1.034  16.204 -0.6778  0.7386  0.6193
16317TIP3    H270443   5.022   1.122  16.172  0.6961 -1.5020 -0.6480
16318TIP3   OH270444   0.615   2.772   6.227 -0.4872  0.1072 -0.0678
16318TIP3    H170445   0.593   2.863   6.246  3.6772  0.9145  1.5985
16318TIP3    H270446   0.578   2.722   6.301 -1.1147  0.7152  0.0270
16319TIP3   OH270447   6.259   1.685  12.973 -0.4787 -0.0914  0.3463
16319TIP3    H170448   6.255   1.593  12.947 -0.0375 -0.4043  1.3795
16319TIP3    H270449   6.168   1.715  12.969 -0.4545 -0.1521 -1.4165
16320TIP3   OH270450   4.332   4.250  14.917 -0.1449  0.1810 -0.5405
16320TIP3    H170451   4.256   4.308  14.928  0.0037  0.0333  1.5453
16320TIP3    H270452   4.401   4.292  14.968  0.3557 -1.1374 -0.1384
16321TIP3   OH270453   0.069   3.062  14.671  0.4199 -0.2230 -0.3430
16321TIP3    H170454  -0.016   3.052  14.715  0.8364 -1.0626  0.2857
16321TIP3    H270455   0.070   2.992  14.606  0.7127 -0.3466 -0.2059
16322TIP3   OH270456   4.226   1.758   3.460 -0.4521 -0.2631 -0.0013
16322TIP3    H170457   4.140   1.728   3.430 -0.7959  0.4929  0.2295
16322TIP3    H270458   4.268   1.679   3.495 -0.6197 -0.8557 -1.1024
16323TIP3   OH270459   2.329   6.414  14.824 -0.0029 -0.0062  0.2204
16323TIP3    H170460   2.364   6.503  14.833 -0.9979  0.3936  0.1737
16323TIP3    H270461   2.236   6.427  14.808 -0.6049 -1.1190  2.5895
16324TIP3   OH270462   3.124   0.545   3.998  0.2989  0.3554 -0.4882
16324TIP3    H170463   3.139   0.473   3.937 -0.0555  1.0191 -1.3667
16324TIP3    H270464   3.211   0.584   4.010  0.7279 -0.9735  0.9774
16325TIP3   OH270465   5.883   6.525  16.526 -0.2840  0.1718 -0.5219
16325TIP3    H170466   5.830   6.524  16.447 -1.7956 -3.5766  0.4448
16325TIP3    H270467   5.955   6.465  16.508 -0.0002  0.1794  0.5201
16326TIP3   OH270468   6.506   0.513   5.386  0.1331 -0.1102 -0.1691
16326TIP3    H170469   6.470   0.448   5.327  0.0965  0.3301 -0.6385
16326TIP3    H270470   6.554   0.574   5.329  0.3867  0.1266  0.2877
16327TIP3   OH270471   1.188   1.815  11.394 -0.8088 -0.1100  0.3797
16327TIP3    H170472   1.279   1.844  11.397 -0.6247 -0.5451 -0.7307
16327TIP3    H270473   1.147   1.869  11.327 -1.2559 -0.2359  0.5427
16328TIP3   OH270474   1.706   0.637  11.458  0.2069  0.5660 -0.1566
16328TIP3    H170475   1.782   0.579  11.466  0.5685  1.4244  3.5806
16328TIP3    H270476   1.724   0.709  11.518 -2.8988  1.5625 -0.3176
16329TIP3   OH270477   5.871   1.040  16.953  0.4087  0.0422  0.5916
16329TIP3    H170478   5.917   1.124  16.949  0.9187 -0.1482  2.0118
16329TIP3    H270479   5.941   0.975  16.945 -0.0705 -0.2728 -1.3623
16330TIP3   OH270480   3.144   4.120   1.056  0.2216 -0.5663  0.0434
16330TIP3    H170481   3.238   4.116   1.042  0.5841  0.3323  2.0460
16330TIP3    H270482   3.133   4.115   1.151 -1.7678 -0.9677 -0.1728
16331TIP3   OH270483   4.478   1.697  14.459 -0.5558 -0.2087 -0.4783
16331TIP3    H170484   4.432   1.712  14.377  1.0968  0.3667 -1.3199
16331TIP3    H270485   4.551   1.640  14.436  0.1446  0.2686  0.5155
16332TIP3   OH270486   3.923   1.595  15.284  0.3341  0.1939  0.9111
16332TIP3    H170487   3.973   1.671  15.314  1.0028 -0.4902  1.5592
16332TIP3    H270488   3.988   1.540  15.240  0.0103 -0.3663  1.1312
16333TIP3   OH270489   0.478   6.441   4.871 -0.1224  0.2002  0.0344
16333TIP3    H170490   0.427   6.478   4.943 -1.3941  0.3915 -0.9438
16333TIP3    H270491   0.414   6.393   4.819  1.2712 -2.3448  0.5811
16334TIP3   OH270492   1.089   1.154  16.663  0.7122  0.2740 -0.4046
16334TIP3    H170493   1.017   1.121  16.717  2.5410 -1.2923  1.1513
16334TIP3    H270494   1.108   1.241  16.698  1.2786 -0.3688  0.9182
16335TIP3   OH270495   3.745   3.716   1.385  0.4044  0.2420 -0.7977
16335TIP3    H170496   3.839   3.721   1.400  0.6984  1.5698 -2.8607
16335TIP3    H270497   3.729   3.625   1.361  0.7872 -0.5272  1.7293
16336TIP3   OH270498   5.076   6.679  16.518 -0.1767 -0.3292 -0.5370
16336TIP3    H170499   4.985   6.660  16.542 -0.0292  0.7237  1.0106
16336TIP3    H270500   5.128   6.623  16.576  0.1716  0.8835  0.3540
16337TIP3   OH270501   0.747   6.196   3.977  0.5222  0.1940  0.4834
16337TIP3    H170502   0.711   6.238   4.054 -0.0553  1.1724 -0.3138
16337TIP3    H270503   0.709   6.243   3.903  1.5099 -0.3600 -0.3977
16338TIP3   OH270504   5.594   2.522   3.905  0.1387 -0.2978  0.0733
16338TIP3    H170505   5.506   2.557   3.921  1.2028  1.6363  1.9506
16338TIP3    H270506   5.630   2.509   3.992  1.1875 -2.4982 -0.6742
16339TIP3   OH270507   1.486   3.664  12.089 -0.1197  0.2350  0.5324
16339TIP3    H170508   1.461   3.639  12.177  1.7480  0.2382  1.0856
16339TIP3    H270509   1.566   3.615  12.071 -1.3178 -0.9940 -1.7890
16340TIP3   OH270510   4.112   3.172  10.437 -0.3041 -0.3706 -0.4057
16340TIP3    H170511   4.059   3.205  10.364 -1.7224 -0.0359  0.7735
16340TIP3    H270512   4.049   3.141  10.501  0.8972  0.8165  1.3929
16341TIP3   OH270513   0.333   5.980  11.617 -0.3611 -0.1108  0.0158
16341TIP3    H170514   0.327   5.909  11.553  2.9994 -0.4919  0.0507
16341TIP3    H270515   0.345   6.059  11.564 -0.6801 -0.0011  0.1028
16342TIP3   OH270516   0.898   5.835  17.040 -0.0045  0.1287 -0.5553
16342TIP3    H170517   0.879   5.924  17.069 -2.3165 -0.5282  0.0823
16342TIP3    H270518   0.950   5.797  17.111  1.4546  1.1345 -1.0843
16343TIP3   OH270519   2.470   3.851  15.479 -0.2590  0.3458 -0.6023
16343TIP3    H170520   2.420   3.860  15.560  1.7119 -0.2646  0.7231
16343TIP3    H270521   2.536   3.919  15.484  1.9210 -1.7224 -0.1217
16344TIP3   OH270522   5.521   4.148  14.735  0.6643  0.0557  0.0929
16344TIP3    H170523   5.583   4.213  14.702  0.8990  0.1408  0.6984
16344TIP3    H270524   5.565   4.108  14.809  0.0876 -0.0442  0.3864
16345TIP3   OH270525   6.001   1.712   3.959 -0.3204 -0.5781 -0.4337
16345TIP3    H170526   6.086   1.672   3.976 -0.4442  0.0357  1.7759
16345TIP3    H270527   6.022   1.799   3.923 -0.0359 -0.9725 -1.2336
16346TIP3   OH270528   6.460   0.567   3.579 -0.3609  0.0521 -0.5186
16346TIP3    H170529   6.407   0.491   3.604  0.3385  0.5135  2.5209
16346TIP3    H270530   6.399   0.640   3.580  0.0896  0.4242  2.0470
16347TIP3   OH270531   2.495   3.808  13.328 -0.1650  0.4752  0.2781
16347TIP3    H170532   2.472   3.716  13.317 -0.5931  0.6692 -0.5631
16347TIP3    H270533   2.577   3.808  13.376 -0.2164 -0.3428  0.3636
16348TIP3   OH270534   4.231   2.875   6.467 -0.2781  0.0336  0.0842
16348TIP3    H170535   4.138   2.850   6.471 -0.0531 -0.7001  0.8256
16348TIP3    H270536   4.258   2.878   6.559  0.8905 -1.4396 -0.2083
16349TIP3   OH270537   5.704   2.427   6.052 -0.7265 -0.1100  0.4051
16349TIP3    H170538   5.686   2.353   5.994 -2.7510  0.8118 -0.1940
16349TIP3    H270539   5.717   2.387   6.138 -2.3702 -1.1314  0.2015
16350TIP3   OH270540   3.006   1.586   1.158 -0.6176  0.0309  0.1595
16350TIP3    H170541   2.983   1.493   1.154 -0.6291  0.1094 -2.3691
16350TIP3    H270542   2.934   1.629   1.111  1.0305  0.9783 -1.5374
16351TIP3   OH270543   1.323   5.725   3.016  0.3516 -0.4788  0.2068
16351TIP3    H170544   1.398   5.678   2.981  0.0221  0.2795 -1.6022
16351TIP3    H270545   1.360   5.805   3.054  0.5398 -0.4580 -0.0181
16352TIP3   OH270546   2.031   5.005  13.121 -0.1779 -0.7205 -0.0542
16352TIP3    H170547   2.086   5.083  13.127  1.1491 -1.7034  0.7821
16352TIP3    H270548   1.958   5.031  13.064  0.9753  0.6940 -0.9089
16353TIP3   OH270549   6.434   4.547  10.720  0.1514 -0.1221  0.1061
16353TIP3    H170550   6.386   4.626  10.744  1.0716  0.6550 -0.5683
16353TIP3    H270551   6.423   4.488  10.795  0.0952  0.9312  0.9302
16354TIP3   OH270552   3.336   5.284  14.014  0.0223  0.4018  0.1388
16354TIP3    H170553   3.295   5.316  14.094 -0.9947 -0.9496  0.1611
16354TIP3    H270554   3.414   5.340  14.004 -1.4572  2.5821  0.4071
16355TIP3   OH270555   6.527   1.387  11.101  0.2254 -0.2883 -0.0607
16355TIP3    H170556   6.500   1.352  11.016 -3.4821 -0.6141  1.1510
16355TIP3    H270557   6.562   1.474  11.080 -0.3368 -0.4860 -1.9706
16356TIP3   OH270558   3.105   3.130  13.393 -0.5332  0.1255 -0.3428
16356TIP3    H170559   3.163   3.101  13.323  0.1101 -0.1139  0.2878
16356TIP3    H270560   3.024   3.155  13.348  0.1626  0.7648 -1.2574
16357TIP3   OH270561   5.130   3.204   4.742 -0.4140 -0.3242 -0.0207
16357TIP3    H170562   5.155   3.200   4.650 -0.6187 -1.5158 -0.0234
16357TIP3    H270563   5.059   3.141   4.750  0.1118 -0.7715  1.1204
16358TIP3   OH270564   4.658   5.561  11.335  0.6090  0.0274  0.6843
16358TIP3    H170565   4.595   5.621  11.294  0.8959  0.2275  0.5386
16358TIP3    H270566   4.686   5.606  11.415 -0.9602 -0.9380  1.8079
16359TIP3   OH270567   1.002   4.400  16.811  0.0485  0.7786  0.5470
16359TIP3    H170568   0.923   4.405  16.756 -0.5954 -0.6080  1.3280
16359TIP3    H270569   0.985   4.462  16.882  0.5000  1.9070 -0.3030
16360TIP3   OH270570   2.686   4.920  13.164  0.2923 -0.2371  0.3755
16360TIP3    H170571   2.683   4.834  13.208  0.9288 -0.3528  0.2029
16360TIP3    H270572   2.603   4.926  13.117  0.8092 -1.3388 -0.6881
16361TIP3   OH270573   3.279   3.802  11.566 -0.2328  0.4287 -0.2255
16361TIP3    H170574   3.364   3.837  11.592 -0.6816  1.2195  0.2017
16361TIP3    H270575   3.293   3.708  11.557  0.2251  0.3029  1.7001
16362TIP3   OH270576   2.393   4.721  14.746  0.8430  0.2423  0.0000
16362TIP3    H170577   2.468   4.664  14.767 -1.7793 -2.3957  2.6829
16362TIP3    H270578   2.333   4.665  14.697 -0.4818  1.6055  0.0177
16363TIP3   OH270579   5.610   4.261  15.427  0.7207  0.1775  0.1118
16363TIP3    H170580   5.620   4.166  15.421  0.4200  0.0941  0.9606
16363TIP3    H270581   5.607   4.280  15.520  1.0382  1.0531 -0.0430
16364TIP3   OH270582   3.070   2.117  15.013 -0.7172  0.4244  0.4630
16364TIP3    H170583   3.089   2.201  14.971  2.0689  0.5846  1.9443
16364TIP3    H270584   2.987   2.132  15.058 -0.8870  1.9950 -0.3112
16365TIP3   OH270585   6.069   0.295  15.212 -0.1678 -0.1141  0.4563
16365TIP3    H170586   6.078   0.274  15.304 -1.8462 -0.8685  0.4737
16365TIP3    H270587   6.048   0.211  15.170 -1.9865  0.6271 -0.2041
16366TIP3   OH270588   4.326   1.169  12.246  0.6422  0.1492 -0.3860
16366TIP3    H170589   4.315   1.264  12.252 -2.7894 -0.0392 -2.2753
16366TIP3    H270590   4.308   1.137  12.334 -0.3906  1.0984 -0.2422
16367TIP3   OH270591   6.361   5.982  15.598  0.2982  0.1831 -0.3936
16367TIP3    H170592   6.283   5.972  15.545 -1.6763  0.9130  2.2465
16367TIP3    H270593   6.369   5.899  15.645 -1.3493  1.5280  2.4158
16368TIP3   OH270594   5.380   1.138  14.362  0.8005 -0.0363 -0.2064
16368TIP3    H170595   5.417   1.109  14.279 -1.4863  0.9280 -1.6347
16368TIP3    H270596   5.403   1.231  14.367  0.1772  0.1200 -0.2091
16369TIP3   OH270597   2.192   6.517   1.007  0.4293 -0.2078  0.0253
16369TIP3    H170598   2.248   6.588   0.976  0.8339 -0.0224  1.1709
16369TIP3    H270599   2.140   6.492   0.930  0.9955  0.6454 -0.6398
16370TIP3   OH270600   5.815   2.785   6.119  0.2008  0.0435 -0.5192
16370TIP3    H170601   5.763   2.738   6.183  3.6512 -1.7099  1.1311
16370TIP3    H270602   5.759   2.791   6.042 -2.9082 -0.4959  1.6247
16371TIP3   OH270603   5.771   0.189   5.807 -0.2525 -0.5214  0.6149
16371TIP3    H170604   5.709   0.251   5.846  0.0487 -1.4805  2.6891
16371TIP3    H270605   5.715   0.125   5.763 -0.5936  0.7035 -0.7757
16372TIP3   OH270606   6.231   3.761  13.275 -0.0982  0.7008 -0.2998
16372TIP3    H170607   6.145   3.755  13.233 -0.3753  2.4743 -0.0469
16372TIP3    H270608   6.236   3.852  13.306  1.4899  0.3612  0.5044
16373TIP3   OH270609   0.742   5.544  13.478 -1.0835  0.5975 -0.1169
16373TIP3    H170610   0.734   5.531  13.384 -1.2147  1.5449 -0.2343
16373TIP3    H270611   0.771   5.634  13.488 -0.5541  0.3408  0.7321
16374TIP3   OH270612   3.075   0.986   3.257 -0.7900 -0.1655 -0.4392
16374TIP3    H170613   3.013   0.916   3.236 -1.4376  0.3316 -0.2152
16374TIP3    H270614   3.157   0.959   3.215 -0.6692 -1.6861  0.7408
16375TIP3   OH270615   5.733   4.816  16.926  0.3442  0.0341  1.0192
16375TIP3    H170616   5.793   4.846  16.995  1.8702 -0.8835  0.0961
16375TIP3    H270617   5.702   4.731  16.957 -0.3620  0.4215  1.4058
16376TIP3   OH270618   3.296   0.161  11.482  0.1471  0.0387  0.3371
16376TIP3    H170619   3.215   0.153  11.533 -0.9840  0.7343 -1.3081
16376TIP3    H270620   3.355   0.211  11.537  0.6921 -3.3699  3.0002
16377TIP3   OH270621   1.349   3.202   6.483 -0.1653 -0.4301  0.4892
16377TIP3    H170622   1.338   3.122   6.433  0.8183 -1.0538  1.2447
16377TIP3    H270623   1.427   3.186   6.537  0.0849  1.0476  0.5950
16378TIP3   OH270624   2.357   0.122  13.430 -0.2649 -0.3200  0.2690
16378TIP3    H170625   2.433   0.122  13.372  0.9268 -1.0679  1.7746
16378TIP3    H270626   2.301   0.052  13.397  0.0674 -0.2783 -0.3902
16379TIP3   OH270627   5.200   4.447   3.735  0.1753 -0.3362  0.1872
16379TIP3    H170628   5.232   4.536   3.722 -0.2090 -0.0257  1.2787
16379TIP3    H270629   5.176   4.443   3.828  1.4814 -2.0017  0.4911
16380TIP3   OH270630   4.369   2.156  13.387 -0.2459  0.0745  0.6352
16380TIP3    H170631   4.416   2.166  13.304 -0.2775 -0.4565  0.5520
16380TIP3    H270632   4.385   2.238  13.434 -1.0425  0.7860 -0.3080
16381TIP3   OH270633   5.940   4.963  12.370 -0.3680 -0.2103 -0.2905
16381TIP3    H170634   5.984   4.999  12.293 -1.8641  2.3311 -0.0115
16381TIP3    H270635   5.846   4.971  12.350 -0.7703  0.1154  1.6184
16382TIP3   OH270636   4.499   3.224   0.137  0.1207 -0.4101  0.0385
16382TIP3    H170637   4.453   3.292   0.185  0.1729 -0.5398  0.2739
16382TIP3    H270638   4.503   3.256   0.047 -2.2930 -1.3420 -0.4409
16383TIP3   OH270639   5.678   6.141   2.117 -0.5104  0.1905 -0.3170
16383TIP3    H170640   5.612   6.148   2.186  0.3329  0.8701  0.4354
16383TIP3    H270641   5.669   6.222   2.068  0.5590  0.8157  0.5113
16384TIP3   OH270642   4.457   4.434   1.278 -0.4766 -0.2048  0.0543
16384TIP3    H170643   4.381   4.457   1.331  0.7665 -0.4726  2.0204
16384TIP3    H270644   4.512   4.382   1.336  1.5823  0.6456 -1.0663
16385TIP3   OH270645   1.028   0.026   4.248 -0.0385  0.1951  0.4584
16385TIP3    H170646   1.014   0.002   4.340  2.4635  1.7107  1.2736
16385TIP3    H270647   1.066   0.114   4.251 -0.1343  0.3755 -2.0656
16386TIP3   OH270648   6.229   5.156  11.247 -0.3762  0.0273  0.0459
16386TIP3    H170649   6.193   5.105  11.175 -0.9928  0.1763  0.2443
16386TIP3    H270650   6.253   5.091  11.313 -3.2565  0.0823  1.2472
16387TIP3   OH270651   5.094   1.086  14.424 -0.5284 -0.1497  0.0762
16387TIP3    H170652   5.074   1.052  14.337 -2.6082  0.5354  0.2519
16387TIP3    H270653   5.182   1.123  14.416 -0.5911 -0.3380 -1.6528
16388TIP3   OH270654   5.131   1.071  16.717 -0.2283  0.5618 -0.7304
16388TIP3    H170655   5.201   1.055  16.653  0.5154  1.3858 -0.1367
16388TIP3    H270656   5.159   1.149  16.764 -1.7300  1.1264 -0.7264
16389TIP3   OH270657   1.729   3.694  10.477  0.5590  0.0575 -0.2308
16389TIP3    H170658   1.768   3.644  10.405  0.3553 -0.7254  0.1875
16389TIP3    H270659   1.721   3.783  10.444 -0.6718 -0.5427 -1.6386
16390TIP3   OH270660   4.879   5.383  14.630 -0.0389  0.2446 -0.4210
16390TIP3    H170661   4.906   5.454  14.688  0.0544  0.8500 -1.2038
16390TIP3    H270662   4.943   5.314  14.645  0.0450  0.4327  0.1148
16391TIP3   OH270663   6.199   3.744  16.245 -0.5063  0.1099  0.0646
16391TIP3    H170664   6.123   3.757  16.188  0.2836  1.4727 -0.7014
16391TIP3    H270665   6.269   3.794  16.204  0.6887 -0.7349  1.0261
16392TIP3   OH270666   2.297   4.738   4.825 -0.4623  0.0813  0.6906
16392TIP3    H170667   2.380   4.726   4.780 -1.0927  0.7629 -0.6650
16392TIP3    H270668   2.240   4.779   4.761 -1.6898  0.1221  1.7816
16393TIP3   OH270669   4.483   1.342  17.067 -0.0262  0.4004  0.1386
16393TIP3    H170670   4.520   1.420  17.110  0.2134  0.7541 -0.6961
16393TIP3    H270671   4.437   1.377  16.991 -0.8303 -0.1829  0.3620
16394TIP3   OH270672   0.809   3.467  12.208 -0.0761  0.2690  0.2644
16394TIP3    H170673   0.826   3.399  12.143  1.4489  0.4152  0.4921
16394TIP3    H270674   0.890   3.473  12.258 -0.7762  1.1048  1.3068
16395TIP3   OH270675   5.863   2.118  12.573  0.3518  0.0278  0.5610
16395TIP3    H170676   5.843   2.195  12.520  0.8909 -0.1447  0.0982
16395TIP3    H270677   5.788   2.060  12.562 -0.5390  0.9294  1.7580
16396TIP3   OH270678   6.744   2.873   4.688 -0.2817 -0.2075 -0.1080
16396TIP3    H170679   6.695   2.938   4.738 -1.3979 -1.4346  0.4343
16396TIP3    H270680   6.824   2.858   4.740 -0.1187  0.5774 -0.1325
16397TIP3   OH270681   3.722   5.220  13.551 -0.0687  0.2126  0.3478
16397TIP3    H170682   3.658   5.218  13.480 -2.3766  1.3934  2.3422
16397TIP3    H270683   3.693   5.151  13.610  1.2488 -0.0732  0.6732
16398TIP3   OH270684   2.144   0.741  13.917 -0.2362 -0.5243 -0.0929
16398TIP3    H170685   2.071   0.736  13.856 -1.4200  0.6743  1.2005
16398TIP3    H270686   2.129   0.669  13.979  0.2109 -0.8724 -0.3827
16399TIP3   OH270687   6.378   0.570   5.694 -0.8218  0.6618 -0.4924
16399TIP3    H170688   6.329   0.510   5.638 -0.0511 -0.8785  0.4208
16399TIP3    H270689   6.469   0.563   5.663 -0.2979 -0.6065  1.2233
16400TIP3   OH270690   2.708   1.268  16.989  0.5055  0.2286 -0.1056
16400TIP3    H170691   2.746   1.187  17.022 -1.2100 -0.7224 -0.4408
16400TIP3    H270692   2.719   1.331  17.061 -1.5408 -1.3269  1.6180
16401TIP3   OH270693   4.299   3.549  11.275 -0.2170 -0.7494 -0.1217
16401TIP3    H170694   4.388   3.546  11.312  0.3009 -2.2858 -1.4454
16401TIP3    H270695   4.283   3.460  11.244 -3.6360 -1.4396  3.3233
16402TIP3   OH270696   1.166   2.701  12.717  0.4674  0.1843  0.0741
16402TIP3    H170697   1.230   2.714  12.647 -0.3448 -1.3543 -0.9829
16402TIP3    H270698   1.082   2.725  12.678  0.3318  1.7869  1.3224
16403TIP3   OH270699   3.553   3.792  11.604 -0.7594  0.0077 -0.0304
16403TIP3    H170700   3.636   3.784  11.652  0.1637 -0.7988 -1.7281
16403TIP3    H270701   3.550   3.715  11.547 -2.8186 -0.1189  0.2080
16404TIP3   OH270702   0.006   2.300  16.121 -0.5739 -0.4233 -0.3977
16404TIP3    H170703  -0.052   2.309  16.045  1.3544 -0.0638 -1.8636
16404TIP3    H270704   0.045   2.213  16.111  0.6046  0.1064 -0.4989
16405TIP3   OH270705   3.415   1.870   0.208 -0.1872  0.2392  0.4196
16405TIP3    H170706   3.483   1.853   0.274  0.1121 -2.3161 -0.5158
16405TIP3    H270707   3.346   1.807   0.228 -0.3855 -0.0902 -1.2850
16406TIP3   OH270708   4.192   0.349   4.898 -0.3884  0.3637 -0.5812
16406TIP3    H170709   4.252   0.384   4.832  1.4853  0.0178  0.8911
16406TIP3    H270710   4.209   0.255   4.899 -0.9803  0.2560 -0.1606
16407TIP3   OH270711   2.649   5.573   0.287 -0.4363 -0.6369  0.2698
16407TIP3    H170712   2.647   5.589   0.193 -2.2008 -1.5329  0.1419
16407TIP3    H270713   2.732   5.611   0.316 -0.5357  0.9211 -1.4120
16408TIP3   OH270714   6.301   1.006  11.204  0.6418  0.0141 -0.2318
16408TIP3    H170715   6.329   1.004  11.113  4.5763 -0.1039  0.8962
16408TIP3    H270716   6.318   1.096  11.232  0.0598 -0.1180  0.5631
16409TIP3   OH270717   6.645   0.778  13.068  0.3288 -0.1419 -0.0409
16409TIP3    H170718   6.620   0.800  13.158 -0.0206  2.4477 -0.7270
16409TIP3    H270719   6.581   0.712  13.041 -2.8104  2.7636 -0.0641
16410TIP3   OH270720   4.056   0.062  11.963 -0.1705  0.3093  0.1593
16410TIP3    H170721   4.102  -0.010  12.007  1.8711  0.7854 -1.1591
16410TIP3    H270722   4.085   0.057  11.872  0.6981  3.3497  0.2303
16411TIP3   OH270723   4.109   1.943   6.711  0.1788 -0.9099 -0.0185
16411TIP3    H170724   4.042   1.928   6.778 -1.3896  0.2817 -1.2686
16411TIP3    H270725   4.060   1.977   6.636  2.2701  0.6754 -0.7135
16412TIP3   OH270726   4.590   0.279  13.100 -0.1574 -0.2403  0.3307
16412TIP3    H170727   4.621   0.273  13.010  0.6764 -0.7491  0.6485
16412TIP3    H270728   4.626   0.202  13.144 -2.0592 -0.9828  0.6611
16413TIP3   OH270729   0.117   1.788   2.386  0.4550 -0.1986  0.6718
16413TIP3    H170730   0.204   1.748   2.383  1.0049  1.0209  0.0128
16413TIP3    H270731   0.058   1.719   2.355  1.2256 -0.9228  0.7921
16414TIP3   OH270732   3.117   1.459  13.263  0.5471  0.5869  0.1994
16414TIP3    H170733   3.178   1.490  13.330  0.6035  0.8004  0.0500
16414TIP3    H270734   3.167   1.396  13.211  1.3022  2.3470 -1.2517
16415TIP3   OH270735   4.241   2.970   0.528 -0.3364 -0.2040 -0.2376
16415TIP3    H170736   4.148   2.954   0.508 -0.7165 -0.6389  1.7433
16415TIP3    H270737   4.287   2.948   0.447 -2.0883  1.4704 -1.7409
16416TIP3   OH270738   2.644   4.066   6.461  0.0668 -0.6409 -0.1131
16416TIP3    H170739   2.640   4.161   6.461 -0.1993 -0.6079 -2.7814
16416TIP3    H270740   2.731   4.046   6.497 -0.0032  0.5727  0.7694
16417TIP3   OH270741   2.181   1.809  15.048 -0.0389 -0.3517 -0.0803
16417TIP3    H170742   2.262   1.769  15.016  0.5039  0.0494  0.7616
16417TIP3    H270743   2.127   1.821  14.970  1.1842  0.4558 -0.8153
16418TIP3   OH270744   2.761   6.609   5.415  0.1395  0.1276  0.0206
16418TIP3    H170745   2.763   6.589   5.509  0.1829 -1.1848 -0.2498
16418TIP3    H270746   2.846   6.580   5.382 -0.9116 -2.0886 -0.9197
16419TIP3   OH270747   6.429   0.543  14.387  0.5450 -0.4885  0.4772
16419TIP3    H170748   6.340   0.558  14.356  1.4418  0.2414 -1.8754
16419TIP3    H270749   6.455   0.460  14.346  1.4347  0.0198 -0.0051
16420TIP3   OH270750   6.183   4.500  10.348  0.1309 -0.1984  0.3690
16420TIP3    H170751   6.096   4.474  10.317 -0.4368 -0.1245  1.8304
16420TIP3    H270752   6.169   4.587  10.387  0.9824  0.0642  0.0958
16421TIP3   OH270753   3.773   1.682  11.135  0.0917  0.0511 -0.0111
16421TIP3    H170754   3.805   1.607  11.184  0.7599  0.6954  0.5517
16421TIP3    H270755   3.845   1.745  11.138 -1.1544  1.4620  1.1300
16422TIP3   OH270756   0.150   5.703   5.807  0.2535  0.2962  0.5912
16422TIP3    H170757   0.086   5.713   5.877 -3.6666 -0.8943 -2.6336
16422TIP3    H270758   0.165   5.609   5.801 -1.8025  0.0798 -2.0654
16423TIP3   OH270759   4.733   1.263   4.967  0.2823 -0.0742 -0.2653
16423TIP3    H170760   4.820   1.255   5.006 -0.1430 -2.0867  0.3289
16423TIP3    H270761   4.686   1.322   5.026  0.2691 -1.5118  1.2058
16424TIP3   OH270762   1.478   2.117   5.370  0.3264  0.2834  1.0680
16424TIP3    H170763   1.401   2.161   5.406  0.0964 -0.8561  1.9872
16424TIP3    H270764   1.450   2.090   5.282 -0.6488 -0.8919  1.7098
16425TIP3   OH270765   1.578   6.702   0.917 -0.2398  0.5882  0.0015
16425TIP3    H170766   1.670   6.683   0.904  0.0819  1.0832  1.4876
16425TIP3    H270767   1.544   6.627   0.966 -0.6311  0.4303 -0.4934
16426TIP3   OH270768   4.888   1.423  16.248 -0.0638  0.4560  0.2357
16426TIP3    H170769   4.955   1.491  16.253  0.1576  0.2276  0.3628
16426TIP3    H270770   4.935   1.341  16.264 -0.4683  0.3540  0.9343
16427TIP3   OH270771   3.439   1.152   5.029  0.2297 -0.0296 -0.3978
16427TIP3    H170772   3.414   1.063   5.053  0.4753 -0.2197 -0.8392
16427TIP3    H270773   3.361   1.188   4.987  0.2342 -0.1475 -0.5091
16428TIP3   OH270774   2.126   0.048   2.343 -0.5178  0.5091 -0.5666
16428TIP3    H170775   2.098  -0.040   2.317 -0.1051 -1.7957  5.7771
16428TIP3    H270776   2.220   0.049   2.325 -0.4910 -0.4716 -0.5413
16429TIP3   OH270777   0.174   1.963   3.241 -0.6090 -0.3463  0.3830
16429TIP3    H170778   0.100   2.012   3.205 -0.3759  0.2976  0.7847
16429TIP3    H270779   0.134   1.885   3.280 -0.7891 -1.4746 -1.9720
16430TIP3   OH270780   0.694   2.431   2.515 -0.2209  0.6448 -0.0730
16430TIP3    H170781   0.669   2.457   2.426 -0.2414 -0.3195 -0.3591
16430TIP3    H270782   0.638   2.356   2.534 -0.0318  0.6859  0.6574
16431TIP3   OH270783   1.239   5.310  12.444  0.4518 -0.1912 -0.2639
16431TIP3    H170784   1.226   5.335  12.353  0.7651  1.4403  0.1192
16431TIP3    H270785   1.158   5.335  12.488  0.2525 -1.0871 -0.1188
16432TIP3   OH270786   3.173   0.765  12.202 -0.3794 -0.0202  0.3927
16432TIP3    H170787   3.132   0.720  12.276 -0.5751 -0.5090 -0.0155
16432TIP3    H270788   3.198   0.696  12.142  0.5343  0.3192  0.3738
16433TIP3   OH270789   1.779   5.354  12.383 -0.1916  0.8200 -0.2907
16433TIP3    H170790   1.855   5.310  12.347  0.6084  1.0644  1.0496
16433TIP3    H270791   1.800   5.447  12.378 -0.6894  0.9202 -0.5410
16434TIP3   OH270792   3.995   6.671   2.093 -0.2290 -0.5110  0.5046
16434TIP3    H170793   3.941   6.698   2.019 -0.9379 -1.6833  0.5750
16434TIP3    H270794   4.082   6.704   2.073 -1.2303  2.5923  1.0403
16435TIP3   OH270795   6.170   1.520  15.423  0.1784  0.1222  0.2283
16435TIP3    H170796   6.190   1.426  15.427  1.9230  0.4305 -0.6273
16435TIP3    H270797   6.162   1.546  15.515 -1.6469 -1.1221  0.4423
16436TIP3   OH270798   5.400   0.931  16.669 -1.0075 -0.0029  0.1988
16436TIP3    H170799   5.450   1.010  16.689 -1.3742  0.3407 -0.2117
16436TIP3    H270800   5.349   0.955  16.591 -0.4109 -0.9498 -0.4988
16437TIP3   OH270801   5.792   4.471   0.707  0.0219 -0.1889  0.5478
16437TIP3    H170802   5.749   4.387   0.724 -1.5327  0.0721 -1.9203
16437TIP3    H270803   5.885   4.453   0.717 -0.2788 -2.2924 -0.2449
16438TIP3   OH270804   6.247   3.693   2.506 -0.4954  0.1183  0.6888
16438TIP3    H170805   6.250   3.696   2.410  0.6146  2.0188  0.7618
16438TIP3    H270806   6.246   3.600   2.527  1.3989 -0.3307 -1.1154
16439TIP3   OH270807   3.038   2.383  16.406 -0.6977  0.4257 -0.7782
16439TIP3    H170808   2.980   2.432  16.347 -1.6664 -0.0102 -0.1890
16439TIP3    H270809   3.043   2.436  16.485  1.1390  1.3454 -1.4635
16440TIP3   OH270810   0.705   5.458   0.974  0.1349  0.0774  0.1978
16440TIP3    H170811   0.746   5.544   0.983 -0.5444  0.6623 -1.9858
16440TIP3    H270812   0.771   5.406   0.927  0.6093 -0.6590  1.6533
16441TIP3   OH270813   0.909   4.319   3.847  0.1480  0.8198  0.3208
16441TIP3    H170814   0.975   4.251   3.841  0.5670  1.1472  1.0759
16441TIP3    H270815   0.863   4.316   3.763  0.3471 -0.1967  0.2447
16442TIP3   OH270816   5.549   4.384  12.937  0.1807 -0.1634  0.7109
16442TIP3    H170817   5.511   4.472  12.941 -0.2118 -0.3009  0.1952
16442TIP3    H270818   5.484   4.334  12.887  2.0130  0.1086 -2.0300
16443TIP3   OH270819   4.340   4.588  14.976 -0.4472  0.0223 -0.2903
16443TIP3    H170820   4.435   4.588  14.968 -0.3787 -1.1067  0.4395
16443TIP3    H270821   4.310   4.639  14.900  0.7468  0.8765 -0.2137
16444TIP3   OH270822   6.819   6.644  14.020  1.0760 -0.2115 -0.2597
16444TIP3    H170823   6.809   6.716  13.958  0.1204 -0.9665 -0.9946
16444TIP3    H270824   6.914   6.629  14.023  1.3755  1.6937  0.6294
16445TIP3   OH270825   0.909   6.280  15.216  0.2257 -0.6568  0.7192
16445TIP3    H170826   0.857   6.276  15.136  0.4690 -1.1826  0.5811
16445TIP3    H270827   0.867   6.347  15.270  0.3652  0.0626 -0.0664
16446TIP3   OH270828   2.261   0.818  11.170  0.3709 -0.2499 -0.1111
16446TIP3    H170829   2.237   0.729  11.144  1.5473 -1.1780  1.8815
16446TIP3    H270830   2.347   0.810  11.210  0.4629  1.7764  0.1864
16447TIP3   OH270831   1.939   0.879  15.718 -0.1768  0.3775  0.0544
16447TIP3    H170832   2.015   0.936  15.707  0.7602  0.0156  3.7398
16447TIP3    H270833   1.960   0.800  15.669  0.4556  1.4677 -1.4707
16448TIP3   OH270834   4.145   3.115   1.447  0.1476  0.1371  0.1556
16448TIP3    H170835   4.057   3.084   1.467  0.2461 -0.4202 -0.2554
16448TIP3    H270836   4.135   3.164   1.365  0.0551  0.8960  0.6156
16449TIP3   OH270837   0.814   2.286  14.769  0.0959 -0.2976 -0.4215
16449TIP3    H170838   0.760   2.257  14.695  1.5331 -0.6649 -1.3555
16449TIP3    H270839   0.830   2.206  14.819  0.3487 -0.3088 -0.5220
16450TIP3   OH270840   6.643   4.398   4.049 -0.1558 -0.0202 -0.4750
16450TIP3    H170841   6.643   4.339   4.125  0.1482 -0.6493 -0.9558
16450TIP3    H270842   6.580   4.359   3.988  0.0651  0.1378 -0.8069
16451TIP3   OH270843   4.145   0.981   1.352  0.0929  0.5659 -0.5168
16451TIP3    H170844   4.219   0.968   1.293  0.2594  1.1941 -0.4483
16451TIP3    H270845   4.119   0.892   1.378  1.0277  0.3499 -0.2897
16452TIP3   OH270846   5.628   0.297  12.931  0.1459 -0.0856 -0.0152
16452TIP3    H170847   5.600   0.324  13.018  1.3908  0.8629  0.1238
16452TIP3    H270848   5.589   0.362  12.872 -1.4814 -1.2791 -0.2782
16453TIP3   OH270849   1.212   0.376  16.792  0.1361  0.2201  0.3420
16453TIP3    H170850   1.284   0.438  16.803  0.2943 -0.1918  1.6404
16453TIP3    H270851   1.163   0.380  16.874  0.2267 -1.4774  0.4979
16454TIP3   OH270852   1.228   6.109   1.593  0.0007  0.6294  0.2245
16454TIP3    H170853   1.159   6.050   1.624  0.4548 -1.7640 -3.0150
16454TIP3    H270854   1.205   6.127   1.502  2.5311  1.4577 -0.2937
16455TIP3   OH270855   2.792   3.182  14.704  0.1075  0.0457  0.3399
16455TIP3    H170856   2.737   3.113  14.668 -1.0929  0.5304  1.1858
16455TIP3    H270857   2.799   3.246  14.634  0.1251 -0.3325 -0.0019
16456TIP3   OH270858   2.414   2.212  13.143  0.2618  0.4149  0.6862
16456TIP3    H170859   2.387   2.120  13.146 -0.9114  0.6975 -1.0662
16456TIP3    H270860   2.466   2.224  13.223 -0.5912 -1.4497  1.5411
16457TIP3   OH270861   1.122   3.730   3.776 -0.5408  0.0212 -0.4240
16457TIP3    H170862   1.066   3.719   3.853 -2.0638  3.5819 -0.9438
16457TIP3    H270863   1.062   3.722   3.702  0.4548 -0.7039 -1.1622
16458TIP3   OH270864   3.264   1.278   5.657 -0.1657  0.4092 -0.1440
16458TIP3    H170865   3.275   1.270   5.562 -1.7538 -4.7036 -0.0503
16458TIP3    H270866   3.173   1.305   5.668 -0.7760 -1.6528 -0.0473
16459TIP3   OH270867   2.349   4.848   6.788 -0.2610 -0.2366 -0.0723
16459TIP3    H170868   2.284   4.848   6.718  0.7849  0.2207 -1.0566
16459TIP3    H270869   2.359   4.940   6.812  1.4117 -0.0848 -1.2556
16460TIP3   OH270870   5.923   3.338  16.861 -0.6534 -0.0157  0.1559
16460TIP3    H170871   5.906   3.386  16.942  1.8508  0.3064  0.5065
16460TIP3    H270872   5.900   3.247  16.881  0.1617  0.0268  1.2925
16461TIP3   OH270873   1.161   6.187  16.811  0.7065 -0.4999 -0.1322
16461TIP3    H170874   1.104   6.259  16.840  0.8363  0.3366 -1.9177
16461TIP3    H270875   1.129   6.111  16.859 -0.2921  0.4779  0.7849
16462TIP3   OH270876   0.990   6.198   2.870  0.3269  0.6620 -0.0058
16462TIP3    H170877   0.947   6.178   2.953 -1.8317 -0.4412 -1.3458
16462TIP3    H270878   1.010   6.291   2.876 -1.7544  1.0939  0.9095
16463TIP3   OH270879   5.570   5.253   4.338 -0.1188 -0.2004  0.4233
16463TIP3    H170880   5.612   5.318   4.394 -4.0169  1.3612  1.6678
16463TIP3    H270881   5.509   5.207   4.396 -0.4405 -2.1459 -1.3892
16464TIP3   OH270882   5.430   4.867  13.557 -0.4747  0.0791 -0.9267
16464TIP3    H170883   5.516   4.878  13.599 -0.5645 -0.9932 -0.4610
16464TIP3    H270884   5.450   4.832  13.470 -0.5650 -2.7381  0.1465
16465TIP3   OH270885   5.530   3.201  14.820  0.3502 -0.2205  0.1790
16465TIP3    H170886   5.587   3.132  14.786  0.9204 -1.8575  4.2040
16465TIP3    H270887   5.441   3.168  14.808  0.5369 -0.7383  0.2278
16466TIP3   OH270888   1.823   2.967   0.873 -0.1932 -0.6492  0.2193
16466TIP3    H170889   1.754   2.954   0.808  0.2161 -0.3023 -0.2899
16466TIP3    H270890   1.877   3.038   0.837 -1.7850  1.8075  2.4403
16467TIP3   OH270891   4.115   2.016   0.831  0.0510  0.0803 -0.3361
16467TIP3    H170892   4.065   1.980   0.905  0.4866  0.2240  0.0297
16467TIP3    H270893   4.102   2.110   0.838  0.8065  0.1529  0.0684
16468TIP3   OH270894   0.217   0.898  11.851  0.1632  0.0911  0.0674
16468TIP3    H170895   0.307   0.870  11.838 -0.0730 -0.4265 -0.4949
16468TIP3    H270896   0.195   0.869  11.939  0.9378  1.3196  0.6923
16469TIP3   OH270897   0.337   5.404  12.737 -0.3230 -0.4222  0.4377
16469TIP3    H170898   0.335   5.322  12.686  2.0609  0.4111 -1.0816
16469TIP3    H270899   0.388   5.381  12.815 -0.8977 -0.7555  0.7213
16470TIP3   OH270900   3.773   5.053   0.867  0.1725 -0.8628 -0.2983
16470TIP3    H170901   3.723   5.021   0.943 -0.0079 -1.1811 -0.5519
16470TIP3    H270902   3.738   5.005   0.793  1.0708 -1.3155 -0.4375
16471TIP3   OH270903   0.081   0.580   1.219 -0.3514  0.5650  0.0123
16471TIP3    H170904   0.126   0.663   1.232 -1.3512  1.1078  0.0805
16471TIP3    H270905   0.149   0.519   1.191  0.7453  0.9088  1.8501
16472TIP3   OH270906   6.615   5.504   1.776  0.1382 -0.6685 -0.0439
16472TIP3    H170907   6.595   5.561   1.701  0.5863 -1.0860 -0.4789
16472TIP3    H270908   6.576   5.420   1.752 -0.0670 -0.6917  0.3737
16473TIP3   OH270909   1.753   4.790   4.890  0.2370  0.3881 -0.0699
16473TIP3    H170910   1.711   4.721   4.942  1.1527  1.6128  2.3551
16473TIP3    H270911   1.794   4.848   4.954 -0.8780  3.4694 -2.0010
16474TIP3   OH270912   4.714   4.985   2.747 -0.1112 -0.3072 -0.0845
16474TIP3    H170913   4.630   5.014   2.711 -1.4699  1.8946  4.4164
16474TIP3    H270914   4.709   4.890   2.747 -1.9595 -0.2325 -1.3295
16475TIP3   OH270915   3.397   4.129  15.714 -0.1283 -0.0508  0.4575
16475TIP3    H170916   3.421   4.059  15.775 -1.5882 -1.9005 -1.0042
16475TIP3    H270917   3.481   4.159  15.678  0.4756 -1.7669  0.3723
16476TIP3   OH270918   6.232   0.305   2.239 -0.2021  0.0008  0.0644
16476TIP3    H170919   6.302   0.357   2.279  1.5888 -1.6199 -0.8834
16476TIP3    H270920   6.183   0.368   2.186 -0.0676  1.3421  1.4802
16477TIP3   OH270921   3.650   1.998   5.130  0.3159  0.5337  0.1475
16477TIP3    H170922   3.578   1.987   5.068  0.6243  0.6919 -0.2348
16477TIP3    H270923   3.612   1.972   5.215  0.1388 -0.4976 -0.2380
16478TIP3   OH270924   0.579   2.762   4.390 -0.8871  0.2707 -0.3548
16478TIP3    H170925   0.554   2.824   4.458 -2.1584  1.0776 -1.5384
16478TIP3    H270926   0.544   2.678   4.420 -4.0652  1.1592 -1.3987
16479TIP3   OH270927   0.696   5.390  12.648 -0.0875  0.0575 -0.5965
16479TIP3    H170928   0.785   5.420  12.629 -0.6579  1.5099 -1.0386
16479TIP3    H270929   0.663   5.451  12.714 -0.4624 -1.0057  0.2278
16480TIP3   OH270930   5.365   3.763  15.868 -0.2641 -0.5345  0.1969
16480TIP3    H170931   5.449   3.725  15.893 -0.4063 -0.7337  0.3792
16480TIP3    H270932   5.336   3.810  15.947 -0.7315 -1.1970  0.4200
16481TIP3   OH270933   3.272   2.609  16.464  0.2004  0.0784  0.1634
16481TIP3    H170934   3.204   2.604  16.397  0.6158 -0.2859 -0.2263
16481TIP3    H270935   3.228   2.582  16.545  0.1624 -1.2856 -0.2976
16482TIP3   OH270936   6.620   5.694  13.798  0.4238 -0.0916  0.6576
16482TIP3    H170937   6.600   5.686  13.891  0.6234  0.3682  0.7396
16482TIP3    H270938   6.541   5.661  13.754  0.7026 -1.2177  0.9879
16483TIP3   OH270939   3.986   0.122   1.688  1.0398 -0.6432 -0.1556
16483TIP3    H170940   3.984   0.076   1.604 -0.9025  0.4483 -0.7175
16483TIP3    H270941   3.948   0.059   1.750  1.2791 -0.9576 -0.3233
16484TIP3   OH270942   4.171   5.548   5.974  0.1229 -0.3084 -0.0750
16484TIP3    H170943   4.213   5.467   6.005  1.5469  0.9283  1.3625
16484TIP3    H270944   4.171   5.605   6.051 -0.5712  1.1691 -1.1554
16485TIP3   OH270945   4.916   4.116   4.484 -0.0879  0.1811  0.0349
16485TIP3    H170946   4.986   4.051   4.484 -0.3866 -0.1431  0.8238
16485TIP3    H270947   4.839   4.067   4.455 -0.7426 -0.2947  2.5017
16486TIP3   OH270948   2.679   2.060   3.835  0.1041  0.0913  0.1522
16486TIP3    H170949   2.632   2.048   3.753 -1.8707  2.0838  0.9395
16486TIP3    H270950   2.676   1.975   3.878 -1.3116 -0.2444 -0.5898
16487TIP3   OH270951   4.673   4.980   2.118  0.1130 -1.0285 -0.1255
16487TIP3    H170952   4.614   5.055   2.127  1.8864  0.1988  1.3955
16487TIP3    H270953   4.682   4.968   2.023  0.8310  1.4795 -0.3897
16488TIP3   OH270954   4.316   2.677  16.393 -0.2934 -0.0415  0.0683
16488TIP3    H170955   4.407   2.679  16.363  0.0692 -0.8880  1.0828
16488TIP3    H270956   4.292   2.769  16.402 -0.1039  0.2153 -1.8552
16489TIP3   OH270957   4.975   3.585   4.735  0.6466 -0.0973  0.0580
16489TIP3    H170958   5.024   3.509   4.767 -1.0364 -0.5363  1.7297
16489TIP3    H270959   4.931   3.554   4.656 -0.0273 -0.9034  0.7299
16490TIP3   OH270960   2.736   4.526   5.731  0.4244 -0.3328  0.0336
16490TIP3    H170961   2.787   4.446   5.727  2.0169  0.6750  0.0280
16490TIP3    H270962   2.646   4.498   5.713  0.8997 -2.1668  0.4815
16491TIP3   OH270963   1.475   2.291   3.396 -0.1738  0.5052 -0.1254
16491TIP3    H170964   1.400   2.338   3.431  0.7853  1.3495  0.8054
16491TIP3    H270965   1.494   2.223   3.461  0.6880  1.1356  0.2877
16492TIP3   OH270966   3.555   2.518  15.971  0.3987 -0.6672  0.2299
16492TIP3    H170967   3.612   2.504  15.896  0.4499 -0.6959  0.2754
16492TIP3    H270968   3.565   2.439  16.024  1.3784 -0.0916  0.9395
16493TIP3   OH270969   6.020   0.363   0.421  0.0125  0.3087 -0.0076
16493TIP3    H170970   5.937   0.397   0.389  0.1252 -0.2075 -0.8833
16493TIP3    H270971   5.997   0.281   0.464  0.0767  0.0978 -0.3688
16494TIP3   OH270972   5.962   3.540   1.549  0.4900 -0.3055  0.6902
16494TIP3    H170973   6.032   3.476   1.561  1.5525  1.1231  2.2165
16494TIP3    H270974   5.992   3.597   1.479 -0.2150 -1.1223 -0.2904
16495TIP3   OH270975   6.546   1.073  15.965  0.4696  0.0226 -0.4422
16495TIP3    H170976   6.615   1.115  16.017 -0.0763  0.5654 -0.1640
16495TIP3    H270977   6.592   1.043  15.886  0.9987  0.4982 -0.3212
16496TIP3   OH270978   2.412   6.385  15.549  0.5926 -0.5361  0.1776
16496TIP3    H170979   2.371   6.364  15.465 -0.9780 -0.0289  0.7995
16496TIP3    H270980   2.345   6.432  15.598  2.3283  1.4095  0.7876
16497TIP3   OH270981   3.871   1.794  10.730 -0.2430 -0.7425 -0.1518
16497TIP3    H170982   3.954   1.833  10.758 -0.6086 -1.2718  1.7324
16497TIP3    H270983   3.846   1.843  10.652  1.3528  0.0662 -0.1605
16498TIP3   OH270984   2.549   6.191   2.298 -0.3045  0.2138 -0.4441
16498TIP3    H170985   2.611   6.123   2.274  0.1492  1.0092 -1.5720
16498TIP3    H270986   2.570   6.265   2.241 -2.4663  0.4160 -1.0425
16499TIP3   OH270987   3.114   2.555   4.892  0.4078  0.7010 -0.0333
16499TIP3    H170988   3.053   2.558   4.966 -0.6897 -1.6353 -0.7643
16499TIP3    H270989   3.175   2.485   4.914  1.6610  1.7476 -0.1761
16500TIP3   OH270990   5.263   3.478   0.312  0.2095 -0.0268 -0.3293
16500TIP3    H170991   5.182   3.520   0.284 -0.0483 -0.1561  0.2150
16500TIP3    H270992   5.255   3.388   0.282  0.1134 -0.0582 -0.2144
16501TIP3   OH270993   4.016   3.639   5.783 -0.4687 -0.2773 -0.9332
16501TIP3    H170994   4.098   3.643   5.833 -1.1759 -0.9369  0.2986
16501TIP3    H270995   4.035   3.688   5.703  1.7795 -2.0923 -1.5832
16502TIP3   OH270996   1.450   4.076  15.345  0.3835 -0.0290  0.1084
16502TIP3    H170997   1.519   4.133  15.380  0.6922  0.2635 -0.9321
16502TIP3    H270998   1.465   3.992  15.387  1.2557  0.0903  0.0478
16503TIP3   OH270999   4.401   2.587   2.775 -0.3600 -0.0527 -0.2946
16503TIP3    H171000   4.383   2.625   2.861 -0.3245 -1.8168  0.5044
16503TIP3    H271001   4.366   2.498   2.780  0.6407 -0.5415 -1.7250
16504TIP3   OH271002   0.264   5.173  16.761 -0.0617 -0.1116 -0.3766
16504TIP3    H171003   0.359   5.176  16.778  0.0499 -1.5978 -0.6723
16504TIP3    H271004   0.228   5.130  16.839 -0.3514 -0.6717 -0.8197
16505TIP3   OH271005   6.081   0.048  16.450 -0.1129  0.0956 -0.5596
16505TIP3    H171006   6.173   0.066  16.474 -0.1137 -0.1916 -0.3397
16505TIP3    H271007   6.040   0.022  16.532 -0.3299 -0.0376 -0.7103
16506TIP3   OH271008   5.842   6.397   0.560 -0.4469 -0.2228 -0.3835
16506TIP3    H171009   5.766   6.344   0.538  0.5054 -1.0547 -1.7681
16506TIP3    H271010   5.857   6.451   0.482  0.7417 -0.5301 -0.3886
16507TIP3   OH271011   0.607   2.317  16.915  0.0199  0.2849 -0.0502
16507TIP3    H171012   0.683   2.286  16.964  0.1387  0.1129 -0.3418
16507TIP3    H271013   0.544   2.244  16.919  0.0964  0.2027 -0.2919
16508TIP3   OH271014   1.381   1.127  13.886  0.2484 -0.0959  0.2142
16508TIP3    H171015   1.445   1.064  13.854  0.0713  0.1193 -0.5712
16508TIP3    H271016   1.412   1.212  13.853 -0.0596  0.0991  0.4197
16509TIP3   OH271017   4.606   4.598  12.853 -0.4469 -0.2643 -0.0274
16509TIP3    H171018   4.607   4.571  12.944 -2.0967 -0.3028 -0.0080
16509TIP3    H271019   4.607   4.694  12.856 -0.3000 -0.2677  0.0261
16510TIP3   OH271020   4.987   4.934   4.987 -0.7000  0.4947 -0.0668
16510TIP3    H171021   4.892   4.938   4.991 -0.7409  0.0051 -0.5280
16510TIP3    H271022   5.006   4.866   4.922 -0.0476 -0.2688  0.8955
16511TIP3   OH271023   1.491   1.435   1.846 -0.6141  0.1234 -0.0205
16511TIP3    H171024   1.556   1.473   1.788 -0.7219 -0.5748 -0.5972
16511TIP3    H271025   1.468   1.351   1.806 -2.0900  0.4956  0.0055
16512TIP3   OH271026   3.940   4.107   0.941  0.2127  0.2242  0.7666
16512TIP3    H171027   4.036   4.106   0.940  0.2601  2.0486  1.6547
16512TIP3    H271028   3.915   4.037   0.881  2.1004 -0.1827  0.4158
16513TIP3   OH271029   4.632   3.352  11.905 -0.1157  0.5919  0.0821
16513TIP3    H171030   4.708   3.327  11.957  0.2850  0.9152 -0.3414
16513TIP3    H271031   4.656   3.329  11.815 -1.0020 -0.4435  0.0965
16514TIP3   OH271032   1.252   4.856  15.120  0.0436 -0.8105 -0.4570
16514TIP3    H171033   1.337   4.892  15.145 -0.2297 -0.5750  0.1562
16514TIP3    H271034   1.273   4.783  15.062  0.5278  1.8997 -3.8279
16515TIP3   OH271035   1.553   3.096   3.344  0.5807  0.1672 -0.2446
16515TIP3    H171036   1.483   3.076   3.282  1.3309  0.1585 -1.0979
16515TIP3    H271037   1.631   3.102   3.290  1.5293 -1.4814  0.9172
16516TIP3   OH271038   0.329   1.696  11.645 -0.0661  0.6199 -0.0903
16516TIP3    H171039   0.327   1.791  11.649 -3.4680  0.7021 -1.9709
16516TIP3    H271040   0.243   1.671  11.611  0.4778 -3.1640  1.0290
16517TIP3   OH271041   3.588   6.279  12.900  0.2893  0.5354 -0.0659
16517TIP3    H171042   3.654   6.217  12.870  0.2564  0.7448 -0.5770
16517TIP3    H271043   3.638   6.346  12.946  0.3936  0.4774 -0.0930
16518TIP3   OH271044   5.303   0.281   6.071  0.2308  0.6206 -0.0317
16518TIP3    H171045   5.248   0.358   6.081  0.0317  0.8444 -2.6999
16518TIP3    H271046   5.243   0.210   6.047  0.5966 -0.0639  1.0120
16519TIP3   OH271047   3.953   4.345  13.741  0.3150  0.3308 -0.0545
16519TIP3    H171048   3.959   4.252  13.720  1.1585  0.4291 -0.3096
16519TIP3    H271049   4.011   4.356  13.817 -1.4072  0.2836  1.2947
16520TIP3   OH271050   3.460   4.508  15.144  0.1762  0.7523 -0.0285
16520TIP3    H171051   3.553   4.532  15.144  0.6293 -0.9456  0.3796
16520TIP3    H271052   3.446   4.469  15.058  0.1280 -0.0800  0.3584
16521TIP3   OH271053   0.454   0.002   2.205 -0.2701 -0.0022  0.7906
16521TIP3    H171054   0.523  -0.056   2.173 -2.0068 -0.6221 -2.0457
16521TIP3    H271055   0.500   0.084   2.227  1.4511 -0.5842 -0.5022
16522TIP3   OH271056   1.482   1.856   3.010 -0.2099 -0.1818  0.1124
16522TIP3    H171057   1.491   1.897   3.095 -0.8639  1.0708 -0.4141
16522TIP3    H271058   1.442   1.923   2.954  0.8549 -0.7313 -1.3635
16523TIP3   OH271059   5.036   5.030  13.851  0.0186 -0.2202  0.3006
16523TIP3    H171060   4.965   4.967  13.865 -1.5387  1.2531 -0.6564
16523TIP3    H271061   5.028   5.091  13.925  0.7555 -0.4348  0.5669
16524TIP3   OH271062   4.748   4.161   4.814 -0.3541 -0.2876 -0.1503
16524TIP3    H171063   4.815   4.220   4.779  0.8158 -1.6098 -0.1674
16524TIP3    H271064   4.682   4.220   4.851  0.1320  1.0578 -1.3694
16525TIP3   OH271065   4.358   2.229   3.103  0.2971  0.3264 -0.2811
16525TIP3    H171066   4.424   2.286   3.143  1.5858 -0.1973 -1.6140
16525TIP3    H271067   4.308   2.288   3.046  0.6280  0.4332 -0.4654
16526TIP3   OH271068   6.717   6.766   3.210 -0.4264 -0.9073 -0.2805
16526TIP3    H171069   6.769   6.768   3.291 -0.7778 -1.7257 -0.0312
16526TIP3    H271070   6.706   6.858   3.186  0.1038 -0.6821  0.3325
16527TIP3   OH271071   0.741   0.690   1.144  0.0311 -0.3643  0.4713
16527TIP3    H171072   0.785   0.745   1.079 -1.4433 -0.7645 -0.8794
16527TIP3    H271073   0.666   0.742   1.172  1.1088  0.1593  2.4963
16528TIP3   OH271074   5.567   1.493   5.123  0.0772 -0.7998 -0.5265
16528TIP3    H171075   5.594   1.424   5.183  2.0736  0.7644  0.4271
16528TIP3    H271076   5.474   1.505   5.139  0.6246 -0.2573  2.4509
16529TIP3   OH271077   6.704   4.543  17.029  0.0618  0.3095 -0.1883
16529TIP3    H171078   6.799   4.540  17.019 -0.0547  2.4936 -2.3341
16529TIP3    H271079   6.672   4.581  16.947 -2.5478  0.9845  1.0768
16530TIP3   OH271080   4.679   6.150  16.321 -0.1114  0.5389  0.1324
16530TIP3    H171081   4.769   6.117  16.322  0.2168  1.3785  2.1642
16530TIP3    H271082   4.678   6.214  16.250  0.6112 -0.1962 -0.5537
16531TIP3   OH271083   1.852   4.028   5.617  0.0306  0.0376 -0.3741
16531TIP3    H171084   1.860   4.116   5.653 -0.7966  0.0590 -0.2296
16531TIP3    H271085   1.778   3.989   5.664  1.2049 -1.1946  0.4888
16532TIP3   OH271086   6.134   1.571   6.005 -0.1157  0.4768  0.0596
16532TIP3    H171087   6.132   1.479   6.033 -0.9889  0.1591 -1.0151
16532TIP3    H271088   6.052   1.583   5.957 -0.2671  1.9809  0.6859
16533TIP3   OH271089   0.870   3.210   4.129  0.1064 -0.0802  0.2193
16533TIP3    H171090   0.955   3.199   4.086  0.5823  3.0709  0.2187
16533TIP3    H271091   0.806   3.178   4.066  1.1440 -0.0999 -0.8320
16534TIP3   OH271092   2.665   2.010  12.952  0.0725  0.1648 -0.2157
16534TIP3    H171093   2.708   1.925  12.948  1.4431  0.8074  0.3723
16534TIP3    H271094   2.589   1.997  13.008  1.8487 -0.0294  2.2330
16535TIP3   OH271095   4.455   2.795   4.129  1.1373 -0.2257  0.4851
16535TIP3    H171096   4.369   2.789   4.088  2.0757  0.0982 -1.5713
16535TIP3    H271097   4.473   2.705   4.158  0.6678 -0.5520 -0.2248
16536TIP3   OH271098   3.393   0.998  16.542  0.3098 -0.8990 -0.7896
16536TIP3    H171099   3.404   0.995  16.637  0.3747 -2.0406 -0.8255
16536TIP3    H271100   3.327   1.065  16.528  1.2260  0.1768 -0.0278
16537TIP3   OH271101   6.173   4.089   3.114  0.5704 -0.5696 -0.2760
16537TIP3    H171102   6.094   4.128   3.151  0.3543 -2.3831  1.2715
16537TIP3    H271103   6.243   4.116   3.174  1.3644  2.0262 -2.3028
16538TIP3   OH271104   5.612   5.876   2.372  0.0158 -0.2022 -0.5756
16538TIP3    H171105   5.635   5.912   2.458 -0.5181 -1.3800  0.0674
16538TIP3    H271106   5.696   5.862   2.329  0.3145 -0.1989 -0.0027
16539TIP3   OH271107   3.490   5.743  15.959 -0.5852  0.7878 -0.2898
16539TIP3    H171108   3.539   5.667  15.930  1.9226  2.4628 -0.6232
16539TIP3    H271109   3.411   5.707  15.999 -0.3196 -1.8735 -2.0583
16540TIP3   OH271110   4.172   2.982  14.673  0.1617 -0.2236  0.1944
16540TIP3    H171111   4.077   2.971  14.682  0.1569 -1.2446 -0.9076
16540TIP3    H271112   4.184   3.077  14.662 -0.7229 -0.0837  0.4059
16541TIP3   OH271113   2.391   6.638  14.337 -0.6017  0.1896 -0.1028
16541TIP3    H171114   2.438   6.608  14.259 -0.2716  0.2108  0.0936
16541TIP3    H271115   2.303   6.600  14.327 -0.7553  0.7017 -0.7980
16542TIP3   OH271116   1.732   2.510  15.781 -0.1249  0.4783 -0.8140
16542TIP3    H171117   1.746   2.602  15.761 -1.2304  0.8802  0.2606
16542TIP3    H271118   1.735   2.467  15.695 -0.2260  1.5823 -1.3826
16543TIP3   OH271119   0.212   1.026  15.693 -0.0952 -0.0129  0.2662
16543TIP3    H171120   0.159   0.974  15.632  0.7739 -0.5296 -0.0605
16543TIP3    H271121   0.165   1.109  15.701 -1.4964 -0.8175  0.7596
16544TIP3   OH271122   6.183   3.446  16.098  0.5137 -0.1613 -1.1037
16544TIP3    H171123   6.235   3.469  16.175  2.0620 -3.8487 -0.9576
16544TIP3    H271124   6.103   3.407  16.133  0.3517 -0.0631 -1.3588
16545TIP3   OH271125   1.840   3.867  17.291 -0.0110 -0.1972  0.5816
16545TIP3    H171126   1.875   3.950  17.324 -0.9225  0.0023  1.0694
16545TIP3    H271127   1.869   3.863  17.200  0.6263  0.3294  0.7540
16546TIP3   OH271128   0.269   2.928  11.745  0.1746 -0.7510  0.2383
16546TIP3    H171129   0.351   2.886  11.718  0.4293 -0.1020 -0.0196
16546TIP3    H271130   0.293   2.982  11.821 -0.0315 -0.6447  0.2292
16547TIP3   OH271131   4.251   4.623  12.866  0.0268  0.1644 -0.0462
16547TIP3    H171132   4.276   4.531  12.871  0.8347  0.3011 -1.4539
16547TIP3    H271133   4.177   4.631  12.927  1.0205 -1.0439  1.3538
16548TIP3   OH271134   0.890   2.112   6.119  0.1144  0.1287  0.2528
16548TIP3    H171135   0.983   2.097   6.136  0.7350  1.1377 -2.0660
16548TIP3    H271136   0.866   2.044   6.055  0.0929  1.8730 -1.6264
16549TIP3   OH271137   1.177   5.582  14.370 -0.5323 -0.0485 -0.0793
16549TIP3    H171138   1.245   5.571  14.303  0.6339  0.6663  0.9653
16549TIP3    H271139   1.102   5.533  14.336  0.9306 -1.9483 -0.6664
16550TIP3   OH271140   0.771   5.098  16.814  0.8748 -1.1723 -0.2008
16550TIP3    H171141   0.711   5.030  16.843 -1.5500  2.0771  2.8217
16550TIP3    H271142   0.854   5.079  16.859 -0.3857 -1.0157  2.2577
16551TIP3   OH271143   6.353   5.815   4.374 -0.3643  0.1476 -0.4002
16551TIP3    H171144   6.398   5.752   4.318 -0.0980 -0.4355  0.4616
16551TIP3    H271145   6.413   5.831   4.447 -0.1350  1.9270 -0.9368
16552TIP3   OH271146   3.664   5.341   1.847 -0.0670  0.2334  0.0726
16552TIP3    H171147   3.580   5.363   1.807 -0.0116  0.6178  0.1694
16552TIP3    H271148   3.650   5.254   1.885  0.7013 -1.4308 -3.2443
16553TIP3   OH271149   6.354   4.907  14.547 -0.4571 -0.0481  0.2202
16553TIP3    H171150   6.344   4.813  14.561  0.0926  0.0054  0.9852
16553TIP3    H271151   6.449   4.920  14.539 -0.5166  0.4730  0.3538
16554TIP3   OH271152   3.700   0.793   2.313 -0.5633  0.4609 -0.1283
16554TIP3    H171153   3.784   0.830   2.285 -1.2348  1.4986 -0.8047
16554TIP3    H271154   3.715   0.767   2.404  0.5030  0.5939 -0.2512
16555TIP3   OH271155   1.012   3.198   4.974 -0.4396 -0.4218 -0.6145
16555TIP3    H171156   1.070   3.146   4.919 -0.3764  0.5230 -1.4417
16555TIP3    H271157   1.063   3.276   4.996 -0.9549 -0.1572 -0.3447
16556TIP3   OH271158   0.351   1.002  15.919  0.1731  0.0859  1.0293
16556TIP3    H171159   0.312   0.975  15.835  1.2468  1.2794  0.1365
16556TIP3    H271160   0.281   0.987  15.983 -1.4721  1.3151 -0.4103
16557TIP3   OH271161   3.820   4.221   3.435  0.1210  0.5174 -0.2134
16557TIP3    H171162   3.743   4.272   3.411 -0.5194  0.3665  1.5128
16557TIP3    H271163   3.786   4.146   3.482  1.3737  0.9543  1.4237
16558TIP3   OH271164   4.954   5.245  15.326 -0.7276  0.5872 -0.3441
16558TIP3    H171165   5.040   5.242  15.367 -1.3987 -1.1319  0.9765
16558TIP3    H271166   4.900   5.295  15.386 -0.5839  2.0231 -1.3708
16559TIP3   OH271167   4.138   6.216  16.306 -0.0646 -0.4752  0.6802
16559TIP3    H171168   4.207   6.282  16.315 -0.0252 -0.6863  1.9309
16559TIP3    H271169   4.124   6.209  16.211  0.0201  1.2470  0.5204
16560TIP3   OH271170   4.315   5.092  16.413 -0.1341  0.4545  0.3026
16560TIP3    H171171   4.360   5.168  16.378 -0.2791  0.2893 -0.2573
16560TIP3    H271172   4.378   5.052  16.473 -0.7763  2.1156  2.1460
16561TIP3   OH271173   3.938   3.581  15.765 -0.4038  0.5622  0.3673
16561TIP3    H171174   4.001   3.513  15.743 -2.4734 -1.4935  0.6531
16561TIP3    H271175   3.953   3.598  15.858 -0.7154 -0.4054  0.5987
16562TIP3   OH271176   0.036   3.852  15.132  0.1404  0.4042  0.0136
16562TIP3    H171177   0.033   3.934  15.181  0.4728  0.6379 -0.3514
16562TIP3    H271178  -0.036   3.858  15.069  0.5004  0.6521 -0.3774
16563TIP3   OH271179   3.088   4.336   3.919 -1.0556  0.2657 -0.0146
16563TIP3    H171180   3.125   4.394   3.853 -2.3278  0.2330 -0.7808
16563TIP3    H271181   3.073   4.253   3.872  0.1159 -0.4740  0.8938
16564TIP3   OH271182   1.196   0.637  13.396 -0.6344 -0.3514  0.1174
16564TIP3    H171183   1.200   0.564  13.458  0.1189  1.2095  1.9735
16564TIP3    H271184   1.103   0.658  13.390 -0.9519 -1.9957 -1.1104
16565TIP3   OH271185   3.285   2.457  14.200 -0.1561  0.7890 -0.8764
16565TIP3    H171186   3.270   2.476  14.107 -1.0557 -1.5060 -1.2426
16565TIP3    H271187   3.346   2.383  14.199  0.6203  1.4185  0.3698
16566TIP3   OH271188   1.179   1.695   4.005  0.5686  0.5308 -0.1714
16566TIP3    H171189   1.190   1.736   4.091  1.5411  2.3763 -1.1447
16566TIP3    H271190   1.263   1.652   3.988  0.6650  0.8745 -0.5655
16567TIP3   OH271191   2.373   4.854   0.632 -0.5740  0.0252 -0.6114
16567TIP3    H171192   2.438   4.797   0.591  0.1006  1.3712 -1.4597
16567TIP3    H271193   2.410   4.942   0.625 -1.9008  0.6591  0.0654
16568TIP3   OH271194   1.341   3.751   2.774  0.6503 -0.8642  0.3569
16568TIP3    H171195   1.376   3.670   2.737 -0.1843 -1.5313  1.0254
16568TIP3    H271196   1.419   3.802   2.796  1.2152 -0.0911 -3.0074
16569TIP3   OH271197   6.457   4.511  13.233 -0.0179 -0.0422 -0.1283
16569TIP3    H171198   6.467   4.585  13.172 -0.7453 -0.2001 -0.4444
16569TIP3    H271199   6.517   4.531  13.304  0.8942  0.1231 -0.9313
16570TIP3   OH271200   2.519   4.807   4.082 -0.1779  0.0543 -0.1443
16570TIP3    H171201   2.455   4.814   4.011 -0.6418 -1.5028  0.0885
16570TIP3    H271202   2.521   4.713   4.103  2.4194  0.0038 -0.3846
16571TIP3   OH271203   1.225   5.635  16.051 -0.2492  0.0449  0.2414
16571TIP3    H171204   1.316   5.663  16.059 -0.7371  1.0465  3.1744
16571TIP3    H271205   1.227   5.540  16.061  0.4563  0.1069  0.6942
16572TIP3   OH271206   5.988   4.355   3.019  0.0393 -0.5655  0.2532
16572TIP3    H171207   5.934   4.299   3.076 -0.2052 -2.3778 -1.6825
16572TIP3    H271208   5.951   4.442   3.029 -0.6878 -1.0528  2.0296
16573TIP3   OH271209   3.023   4.492   3.587 -0.2851  0.1469 -0.2566
16573TIP3    H171210   3.107   4.490   3.633  0.1354 -1.5678 -1.0508
16573TIP3    H271211   3.046   4.499   3.495 -0.9133 -2.1581 -0.6396
16574TIP3   OH271212   5.762   0.761  16.009  0.1369 -0.1330  0.3045
16574TIP3    H171213   5.760   0.832  16.073 -0.5052  0.7668 -0.7153
16574TIP3    H271214   5.678   0.716  16.020  0.4915 -0.6692  0.8607
16575TIP3   OH271215   0.285   6.477  15.019  0.2476  0.3680  0.1812
16575TIP3    H171216   0.379   6.494  15.016  0.5101 -0.8634  0.8383
16575TIP3    H271217   0.259   6.473  14.927  0.4098  2.8176 -0.0140
16576TIP3   OH271218   1.126   4.918   2.692 -0.3982  0.3778  0.0225
16576TIP3    H171219   1.082   4.997   2.663 -0.3313 -0.0495 -1.2603
16576TIP3    H271220   1.172   4.886   2.615  0.1233 -0.5451  0.7024
16577TIP3   OH271221   5.863   4.416   0.147 -0.7134  0.0013  0.0447
16577TIP3    H171222   5.778   4.439   0.111 -0.5731  0.6380  0.1028
16577TIP3    H271223   5.919   4.402   0.071 -0.6130  0.5928  0.0036
16578TIP3   OH271224   2.418   1.296  11.682  0.2059 -0.2802  0.2776
16578TIP3    H171225   2.445   1.244  11.757 -0.9632  0.6590  1.3617
16578TIP3    H271226   2.425   1.387  11.712 -3.9563  0.0362  0.5718
16579TIP3   OH271227   1.538   5.434   0.128 -0.3048  0.1832  0.0624
16579TIP3    H171228   1.452   5.470   0.105  0.4395  1.4260 -0.8513
16579TIP3    H271229   1.549   5.359   0.070 -0.8419 -0.0935  0.3107
16580TIP3   OH271230   2.950   5.739   2.970 -0.0490 -0.2641 -0.2304
16580TIP3    H171231   2.885   5.791   3.017  0.4583 -1.1867  1.5594
16580TIP3    H271232   3.034   5.772   3.002  0.3088 -1.0316 -0.3659
16581TIP3   OH271233   0.818   6.000   4.600  0.0359  0.1686 -0.0482
16581TIP3    H171234   0.879   6.069   4.574  1.2860 -0.2310  1.6970
16581TIP3    H271235   0.867   5.919   4.588 -1.2830 -0.4049 -1.6775
16582TIP3   OH271236   0.023   6.270   5.892  0.5193  0.5555  0.3203
16582TIP3    H171237  -0.045   6.325   5.854  0.5585  0.5925  0.3044
16582TIP3    H271238   0.012   6.279   5.986 -2.3735 -2.9479  0.3957
16583TIP3   OH271239   5.919   3.170  11.504 -0.1884  0.1027  0.5703
16583TIP3    H171240   5.979   3.243  11.521  0.7133 -0.6054  0.4487
16583TIP3    H271241   5.944   3.139  11.417  0.9017 -1.7641  1.5302
16584TIP3   OH271242   4.946   1.850   4.794  0.3198 -0.5414  0.2534
16584TIP3    H171243   5.010   1.906   4.749  2.3458 -2.1514  1.0347
16584TIP3    H271244   4.884   1.912   4.832  1.7196  1.1326 -0.0738
16585TIP3   OH271245   4.861   6.374   1.725 -0.1292 -0.2226  0.1673
16585TIP3    H171246   4.891   6.325   1.802 -0.0023 -0.2515  0.1002
16585TIP3    H271247   4.765   6.373   1.732 -0.2205 -2.1872 -0.8895
16586TIP3   OH271248   1.049   6.128  13.396  0.2901  0.1425  0.0282
16586TIP3    H171249   0.962   6.112  13.360  0.3894  2.7551 -1.5234
16586TIP3    H271250   1.067   6.052  13.452 -3.4506  0.0662  1.2663
16587TIP3   OH271251   2.569   4.302  11.303 -0.6334  0.1526  0.0525
16587TIP3    H171252   2.556   4.397  11.292 -0.3816 -0.0562 -2.2275
16587TIP3    H271253   2.659   4.293  11.335 -0.4737  0.6403 -0.2631
16588TIP3   OH271254   2.072   1.255  14.826  0.8351 -0.2250  0.7505
16588TIP3    H171255   2.120   1.198  14.886  1.3495 -0.9899 -0.3609
16588TIP3    H271256   2.093   1.344  14.855  0.8133 -0.5827  1.8917
16589TIP3   OH271257   1.505   3.408   3.488 -0.4161  0.3669 -0.1648
16589TIP3    H171258   1.448   3.389   3.563  0.3268  1.1678  0.6224
16589TIP3    H271259   1.480   3.344   3.422 -0.1710 -1.2214  1.2357
16590TIP3   OH271260   6.369   5.306  15.462 -0.3764 -0.2528 -0.3082
16590TIP3    H171261   6.298   5.326  15.523  0.1188  0.5659  0.0266
16590TIP3    H271262   6.391   5.215  15.479 -1.6756 -0.6586 -0.7658
16591TIP3   OH271263   0.457   0.694  16.466 -0.2080 -0.1994 -0.9744
16591TIP3    H171264   0.372   0.725  16.435 -0.3250 -1.2500 -1.7250
16591TIP3    H271265   0.520   0.755  16.427 -0.5097 -0.2948 -1.6229
16592TIP3   OH271266   5.031   3.225  17.143  0.7479 -0.2226  0.1448
16592TIP3    H171267   5.062   3.315  17.134 -0.6299  0.2398 -0.1035
16592TIP3    H271268   5.012   3.216  17.237  0.6919 -0.1878  0.1363
16593TIP3   OH271269   6.118   4.517   6.106 -0.3721  0.8705 -0.6331
16593TIP3    H171270   6.207   4.491   6.082 -0.3187  0.8632 -0.4329
16593TIP3    H271271   6.068   4.435   6.106 -0.6478  1.0328 -1.8769
16594TIP3   OH271272   2.117   4.832  15.272  0.4448 -0.1904 -0.5038
16594TIP3    H171273   2.030   4.865  15.294 -0.0057 -0.3125 -2.0146
16594TIP3    H271274   2.175   4.907  15.284  0.1556 -0.1484  0.6547
16595TIP3   OH271275   1.554   2.560  15.976  0.5750  0.4745  0.1510
16595TIP3    H171276   1.476   2.589  15.928  0.3936 -0.1214  0.0905
16595TIP3    H271277   1.626   2.568  15.912 -0.1914 -3.6774 -1.3998
16596TIP3   OH271278   3.493   3.286   4.877  0.0108  0.5027 -0.0795
16596TIP3    H171279   3.400   3.285   4.855  0.2627 -0.9391 -1.1277
16596TIP3    H271280   3.537   3.296   4.792  0.8277  0.5168  0.3470
16597TIP3   OH271281   2.532   5.921  11.560  0.5216  0.1534  0.1416
16597TIP3    H171282   2.533   5.878  11.645  1.1649  0.2080  0.1587
16597TIP3    H271283   2.574   5.859  11.501  0.9570  0.5203  0.0588
16598TIP3   OH271284   4.687   4.792   0.178  0.2987 -0.3721  0.6057
16598TIP3    H171285   4.701   4.763   0.268 -1.3617 -0.4090  0.8729
16598TIP3    H271286   4.607   4.846   0.183  0.9022  0.6664 -0.6215
16599TIP3   OH271287   0.033   4.856   3.272 -0.3338  0.3670 -0.3608
16599TIP3    H171288  -0.003   4.805   3.345 -2.9803  0.0782 -1.8033
16599TIP3    H271289   0.053   4.791   3.205 -0.9891  0.9465 -1.1184
16600TIP3   OH271290   6.079   4.984   0.650  0.2444 -0.1546  0.4403
16600TIP3    H171291   6.086   5.014   0.559 -0.7644 -1.5917 -0.1378
16600TIP3    H271292   6.089   4.889   0.645 -0.1493 -0.2827  1.7919
16601TIP3   OH271293   1.834   3.916   3.618 -0.2143 -0.0112  0.0055
16601TIP3    H171294   1.786   3.999   3.613 -0.1151 -0.0147 -1.0796
16601TIP3    H271295   1.846   3.890   3.527  1.1289 -0.4305  0.2961
16602TIP3   OH271296   5.863   6.442   3.395 -0.1797 -0.0104  0.0359
16602TIP3    H171297   5.821   6.369   3.439 -0.9731  0.2443 -0.2758
16602TIP3    H271298   5.931   6.402   3.341 -0.4067 -0.4882  0.1021
16603TIP3   OH271299   0.598   2.719   5.950  0.1192  0.4913 -0.3562
16603TIP3    H171300   0.537   2.648   5.930  1.6041 -1.0083  0.2568
16603TIP3    H271301   0.602   2.721   6.046 -0.4900  1.9297 -0.3505
16604TIP3   OH271302   0.715   0.006   2.501 -0.3307  0.3264 -0.1227
16604TIP3    H171303   0.713  -0.005   2.596 -2.2607 -1.4255 -0.3377
16604TIP3    H271304   0.684   0.095   2.486 -0.8938  0.2983  0.8543
16605TIP3   OH271305   2.139   5.087  17.105  0.0079 -0.1522 -0.0219
16605TIP3    H171306   2.045   5.078  17.090  0.3222 -2.1426 -1.0510
16605TIP3    H271307   2.159   5.178  17.082 -1.5031 -0.0041 -0.7845
16606TIP3   OH271308   6.339   3.176   0.914 -0.0635 -0.6958 -0.1864
16606TIP3    H171309   6.414   3.218   0.871  0.1902 -3.3485 -2.4865
16606TIP3    H271310   6.267   3.188   0.852 -0.4526 -1.9570  0.0118
16607TIP3   OH271311   4.434   4.718  15.256 -0.4378 -0.9388  0.8331
16607TIP3    H171312   4.483   4.660  15.197 -0.5623 -1.4595  1.2322
16607TIP3    H271313   4.474   4.804  15.244  0.2869 -1.2711  0.8298
16608TIP3   OH271314   4.075   4.445   2.240 -0.4331 -0.1195  0.3306
16608TIP3    H171315   4.162   4.482   2.226 -0.2215 -0.3506  0.9858
16608TIP3    H271316   4.043   4.425   2.153  0.1564  0.0086  0.0793
16609TIP3   OH271317   0.705   2.249   2.767 -0.0782  0.6207 -0.1386
16609TIP3    H171318   0.760   2.229   2.691 -0.1939  0.6120 -0.2214
16609TIP3    H271319   0.620   2.273   2.729 -0.3974 -0.2400  0.0276
16610TIP3   OH271320   0.152   0.730   4.524  0.4784  0.0056  0.4702
16610TIP3    H171321   0.230   0.683   4.553  0.7356 -0.8609 -1.6057
16610TIP3    H271322   0.094   0.729   4.601  2.4479  0.5986  2.0028
16611TIP3   OH271323   1.311   0.871   1.376  0.6876 -0.0766 -0.5791
16611TIP3    H171324   1.294   0.777   1.363 -0.2060 -0.0496  0.3243
16611TIP3    H271325   1.239   0.900   1.432  0.6390  1.2856 -1.3504
16612TIP3   OH271326   6.195   0.441   4.902  0.3380 -0.4035 -0.4108
16612TIP3    H171327   6.130   0.383   4.943 -1.7056  2.5998  0.7902
16612TIP3    H271328   6.193   0.418   4.809 -2.5110 -0.3754 -0.3941
16613TIP3   OH271329   3.814   6.228  15.512  0.5266  0.6777 -0.1398
16613TIP3    H171330   3.738   6.191  15.557  1.3336  0.1448  0.8121
16613TIP3    H271331   3.870   6.260  15.583  1.6467  0.1854 -0.7814
16614TIP3   OH271332   3.104   4.546   2.418  0.3210  0.1117  0.0922
16614TIP3    H171333   3.167   4.610   2.384  0.5967  0.2098  0.7792
16614TIP3    H271334   3.129   4.463   2.376  0.4865  0.2857 -0.1525
16615TIP3   OH271335   2.075   5.083  15.610  0.3836  0.4055  0.6607
16615TIP3    H171336   1.983   5.097  15.585  0.3364  2.4060  1.8489
16615TIP3    H271337   2.081   5.112  15.701  1.9648 -0.7822  0.9713
16616TIP3   OH271338   2.383   4.140   5.121  0.4756 -0.3841 -0.3240
16616TIP3    H171339   2.467   4.144   5.167  0.3672  0.2542 -0.1816
16616TIP3    H271340   2.394   4.068   5.059  0.6418 -1.2123  0.6481
16617TIP3   OH271341   2.602   3.204   5.706 -0.2952 -0.0452  0.1200
16617TIP3    H171342   2.548   3.186   5.629  0.8413 -1.7638 -0.3085
16617TIP3    H271343   2.647   3.286   5.685 -1.2362  0.3608 -0.3373
16618TIP3   OH271344   3.513   5.325  14.308  0.6141 -0.3620 -0.4040
16618TIP3    H171345   3.549   5.413  14.319  0.1166 -0.2977  0.7977
16618TIP3    H271346   3.581   5.267  14.343 -0.6986 -0.1956  2.6071
16619TIP3   OH271347   5.851   2.081  12.225  0.1447  0.6190  0.0671
16619TIP3    H171348   5.858   2.010  12.290  0.2180  2.3044  1.9317
16619TIP3    H271349   5.873   2.039  12.142  1.9175 -1.1609  1.3890
16620TIP3   OH271350   0.504   6.388  14.565  0.0693  0.0961  0.0332
16620TIP3    H171351   0.592   6.394  14.528 -0.1044  2.0115 -0.1130
16620TIP3    H271352   0.447   6.426  14.498 -0.7268 -0.0085  0.6417
16621TIP3   OH271353   2.898   4.448  13.569  0.0239 -0.0122  0.2956
16621TIP3    H171354   2.894   4.458  13.664 -0.1662  0.4719  0.2376
16621TIP3    H271355   2.815   4.405  13.546  0.4523 -0.9348  0.4467
16622TIP3   OH271356   3.955   3.812   4.065  0.4612  0.0829  0.0643
16622TIP3    H171357   3.939   3.824   3.972  0.7235 -2.3916 -0.3386
16622TIP3    H271358   3.965   3.717   4.076  0.1614  0.2949  2.6442
16623TIP3   OH271359   6.551   6.473  15.415  0.6770  0.4953  0.3256
16623TIP3    H171360   6.592   6.513  15.492 -1.0977  1.9613  0.5401
16623TIP3    H271361   6.524   6.386  15.445  1.5064  0.4133  0.8607
16624TIP3   OH271362   5.262   1.651   4.551  0.4129  0.0876  0.1616
16624TIP3    H171363   5.188   1.705   4.523  0.5688 -0.9205 -2.3580
16624TIP3    H271364   5.333   1.713   4.564 -0.6590  0.9913  1.9338
16625TIP3   OH271365   2.819   0.488  16.292 -0.0968 -0.2684 -0.2281
16625TIP3    H171366   2.882   0.448  16.352  0.6903  0.7330 -0.3698
16625TIP3    H271367   2.847   0.580  16.286 -1.9171  0.3338  0.1759
16626TIP3   OH271368   2.479   2.435  11.420 -0.1997  0.3267  0.2014
16626TIP3    H171369   2.557   2.396  11.460 -0.6637  0.6608  1.4813
16626TIP3    H271370   2.489   2.529  11.437 -1.3138  0.2750  1.1856
16627TIP3   OH271371   6.431   0.689  13.542  0.6026  0.6057 -0.5558
16627TIP3    H171372   6.506   0.681  13.600 -0.0731  1.1471  0.4035
16627TIP3    H271373   6.399   0.779  13.556 -1.2687 -0.1748  0.3508
16628TIP3   OH271374   5.202   2.898  16.429  0.4004  0.1226 -0.3929
16628TIP3    H171375   5.279   2.914  16.375  0.5799 -1.3246 -0.5910
16628TIP3    H271376   5.186   2.804  16.420 -1.2940  0.3836 -0.2345
16629TIP3   OH271377   3.306   1.540  14.214 -0.0320  0.0049  0.0043
16629TIP3    H171378   3.281   1.553  14.306  1.6743 -0.4981  0.5559
16629TIP3    H271379   3.289   1.624  14.173  2.1532  1.2188  1.4846
16630TIP3   OH271380   1.965   0.997  13.778 -0.2735  0.6912  0.3166
16630TIP3    H171381   2.046   0.965  13.739 -0.1286  2.1413 -0.6428
16630TIP3    H271382   1.933   1.063  13.716 -2.5814 -0.3760  0.3057
16631TIP3   OH271383   2.348   5.736   4.241 -1.1215 -0.2996 -0.0881
16631TIP3    H171384   2.404   5.659   4.237  2.5880  2.1511  1.4778
16631TIP3    H271385   2.311   5.734   4.329 -0.3751  0.0434  0.2491
16632TIP3   OH271386   6.635   1.589  13.829 -0.0314  0.4972  0.0341
16632TIP3    H171387   6.709   1.549  13.875 -0.6118 -0.3839  0.2058
16632TIP3    H271388   6.671   1.670  13.793  1.1173 -0.0883 -0.1789
16633TIP3   OH271389   4.117   0.658  16.959  0.5467 -0.2320  0.0074
16633TIP3    H171390   4.118   0.746  16.999 -1.3370  0.7277 -1.9440
16633TIP3    H271391   4.154   0.601  17.026  0.3951  1.8218  1.9066
16634TIP3   OH271392   5.126   4.317   4.819  0.2745  0.1695 -0.3044
16634TIP3    H171393   5.119   4.384   4.887 -1.1633  1.2668 -1.4768
16634TIP3    H271394   5.178   4.358   4.750 -0.7833  0.1835 -1.1138
16635TIP3   OH271395   6.726   6.065  13.042  0.1374  0.0587  0.1990
16635TIP3    H171396   6.805   6.030  13.082 -1.0560  0.6691  3.2816
16635TIP3    H271397   6.656   6.007  13.072 -0.7994  0.4970 -1.1041
16636TIP3   OH271398   2.952   5.273   1.307  0.4398  0.0496  0.2412
16636TIP3    H171399   2.901   5.342   1.265  1.2460 -0.0418 -0.9116
16636TIP3    H271400   2.954   5.202   1.243 -0.2301 -0.9837  1.3422
16637TIP3   OH271401   4.228   6.663  16.415  0.2414  0.3294  0.3141
16637TIP3    H171402   4.171   6.590  16.439  1.1646  0.0403  1.6529
16637TIP3    H271403   4.209   6.678  16.322 -1.0254 -0.6440  0.3985
16638TIP3   OH271404   2.456   4.184  16.319 -0.8704  0.2329 -0.2891
16638TIP3    H171405   2.407   4.241  16.377  0.3552  0.6130  0.3942
16638TIP3    H271406   2.410   4.100  16.322 -2.1164  0.9071 -0.5396
16639TIP3   OH271407   5.989   5.606  16.810 -0.3269 -0.1502 -0.2798
16639TIP3    H171408   5.948   5.671  16.753  0.0230 -0.2174 -0.6153
16639TIP3    H271409   6.018   5.537  16.750  1.4421  0.5115 -0.2239
16640TIP3   OH271410   5.219   5.995  13.840 -0.3087  0.6676  0.4157
16640TIP3    H171411   5.257   5.921  13.887  0.3679  0.7703  0.0384
16640TIP3    H271412   5.136   6.011  13.884 -0.6281 -0.5456  0.2663
16641TIP3   OH271413   3.856   4.297  11.739  0.0374  0.4614 -0.2874
16641TIP3    H171414   3.784   4.238  11.761  0.6174  0.1184  0.7719
16641TIP3    H271415   3.833   4.333  11.654 -0.7821 -0.5882 -0.5235
16642TIP3   OH271416   6.407   1.937  15.137  0.1078  0.3220  0.2747
16642TIP3    H171417   6.348   1.955  15.064  0.2892  2.0994  0.5560
16642TIP3    H271418   6.399   2.013  15.194  3.0869  0.8658  0.0388
16643TIP3   OH271419   0.451   2.317  17.280  0.0861  0.3119 -0.6726
16643TIP3    H171420   0.535   2.363  17.286 -0.2958  1.0635 -0.9929
16643TIP3    H271421   0.455   2.271  17.195  0.6516 -0.6366 -0.1492
16644TIP3   OH271422   2.754   5.720   4.685  0.0381  0.0613  0.6275
16644TIP3    H171423   2.734   5.664   4.609 -1.6632  1.2244  0.1879
16644TIP3    H271424   2.674   5.770   4.700  1.2579  1.8167  1.5160
16645TIP3   OH271425   6.640   0.413   3.198  0.5718 -0.3133  0.1358
16645TIP3    H171426   6.621   0.470   3.123 -0.3862 -0.5754  0.1799
16645TIP3    H271427   6.648   0.326   3.159 -0.7179 -0.5725  0.4448
16646TIP3   OH271428   5.743   2.189  14.422 -0.2078 -0.2659  0.4235
16646TIP3    H171429   5.822   2.135  14.419  0.7689  1.1311  0.5978
16646TIP3    H271430   5.770   2.269  14.468 -1.4466  0.6675 -0.4397
16647TIP3   OH271431   1.038   2.318  16.896  0.3437  0.2227  0.9063
16647TIP3    H171432   0.981   2.377  16.944  0.8967  1.3142  0.2324
16647TIP3    H271433   0.984   2.287  16.823  1.1988  2.8395 -0.9185
16648TIP3   OH271434   2.976   6.288  13.801 -0.3183 -0.0908 -0.5111
16648TIP3    H171435   3.031   6.218  13.767  0.0484  0.5644 -1.2928
16648TIP3    H271436   3.038   6.352  13.836 -0.6773 -0.6008  1.1055
16649TIP3   OH271437   3.841   6.655   3.667  0.3627 -0.2636  0.1905
16649TIP3    H171438   3.751   6.663   3.636 -0.0458 -0.5768  1.2665
16649TIP3    H271439   3.863   6.563   3.653  0.9629  0.0731 -1.2248
16650TIP3   OH271440   1.180   5.619   3.870  0.2785  0.0505  0.5613
16650TIP3    H171441   1.105   5.667   3.837 -0.4177 -1.3043  0.1475
16650TIP3    H271442   1.252   5.682   3.867 -0.6941  1.1721  0.3996
16651TIP3   OH271443   5.822   1.331  17.204  0.3945 -0.4225 -0.4283
16651TIP3    H171444   5.808   1.266  17.273 -2.4535  0.2279 -0.3308
16651TIP3    H271445   5.812   1.416  17.248 -0.8408  0.0058 -1.4924
16652TIP3   OH271446   2.484   5.577   1.077  0.5657 -0.0036 -0.0493
16652TIP3    H171447   2.518   5.654   1.032  0.0469  0.3262  0.1138
16652TIP3    H271448   2.394   5.569   1.046 -0.5012  1.4573  2.4349
16653TIP3   OH271449   0.347   1.936   4.819 -0.4484  0.2353  0.0750
16653TIP3    H171450   0.269   1.898   4.858 -0.1962  0.2773  0.6304
16653TIP3    H271451   0.402   1.861   4.796 -0.3431  0.2323  0.3377
16654TIP3   OH271452   0.565   1.390  13.682  0.3253  0.7902 -0.0657
16654TIP3    H171453   0.530   1.313  13.727  0.6259  1.2210  0.9221
16654TIP3    H271454   0.557   1.369  13.589 -1.2777  0.3192  0.1612
16655TIP3   OH271455   4.521   0.794   5.046  0.0248  0.3083  0.0335
16655TIP3    H171456   4.608   0.755   5.038  0.3957  0.7616  1.8062
16655TIP3    H271457   4.470   0.728   5.094 -0.6532  0.0062 -1.0736
16656TIP3   OH271458   0.011   1.753  15.168  0.0631 -0.1844 -0.3086
16656TIP3    H171459  -0.037   1.826  15.208 -0.5321 -2.0603  2.5966
16656TIP3    H271460  -0.006   1.762  15.074 -3.5451  0.9742  0.3527
16657TIP3   OH271461   5.443   5.976   3.215  0.3623 -0.1967 -0.0912
16657TIP3    H171462   5.411   5.887   3.199 -0.0780 -0.2286  0.9447
16657TIP3    H271463   5.513   5.965   3.279  0.5987  0.1616 -0.2867
16658TIP3   OH271464   1.831   5.615  12.484  0.3324  0.3045 -0.6719
16658TIP3    H171465   1.925   5.616  12.501  0.4698  0.6758 -1.4084
16658TIP3    H271466   1.808   5.708  12.478 -0.4381  0.2699  1.3857
16659TIP3   OH271467   2.298   1.641  16.547 -0.0831 -0.2070  0.1254
16659TIP3    H171468   2.381   1.688  16.549 -1.7050  2.7647  3.1563
16659TIP3    H271469   2.314   1.561  16.598  1.3167 -0.5041 -0.7515
16660TIP3   OH271470   5.452   5.750  15.624 -0.0305 -0.4718 -0.2153
16660TIP3    H171471   5.506   5.829  15.633 -2.3150  0.9776  1.5630
16660TIP3    H271472   5.449   5.733  15.530 -0.0478  1.9789 -0.6819
16661TIP3   OH271473   1.922   3.171  13.533  0.3395 -0.6095  0.3230
16661TIP3    H171474   1.905   3.265  13.535  2.8078 -0.1387  1.6515
16661TIP3    H271475   1.848   3.134  13.485 -1.5019  1.8165  1.1844
16662TIP3   OH271476   3.078   5.043   3.910  0.2824  0.0160  0.0184
16662TIP3    H171477   3.008   5.070   3.851  0.3583  1.3605  0.5305
16662TIP3    H271478   3.098   4.953   3.884  0.3726  0.6208 -2.0651
16663TIP3   OH271479   5.298   6.417   0.054  0.3698  0.0681 -0.7711
16663TIP3    H171480   5.358   6.492   0.056 -0.9456  1.2075 -2.5224
16663TIP3    H271481   5.319   6.373  -0.028 -0.1839 -0.3773 -0.6735
16664TIP3   OH271482   4.362   2.026   0.730  0.0912  0.1022  0.5090
16664TIP3    H171483   4.386   2.038   0.822 -0.8917 -1.4252  0.9825
16664TIP3    H271484   4.267   2.039   0.728  0.0049 -0.5693 -0.1582
16665TIP3   OH271485   2.216   0.315   2.117 -0.0729 -0.5249  0.0299
16665TIP3    H171486   2.299   0.268   2.103 -0.4329 -0.8555 -1.0357
16665TIP3    H271487   2.156   0.277   2.053 -0.9492 -0.0169  0.5398
16666TIP3   OH271488   2.242   3.834   3.568 -0.3171 -0.9375 -0.4913
16666TIP3    H171489   2.266   3.742   3.558  2.3940 -0.2323 -0.8732
16666TIP3    H271490   2.296   3.880   3.504  1.0139  1.2626  2.0954
16667TIP3   OH271491   3.737   1.311  13.579  0.3443 -0.3528 -0.6248
16667TIP3    H171492   3.659   1.255  13.578  0.2934 -0.2934  0.2081
16667TIP3    H271493   3.799   1.265  13.635  0.7665 -0.2040 -0.9731
16668TIP3   OH271494   4.975   5.726  12.938  0.2099  0.3695  0.0677
16668TIP3    H171495   5.004   5.643  12.900 -1.7210  1.2419 -3.5587
16668TIP3    H271496   4.889   5.741  12.899  0.8344  4.4177  0.0812
16669TIP3   OH271497   0.820   3.507   0.409 -1.0623 -0.1031 -0.1504
16669TIP3    H171498   0.872   3.442   0.363 -0.0634  0.0484  0.7698
16669TIP3    H271499   0.756   3.456   0.459 -0.4109 -0.3763  0.4120
16670TIP3   OH271500   2.338   6.540   4.210 -0.0336  0.4939  0.1662
16670TIP3    H171501   2.370   6.622   4.247  0.8955  0.5155 -0.6634
16670TIP3    H271502   2.414   6.501   4.167 -0.5747 -0.5921  0.1706
16671TIP3   OH271503   6.414   1.300  15.079 -0.1623 -0.3813  0.5676
16671TIP3    H171504   6.450   1.363  15.141 -0.4911 -0.3285  0.7065
16671TIP3    H271505   6.327   1.335  15.057 -1.2702 -1.8810  2.3055
16672TIP3   OH271506   4.296   1.726  11.180  0.0920  0.0262 -0.4281
16672TIP3    H171507   4.314   1.682  11.263  0.6889 -0.7430 -0.9440
16672TIP3    H271508   4.334   1.813  11.190 -0.7135  0.2791  0.4576
16673TIP3   OH271509   0.409   6.772  16.588  0.1332 -0.0322 -0.0406
16673TIP3    H171510   0.501   6.787  16.608  0.0725  0.2811  0.0147
16673TIP3    H271511   0.409   6.731  16.501  0.4106 -1.6779  0.7233
16674TIP3   OH271512   6.818   5.762   0.111  0.5250  0.2473  0.4253
16674TIP3    H171513   6.866   5.797   0.037 -0.5571 -1.6113 -1.2011
16674TIP3    H271514   6.857   5.805   0.188  0.4227  3.5563 -1.3128
16675TIP3   OH271515   6.126   4.567   4.863 -0.2206  0.2352 -0.5711
16675TIP3    H171516   6.133   4.601   4.952 -0.1560 -0.6225 -0.2419
16675TIP3    H271517   6.050   4.612   4.826 -2.6929 -2.2859  1.2456
16676TIP3   OH271518   0.224   6.573   5.324  0.0430 -0.2500  0.3455
16676TIP3    H171519   0.217   6.618   5.408 -0.6894  1.3604 -0.5532
16676TIP3    H271520   0.133   6.559   5.297  0.2674 -0.0482 -0.5370
16677TIP3   OH271521   3.232   0.771   0.146  0.0776  0.2100  0.0017
16677TIP3    H171522   3.158   0.739   0.198 -1.5121 -0.6968 -2.6971
16677TIP3    H271523   3.207   0.861   0.124 -0.7463 -0.4303 -1.7664
16678TIP3   OH271524   0.899   2.246   4.910  0.7123 -0.5099  0.4364
16678TIP3    H171525   0.878   2.337   4.891 -0.5360 -0.7634  0.5437
16678TIP3    H271526   0.830   2.196   4.867  0.5988 -1.3332  1.5382
16679TIP3   OH271527   5.970   1.820   5.539 -0.5225 -0.2026 -0.3915
16679TIP3    H171528   5.961   1.911   5.570  2.0438 -0.2841  0.7365
16679TIP3    H271529   6.002   1.829   5.450  2.0501  0.0541  0.5078
16680TIP3   OH271530   0.900   5.462   3.391  0.4402 -0.2666  0.3040
16680TIP3    H171531   0.903   5.524   3.318  0.9147 -1.0708 -0.3722
16680TIP3    H271532   0.973   5.488   3.447 -0.6559  1.1092  1.1318
16681TIP3   OH271533   2.982   0.384   4.385  0.5597 -0.3481 -0.0959
16681TIP3    H171534   2.958   0.337   4.305 -0.7584  0.6406 -0.3130
16681TIP3    H271535   3.003   0.472   4.356 -0.2220  0.1019  0.6685
16682TIP3   OH271536   0.287   6.335   5.449  0.7329  0.4460  0.1765
16682TIP3    H171537   0.239   6.408   5.411  1.3477  1.2183  0.8512
16682TIP3    H271538   0.220   6.271   5.472  0.2571  0.4535 -1.1386
16683TIP3   OH271539   3.796   3.036  15.700 -0.3737 -0.3543 -0.6467
16683TIP3    H171540   3.806   2.943  15.721  1.2024  0.2816  1.5627
16683TIP3    H271541   3.737   3.069  15.768 -0.0449  0.4889 -0.7636
16684TIP3   OH271542   4.458   6.074   5.421  0.2036 -0.1763  0.0077
16684TIP3    H171543   4.425   6.162   5.403 -2.7093 -1.1857  0.0492
16684TIP3    H271544   4.549   6.087   5.449 -0.6103  2.9457  1.4486
16685TIP3   OH271545   2.227   4.122   2.870 -0.3070  0.2628  0.8336
16685TIP3    H171546   2.199   4.198   2.920 -1.9899 -0.3197  0.8231
16685TIP3    H271547   2.183   4.131   2.786  0.9233  0.2031  0.1720
16686TIP3   OH271548   3.882   4.833   6.640 -0.1204 -0.2517  0.0855
16686TIP3    H171549   3.791   4.857   6.623 -0.2293  0.4930  1.6416
16686TIP3    H271550   3.889   4.742   6.612 -1.2866 -0.2432 -0.2407
16687TIP3   OH271551   3.706   6.333   0.506  0.0373 -0.0820 -0.4465
16687TIP3    H171552   3.669   6.401   0.563  0.7634 -1.1291  1.3036
16687TIP3    H271553   3.762   6.381   0.445 -0.2119  0.9780  0.1433
16688TIP3   OH271554   0.597   1.778  16.479 -0.2659  0.2223  0.0342
16688TIP3    H171555   0.552   1.856  16.448  2.6208  2.5417  1.3947
16688TIP3    H271556   0.634   1.738  16.400 -0.2926  1.2229 -0.4847
16689TIP3   OH271557   6.671   6.314  16.899 -0.4838  0.5274  0.1399
16689TIP3    H171558   6.615   6.238  16.886 -0.5187  0.4639  0.6425
16689TIP3    H271559   6.636   6.357  16.977  1.0104 -0.2827  1.2742
16690TIP3   OH271560   0.605   1.276  10.993  0.4833  0.7346  0.8071
16690TIP3    H171561   0.613   1.219  10.916  1.2076  0.4067  1.1102
16690TIP3    H271562   0.656   1.354  10.970  1.1471  0.4114  1.1470
16691TIP3   OH271563   4.192   2.145  14.105 -0.4096  0.1343  0.1654
16691TIP3    H171564   4.268   2.118  14.156 -0.3417  0.1163  0.0565
16691TIP3    H271565   4.145   2.063  14.087  1.8540 -0.4959 -3.5007
16692TIP3   OH271566   0.405   2.274  15.184  0.7529 -0.0997 -0.0208
16692TIP3    H171567   0.431   2.328  15.259  0.8751  1.0981 -0.8923
16692TIP3    H271568   0.486   2.262  15.134  0.9310 -1.9875  0.7046
16693TIP3   OH271569   3.137   6.054  12.148 -0.1538 -0.1653 -0.3986
16693TIP3    H171570   3.100   6.140  12.127 -0.0075 -0.2685 -1.0746
16693TIP3    H271571   3.132   6.049  12.244  0.3135  0.8090 -0.3174
16694TIP3   OH271572   4.385   2.385   1.883  0.5202  0.1765 -0.3473
16694TIP3    H171573   4.343   2.430   1.810 -0.7043 -3.5509 -2.0983
16694TIP3    H271574   4.386   2.449   1.954 -1.8283  2.6325 -2.4254
16695TIP3   OH271575   4.577   3.868   0.334 -0.6637  0.5739 -0.3686
16695TIP3    H171576   4.645   3.925   0.370 -1.5770  3.0519 -2.4386
16695TIP3    H271577   4.539   3.825   0.411  0.1387  2.6361  1.2347
16696TIP3   OH271578   6.676   4.525  16.029  0.1285  0.1134  0.3525
16696TIP3    H171579   6.754   4.484  15.992 -1.2058 -1.5343 -0.7353
16696TIP3    H271580   6.675   4.497  16.121  0.9952  0.4097  0.4487
16697TIP3   OH271581   6.432   4.446   4.854  0.0739 -0.0251  0.4577
16697TIP3    H171582   6.430   4.512   4.923 -0.8212  0.3822  0.0624
16697TIP3    H271583   6.393   4.369   4.894 -1.1148  0.4266  0.2156
16698TIP3   OH271584   2.880   4.393  11.726 -0.2923  0.3312  0.1519
16698TIP3    H171585   2.801   4.352  11.690  0.0040  1.1702 -1.5200
16698TIP3    H271586   2.853   4.483  11.746 -0.0231  0.3265  0.5474
16699TIP3   OH271587   0.371   5.989  14.974 -0.1316 -0.2890  0.5401
16699TIP3    H171588   0.388   5.942  15.057  1.5799  0.9909  0.9244
16699TIP3    H271589   0.283   6.025  14.986  0.5753  0.9397  2.3339
16700TIP3   OH271590   6.312   0.825  11.888 -0.2574  0.7795 -0.3012
16700TIP3    H171591   6.257   0.898  11.918 -0.8472  0.0922  0.2918
16700TIP3    H271592   6.250   0.755  11.868  0.5350 -0.7811  2.5449
16701TIP3   OH271593   3.245   1.875  13.333 -0.2451 -0.1507 -0.0794
16701TIP3    H171594   3.192   1.881  13.254 -0.2418 -2.2568 -0.2665
16701TIP3    H271595   3.321   1.931  13.316 -0.6263  0.0159 -1.2620
16702TIP3   OH271596   4.481   5.281   2.178  0.0300  0.5657 -0.3919
16702TIP3    H171597   4.422   5.286   2.254  0.1154 -0.5252 -0.2447
16702TIP3    H271598   4.440   5.336   2.112 -0.0756  1.4925  0.4255
16703TIP3   OH271599   4.709   1.002   5.867 -0.2617 -0.1048  0.4322
16703TIP3    H171600   4.676   0.968   5.950 -1.7958 -1.0940 -0.5503
16703TIP3    H271601   4.769   0.933   5.836  0.3402  0.2814  0.7292
16704TIP3   OH271602   6.053   4.078   1.801 -0.2537 -0.3070 -0.0209
16704TIP3    H171603   6.075   4.160   1.846 -0.8627 -0.1594  0.0042
16704TIP3    H271604   6.058   4.100   1.708  0.1825 -0.3985 -0.0201
16705TIP3   OH271605   2.590   3.510  15.924  0.0561 -0.1839 -0.3105
16705TIP3    H171606   2.656   3.578  15.909 -0.3994  0.0544 -1.2888
16705TIP3    H271607   2.631   3.429  15.895  0.7327 -0.3914  1.1962
16706TIP3   OH271608   2.532   5.874  15.199  0.1079  0.0773 -0.4268
16706TIP3    H171609   2.529   5.887  15.104 -0.0978  1.6766 -0.2262
16706TIP3    H271610   2.451   5.913  15.231  0.4216  0.0151  0.4528
16707TIP3   OH271611   2.588   1.745   5.726  0.2362 -0.3660 -0.1977
16707TIP3    H171612   2.539   1.676   5.681  0.9496 -1.6346  0.9265
16707TIP3    H271613   2.658   1.768   5.666  0.4332 -1.1585 -0.2784
16708TIP3   OH271614   5.395   5.627   5.070  0.2425  0.1981  1.1544
16708TIP3    H171615   5.417   5.559   5.006  0.8170  3.1829 -1.9540
16708TIP3    H271616   5.479   5.657   5.104  0.3085  2.2877 -0.7249
16709TIP3   OH271617   6.468   4.627   5.057  0.0558 -0.1781 -0.1687
16709TIP3    H171618   6.537   4.634   5.123  0.0109 -0.4235 -0.0943
16709TIP3    H271619   6.397   4.582   5.102 -0.2108  0.2144 -0.2010
16710TIP3   OH271620   4.769   1.435  14.196  0.4744 -0.1856  0.1788
16710TIP3    H171621   4.861   1.449  14.219  0.2893 -0.1275  0.8844
16710TIP3    H271622   4.757   1.483  14.114  1.4723 -1.4699 -0.7446
16711TIP3   OH271623   5.409   1.582   4.895  0.0385 -0.2497 -0.1053
16711TIP3    H171624   5.476   1.540   4.950 -1.2492 -1.1253  0.8193
16711TIP3    H271625   5.381   1.514   4.835 -0.0359  0.1157 -0.4813
16712TIP3   OH271626   5.040   0.085   6.124  0.2112 -0.3875 -0.3501
16712TIP3    H171627   5.063  -0.007   6.110  0.9746 -0.1534 -0.7030
16712TIP3    H271628   5.024   0.092   6.218 -0.7200 -1.0676 -0.4506
16713TIP3   OH271629   4.056   4.640  16.055  0.2306 -0.0798 -0.2612
16713TIP3    H171630   3.989   4.699  16.020 -0.7994 -0.8814  0.3234
16713TIP3    H271631   4.047   4.647  16.150 -0.0585 -1.3327 -0.1843
16714TIP3   OH271632   4.797   1.054   3.651 -0.3287 -0.6109 -0.0672
16714TIP3    H171633   4.865   1.048   3.584 -0.0340 -1.1655  0.2745
16714TIP3    H271634   4.738   0.981   3.631  0.4303 -1.5373  1.0085
16715TIP3   OH271635   6.698   5.457  14.408 -0.6349 -0.3989 -0.2652
16715TIP3    H171636   6.692   5.536  14.353  0.0967  0.6889  1.1987
16715TIP3    H271637   6.790   5.433  14.405 -0.3877  0.2828  1.3083
16716TIP3   OH271638   5.207   5.666   6.467 -0.2120 -1.0984  0.2774
16716TIP3    H171639   5.294   5.680   6.431  1.2431 -2.3326  3.1246
16716TIP3    H271640   5.174   5.754   6.484  1.7188 -0.6519  1.9130
16717TIP3   OH271641   5.311   0.717   2.927 -0.6142  0.3909 -0.0660
16717TIP3    H171642   5.260   0.686   3.002  1.6928  0.9956  1.8093
16717TIP3    H271643   5.272   0.802   2.906 -0.2067  1.0133  1.5894
16718TIP3   OH271644   5.427   0.137  11.820  0.3535 -0.1302 -0.1925
16718TIP3    H171645   5.351   0.102  11.867  0.3169 -2.0742 -1.6484
16718TIP3    H271646   5.485   0.062  11.808  0.7427  0.4854 -2.4674
16719TIP3   OH271647   2.007   4.055  13.745 -0.2381 -0.2460  0.6155
16719TIP3    H171648   1.960   4.049  13.661 -1.2460  0.9567  1.0673
16719TIP3    H271649   2.064   3.978  13.747 -2.5585 -2.0187  0.2735
16720TIP3   OH271650   5.577   2.186  13.547 -0.2330 -0.3648  0.2944
16720TIP3    H171651   5.586   2.122  13.477  2.0893  1.8052 -1.4766
16720TIP3    H271652   5.491   2.225  13.534 -1.1981 -2.3093  0.7153
16721TIP3   OH271653   5.116   4.674  14.290 -0.1251 -0.0361  0.2568
16721TIP3    H171654   5.203   4.645  14.264 -0.0720  2.1813 -2.2179
16721TIP3    H271655   5.089   4.735  14.222 -3.6222 -0.6245  0.9995
16722TIP3   OH271656   0.707   2.682  11.947  0.1054  0.3616  0.6216
16722TIP3    H171657   0.619   2.693  11.911  0.1282 -0.1630  0.4080
16722TIP3    H271658   0.720   2.587  11.951 -0.3234  0.3517  2.9955
16723TIP3   OH271659   2.825   1.713  15.369  0.2060 -0.1067  0.2276
16723TIP3    H171660   2.761   1.729  15.438  0.5549 -0.8304  0.7332
16723TIP3    H271661   2.895   1.664  15.412  1.1065  0.6923 -0.3196
16724TIP3   OH271662   5.569   0.555   1.569 -0.0571  0.2583  0.1087
16724TIP3    H171663   5.542   0.628   1.624 -1.6755 -0.9097  0.9060
16724TIP3    H271664   5.588   0.484   1.631 -2.9768 -1.4314 -0.8265
16725TIP3   OH271665   0.360   6.293   2.720 -0.6553 -0.1442  0.3517
16725TIP3    H171666   0.449   6.270   2.691 -0.4996 -0.4048  1.0237
16725TIP3    H271667   0.349   6.384   2.693  0.3877  0.3753  1.6119
16726TIP3   OH271668   6.625   4.031  13.588 -0.3782 -0.0101  0.1031
16726TIP3    H171669   6.637   4.065  13.677  1.6246 -0.0530 -0.1288
16726TIP3    H271670   6.548   4.077  13.555 -1.5959 -0.5521  2.1181
16727TIP3   OH271671   4.685   5.926  11.860 -0.0277 -0.0678  0.4730
16727TIP3    H171672   4.746   5.877  11.806  0.2526  0.1299  0.6094
16727TIP3    H271673   4.717   5.915  11.950  0.2242  0.6264  0.4737
16728TIP3   OH271674   4.549   6.531  13.017  0.1214  0.5819 -0.5426
16728TIP3    H171675   4.639   6.500  13.011 -0.4857 -1.1567 -1.2205
16728TIP3    H271676   4.538   6.556  13.109  0.6044 -1.4762  0.1069
16729TIP3   OH271677   2.188   0.289   5.377 -0.2109  0.5161 -0.1582
16729TIP3    H171678   2.186   0.349   5.302 -0.3530 -0.5231 -0.9976
16729TIP3    H271679   2.244   0.332   5.441 -0.8848  1.8848 -0.4633
16730TIP3   OH271680   0.397   6.543   0.890  0.6174  0.3804  0.1714
16730TIP3    H171681   0.435   6.456   0.879 -0.3440 -0.0474  0.1557
16730TIP3    H271682   0.305   6.532   0.863  0.2397  1.1580  1.1223
16731TIP3   OH271683   2.005   6.020   1.151 -0.1549  0.0477  0.2352
16731TIP3    H171684   1.959   5.962   1.212 -1.6700 -0.2198 -1.1115
16731TIP3    H271685   1.935   6.060   1.100  0.9087  2.6933  0.7922
16732TIP3   OH271686   3.751   0.555   5.681  0.3812 -0.0603  0.5910
16732TIP3    H171687   3.672   0.576   5.633  0.6655  0.5137  0.3724
16732TIP3    H271688   3.776   0.468   5.650 -0.1832 -0.2670  0.6975
16733TIP3   OH271689   2.046   6.813   1.261  0.1265  0.3150 -0.2618
16733TIP3    H171690   2.032   6.800   1.354 -1.9767 -0.9745 -0.7166
16733TIP3    H271691   2.007   6.898   1.242  1.4751  1.0515  0.1983
16734TIP3   OH271692   5.074   6.332  12.020 -0.8446 -0.6465 -0.6435
16734TIP3    H171693   4.995   6.378  11.991  0.6346  2.1208 -0.5168
16734TIP3    H271694   5.130   6.330  11.943  0.8285  1.6611  0.4571
16735TIP3   OH271695   3.026   5.017  13.611 -0.8188  0.0500  0.0739
16735TIP3    H171696   3.081   5.007  13.534 -0.8814  0.3536 -0.0115
16735TIP3    H271697   2.998   5.109  13.609  1.0610  0.6970  1.7156
16736TIP3   OH271698   4.290   2.656  11.786 -0.0101 -0.3696 -0.2599
16736TIP3    H171699   4.244   2.733  11.751 -0.0596 -0.7019 -0.9295
16736TIP3    H271700   4.241   2.582  11.752  1.1667 -0.7337 -1.1688
16737TIP3   OH271701   6.394   0.842   3.245 -0.1413  0.5157  0.3454
16737TIP3    H171702   6.456   0.770   3.231 -0.0774  0.5327  0.5298
16737TIP3    H271703   6.308   0.803   3.230 -0.0001  0.8967 -1.4995
16738TIP3   OH271704   0.350   6.147   0.988 -0.5456  0.6798 -0.0513
16738TIP3    H171705   0.428   6.202   0.974  0.8582  0.0823  4.6153
16738TIP3    H271706   0.383   6.058   0.984 -1.4980  0.3444 -0.5632
16739TIP3   OH271707   0.186   1.211   1.977 -0.2583  0.0326 -1.2240
16739TIP3    H171708   0.230   1.274   1.920  0.1945  2.9665  2.1681
16739TIP3    H271709   0.256   1.170   2.027 -1.0412  3.1847  2.6910
16740TIP3   OH271710   0.420   4.375   2.292 -0.1299 -0.2596 -0.3847
16740TIP3    H171711   0.404   4.446   2.354 -0.5012 -0.7461  0.0807
16740TIP3    H271712   0.365   4.303   2.323  1.2193 -1.1877 -0.1012
16741TIP3   OH271713   3.355   3.347  11.911  0.5652 -0.5322  0.3920
16741TIP3    H171714   3.401   3.312  11.834  1.2871 -1.2658  1.1428
16741TIP3    H271715   3.425   3.368  11.973 -0.0651 -0.7292  1.1718
16742TIP3   OH271716   2.468   3.558   5.095 -0.5904 -0.1179 -0.5235
16742TIP3    H171717   2.402   3.612   5.051  0.0376  0.9985 -0.1155
16742TIP3    H271718   2.429   3.471   5.099 -1.8716  0.4404 -0.6431
16743TIP3   OH271719   4.019   6.216  13.641  0.3655  0.5342  0.3249
16743TIP3    H171720   4.094   6.222  13.701  0.1412 -0.8679  0.7584
16743TIP3    H271721   4.029   6.130  13.600 -0.7292  0.5608  0.0004
16744TIP3   OH271722   0.103   2.142  16.427 -0.2346 -0.2322 -0.4791
16744TIP3    H171723   0.030   2.194  16.460 -1.0231 -0.3403 -2.0105
16744TIP3    H271724   0.151   2.201  16.370  0.7349 -0.2469  0.2995
16745TIP3   OH271725   6.419   2.680  13.179 -0.2728 -0.0080  0.1036
16745TIP3    H171726   6.406   2.606  13.119  2.0606  0.0819 -0.5375
16745TIP3    H271727   6.501   2.661  13.224 -0.5447  1.3446  1.1998
16746TIP3   OH271728   0.124   1.289  13.350  0.1571  0.1605 -0.4984
16746TIP3    H171729   0.157   1.234  13.279  3.1413 -0.6243  1.4265
16746TIP3    H271730   0.174   1.262  13.427 -1.8668  2.1103  1.5766
16747TIP3   OH271731   3.681   0.949  14.847  0.1317  0.3083 -0.6916
16747TIP3    H171732   3.656   0.894  14.922 -0.7219  0.2690 -1.0014
16747TIP3    H271733   3.721   0.888  14.785 -0.1633  0.1509 -0.7297
16748TIP3   OH271734   3.266   5.445   5.998 -0.1359 -0.6661  0.5348
16748TIP3    H171735   3.305   5.383   6.061  0.2017 -0.8746  0.1200
16748TIP3    H271736   3.173   5.442   6.018 -0.0368 -0.7521  1.0160
16749TIP3   OH271737   1.807   1.957  12.083 -0.1382 -0.0460  0.6226
16749TIP3    H171738   1.896   1.945  12.049  0.3609  2.4272  0.9906
16749TIP3    H271739   1.750   1.928  12.012  0.9308 -0.6299 -0.0182
16750TIP3   OH271740   2.124   4.390   6.342  0.0671 -0.3969  0.1751
16750TIP3    H171741   2.158   4.437   6.266 -3.7951 -2.7120 -3.1425
16750TIP3    H271742   2.155   4.300   6.331 -2.6199 -1.3196 -0.0698
16751TIP3   OH271743   4.832   3.657  15.131 -0.7117 -0.1138 -0.6426
16751TIP3    H171744   4.827   3.686  15.222 -1.0547 -0.2292 -0.6239
16751TIP3    H271745   4.777   3.719  15.083 -0.9725 -0.3815 -0.6904
16752TIP3   OH271746   2.740   2.425   0.606  0.4505 -0.5595  0.4643
16752TIP3    H171747   2.802   2.379   0.662  0.7801 -0.9444 -0.2074
16752TIP3    H271748   2.763   2.517   0.616  0.8172 -0.6616  0.5921
16753TIP3   OH271749   5.718   1.709   2.405  0.5555  0.4751  0.2543
16753TIP3    H171750   5.708   1.670   2.492  2.0260  1.2031  0.7774
16753TIP3    H271751   5.682   1.798   2.414  0.8019  0.5870  0.1530
16754TIP3   OH271752   2.970   2.707  17.046 -0.4584  0.1800  0.2477
16754TIP3    H171753   2.891   2.699  17.100 -0.3575  0.2723  0.4125
16754TIP3    H271754   3.040   2.676  17.103 -0.4234 -0.2114 -0.0137
16755TIP3   OH271755   5.375   3.055   0.624  0.0367  0.6703  0.8551
16755TIP3    H171756   5.421   2.982   0.581  0.5997  1.1669  0.6022
16755TIP3    H271757   5.283   3.039   0.606  0.1494 -0.0458  0.8957
16756TIP3   OH271758   4.403   6.071  14.363 -0.4381  0.2385 -0.1325
16756TIP3    H171759   4.497   6.050  14.370 -0.2238  1.3914  0.6860
16756TIP3    H271760   4.399   6.165  14.383 -1.8853 -0.0179  0.7803
16757TIP3   OH271761   4.389   5.755  16.974 -0.4162  0.6865  0.1332
16757TIP3    H171762   4.310   5.704  16.988 -0.8370  0.7561 -1.9366
16757TIP3    H271763   4.359   5.846  16.971  0.0222  0.8882  1.3888
16758TIP3   OH271764   1.215   2.135  15.771 -0.0233  0.0667 -0.5441
16758TIP3    H171765   1.177   2.142  15.859  0.5528  2.6765 -0.4815
16758TIP3    H271766   1.307   2.113  15.787 -0.6635 -2.9067 -0.6215
16759TIP3   OH271767   4.841   6.419   4.203 -0.2013  0.0899 -0.3852
16759TIP3    H171768   4.863   6.509   4.226 -1.6805  0.6273 -1.0428
16759TIP3    H271769   4.825   6.376   4.287 -2.7590  1.3138 -0.1832
16760TIP3   OH271770   1.790   1.782   3.176 -0.6570 -0.2499  0.2658
16760TIP3    H171771   1.759   1.868   3.146  1.5809  0.7733  0.7776
16760TIP3    H271772   1.872   1.768   3.128  0.0476 -1.1549  1.7040
16761TIP3   OH271773   0.899   2.397  12.650  0.2956  0.1847  0.6625
16761TIP3    H171774   0.895   2.469  12.712 -2.2431  0.5637  0.1050
16761TIP3    H271775   0.861   2.323  12.697  0.7402 -0.1821  0.4423
16762TIP3   OH271776   0.314   3.858  16.805  0.2721 -0.0207 -0.1107
16762TIP3    H171777   0.304   3.910  16.885 -0.9179 -1.6133  0.8133
16762TIP3    H271778   0.251   3.896  16.743 -0.6942 -0.4181  0.6070
16763TIP3   OH271779   4.660   2.919   1.486 -0.0334 -0.1069  0.1855
16763TIP3    H171780   4.582   2.912   1.540  0.9511  0.0949  1.6718
16763TIP3    H271781   4.697   3.005   1.509  1.1793 -0.6414  0.2750
16764TIP3   OH271782   1.114   2.796   1.543  0.2054 -0.2945  0.2160
16764TIP3    H171783   1.202   2.799   1.506 -0.1451 -1.5857 -0.7378
16764TIP3    H271784   1.112   2.715   1.594 -0.9636 -1.1200 -1.1330
16765TIP3   OH271785   1.579   4.946   3.564  0.5021  0.4512  0.0796
16765TIP3    H171786   1.503   4.911   3.517  1.2765  0.6832 -1.3587
16765TIP3    H271787   1.599   4.879   3.629 -1.5370  0.8317  1.1580
16766TIP3   OH271788   0.263   4.486  17.242 -0.1137 -0.8650 -0.3677
16766TIP3    H171789   0.248   4.398  17.277  1.3840 -0.8210  0.3903
16766TIP3    H271790   0.287   4.538  17.318 -0.9303  0.2056 -0.8239
16767TIP3   OH271791   3.708   4.468  16.340 -0.4822  0.2233 -0.1341
16767TIP3    H171792   3.730   4.514  16.259 -2.4826  0.8571 -0.3572
16767TIP3    H271793   3.735   4.528  16.409 -3.4412  2.0070 -0.4266
16768TIP3   OH271794   5.536   5.310  14.219 -0.1279 -0.1077  0.0398
16768TIP3    H171795   5.612   5.365  14.204  0.2308 -0.4237  0.6887
16768TIP3    H271796   5.571   5.221  14.223 -0.5867 -0.2972 -0.1308
16769TIP3   OH271797   2.659   1.862   4.462 -0.4392  0.1328 -0.2150
16769TIP3    H171798   2.644   1.778   4.418 -0.6942  0.9559 -1.7287
16769TIP3    H271799   2.590   1.920   4.428 -1.8690  0.2636  2.7599
16770TIP3   OH271800   3.457   5.862  15.236 -0.3678  0.5698 -0.0785
16770TIP3    H171801   3.521   5.838  15.169 -0.8565 -0.1038 -0.3038
16770TIP3    H271802   3.421   5.779  15.266 -2.1846  1.0209 -0.9734
16771TIP3   OH271803   6.085   3.660   6.236  0.2069  0.3663  0.2087
16771TIP3    H171804   6.082   3.583   6.180  1.2606  1.3845 -1.2866
16771TIP3    H271805   6.013   3.715   6.204  0.7510  0.9047 -0.1053
16772TIP3   OH271806   0.152   5.510   1.570  0.5298  0.1233  0.2287
16772TIP3    H171807   0.155   5.590   1.623  0.1867  0.0959  0.2942
16772TIP3    H271808   0.243   5.481   1.564  0.8189  1.2800 -0.9724
16773TIP3   OH271809   2.918   2.505  13.558  0.1664 -0.2566  0.0381
16773TIP3    H171810   2.889   2.508  13.649 -1.9408  0.1173 -0.6254
16773TIP3    H271811   2.977   2.580  13.549 -1.9241  1.4622  0.3323
16774TIP3   OH271812   2.002   2.659   4.039  0.0448  0.0451 -0.6108
16774TIP3    H171813   2.029   2.720   3.970  0.5793 -0.2966 -0.7025
16774TIP3    H271814   2.029   2.701   4.120  0.0888  0.0977 -0.6525
16775TIP3   OH271815   6.399   1.730   5.062  0.2373  0.0882 -0.0215
16775TIP3    H171816   6.362   1.694   5.143 -1.7594 -0.6987 -1.2341
16775TIP3    H271817   6.380   1.664   4.996  0.0768  1.6015 -1.5152
16776TIP3   OH271818   6.139   6.045   2.824 -0.2200  0.0968 -0.1417
16776TIP3    H171819   6.141   6.045   2.920  2.7690 -2.0079 -0.1701
16776TIP3    H271820   6.105   5.959   2.800  0.3522  0.1018 -0.9938
16777TIP3   OH271821   6.812   6.095  15.352  0.4832 -0.0025 -0.1091
16777TIP3    H171822   6.760   6.155  15.298  0.6774 -0.8493 -1.2484
16777TIP3    H271823   6.748   6.035  15.389  0.3604  0.5209  0.5448
16778TIP3   OH271824   6.296   1.840  13.218  0.5401  0.5054  0.1066
16778TIP3    H171825   6.303   1.773  13.150  2.2719 -0.3630  1.1220
16778TIP3    H271826   6.367   1.901  13.198 -0.3446  1.4572 -0.1652
16779TIP3   OH271827   3.237   0.428   0.237  0.8763 -0.0608  0.1638
16779TIP3    H171828   3.145   0.446   0.254  1.5898  3.1283  1.0399
16779TIP3    H271829   3.244   0.429   0.141  0.5837  3.4833  0.0984
16780TIP3   OH271830   1.709   6.287  10.764  0.6754 -0.5217  0.0226
16780TIP3    H171831   1.661   6.365  10.736  3.0306 -0.0537 -2.9990
16780TIP3    H271832   1.648   6.240  10.820 -1.9691  1.8509 -0.7492
16781TIP3   OH271833   2.104   3.176  13.862  0.5746  0.1137  0.5311
16781TIP3    H171834   2.171   3.187  13.794  1.2593 -0.6958  1.0590
16781TIP3    H271835   2.153   3.147  13.939 -0.1394  1.4246  1.5025
16782TIP3   OH271836   3.274   6.589   4.624 -0.4682 -0.0674  0.6077
16782TIP3    H171837   3.286   6.656   4.556 -0.7872 -2.3742 -1.8231
16782TIP3    H271838   3.190   6.548   4.603  0.2378 -1.9626  1.3396
16783TIP3   OH271839   2.118   6.622  15.557 -0.1536  0.0259  0.2918
16783TIP3    H171840   2.167   6.606  15.477  0.1602 -1.1254  0.6996
16783TIP3    H271841   2.057   6.692  15.535 -0.0477 -0.2656 -0.9442
16784TIP3   OH271842   5.589   5.118   3.483  0.2983 -0.7932 -0.3751
16784TIP3    H171843   5.648   5.193   3.485  1.3918 -1.6542  1.4382
16784TIP3    H271844   5.541   5.123   3.565  0.8783 -2.4177  0.0879
16785TIP3   OH271845   2.714   0.228   5.540  0.4300  0.2876  0.2104
16785TIP3    H171846   2.653   0.173   5.591  0.3777 -1.6327 -1.8576
16785TIP3    H271847   2.742   0.172   5.468  0.6860  2.8893 -1.7756
16786TIP3   OH271848   1.826   0.071  14.881 -0.5053  0.9486  0.5773
16786TIP3    H171849   1.905   0.020  14.860 -0.9457  1.5631 -2.9576
16786TIP3    H271850   1.755   0.007  14.880 -0.6849  1.1530 -1.1334
16787TIP3   OH271851   5.712   2.865  15.310 -0.0980  0.6265  0.1331
16787TIP3    H171852   5.742   2.795  15.368  0.1704  2.0984  1.7972
16787TIP3    H271853   5.618   2.872  15.326 -0.4086 -0.3498 -1.1509
16788TIP3   OH271854   0.323   1.372   2.339  0.1361  0.4239  0.1201
16788TIP3    H171855   0.407   1.382   2.383  0.9044  0.4775 -1.3150
16788TIP3    H271856   0.337   1.300   2.277 -0.9880  0.1923  0.1190
16789TIP3   OH271857   4.302   4.668  14.139  0.9336 -0.2784  0.3902
16789TIP3    H171858   4.210   4.650  14.119  1.1167 -1.1608  0.2913
16789TIP3    H271859   4.334   4.714  14.062  0.3218  0.9556  0.8543
16790TIP3   OH271860   2.164   1.857   3.497  0.1060 -0.3784  0.3473
16790TIP3    H171861   2.237   1.838   3.556 -1.4932  0.8234  2.7909
16790TIP3    H271862   2.185   1.808   3.417  3.0045 -0.9644  1.3883
16791TIP3   OH271863   3.909   5.499  14.727 -0.1393 -0.2732  0.3594
16791TIP3    H171864   3.919   5.537  14.639 -2.0042  2.2632  1.1716
16791TIP3    H271865   3.996   5.507  14.767  0.2764  0.2199 -0.6305
16792TIP3   OH271866   2.407   3.896  14.671  0.1375  0.1060  0.2150
16792TIP3    H171867   2.314   3.893  14.693  0.2556  0.1968  0.7187
16792TIP3    H271868   2.452   3.867  14.750  0.5147 -0.5116 -0.2167
16793TIP3   OH271869   6.004   6.043  10.587 -0.2575  0.2090 -0.9701
16793TIP3    H171870   6.026   5.957  10.553 -1.5489  0.1927 -1.8186
16793TIP3    H271871   6.087   6.090  10.591  0.8854 -1.9866  2.2314
16794TIP3   OH271872   0.531   1.922  10.442 -0.1170  0.4326 -0.1645
16794TIP3    H171873   0.512   1.974  10.364  2.5527  2.2505  0.3476
16794TIP3    H271874   0.457   1.939  10.501 -1.7237 -0.2925 -1.8971
16795TIP3   OH271875   2.353   1.363  16.399  0.8206 -0.0817  0.7423
16795TIP3    H171876   2.293   1.430  16.432  1.5053  0.5699  0.6826
16795TIP3    H271877   2.339   1.288  16.456  1.2017  0.6645  1.8396
16796TIP3   OH271878   5.881   1.480   6.884  0.1559  0.0019 -0.6117
16796TIP3    H171879   5.846   1.394   6.907 -0.8146  0.7758  0.8650
16796TIP3    H271880   5.811   1.522   6.833  0.3194  0.2297 -0.6510
16797TIP3   OH271881   6.415   1.039  15.238 -0.1224  0.6947 -0.1417
16797TIP3    H171882   6.410   1.129  15.204  2.6529  1.2890  0.9141
16797TIP3    H271883   6.508   1.024  15.253 -0.4829 -2.5776 -0.7857
16798TIP3   OH271884   3.906   4.076  17.096  0.8298 -0.3786 -0.1149
16798TIP3    H171885   3.853   3.997  17.104  2.5347 -1.3951  1.4234
16798TIP3    H271886   3.875   4.133  17.167  1.5849 -0.8577  0.6049
16799TIP3   OH271887   0.521   6.354   1.206 -0.6951 -0.0679 -0.1690
16799TIP3    H171888   0.464   6.334   1.281 -1.4351  1.6551 -0.2542
16799TIP3    H271889   0.490   6.439   1.175 -0.7002 -0.9937 -2.7444
16800TIP3   OH271890   5.693   5.964   4.904  0.5860  0.4006 -0.3532
16800TIP3    H171891   5.697   5.994   4.995  0.9320  0.4738 -0.3894
16800TIP3    H271892   5.745   6.028   4.856  1.3758 -0.2799 -0.4234
16801TIP3   OH271893   6.766   0.174   4.449  0.0151  0.2098  0.2687
16801TIP3    H171894   6.682   0.220   4.451  1.8004  3.5672  1.5908
16801TIP3    H271895   6.803   0.195   4.363  1.8494  3.3028  1.7332
16802TIP3   OH271896   5.613   0.240   3.804  0.2769  0.3234 -0.6819
16802TIP3    H171897   5.685   0.296   3.775  1.0510 -1.4473 -2.3248
16802TIP3    H271898   5.617   0.244   3.900 -0.6043  4.1496 -0.7267
16803TIP3   OH271899   6.234   5.368  15.690  0.2707 -0.7473  0.7401
16803TIP3    H171900   6.296   5.396  15.756 -1.2420  0.4520  1.7051
16803TIP3    H271901   6.178   5.304  15.734  0.1079 -0.9772  0.2109
16804TIP3   OH271902   1.118   5.600  16.489 -0.1188  0.2514 -0.3310
16804TIP3    H171903   1.028   5.575  16.509  0.3415 -2.3265 -1.2619
16804TIP3    H271904   1.144   5.654  16.564 -2.6248  1.6039 -0.3788
16805TIP3   OH271905   0.364   2.325  12.384 -0.2642 -0.0333  0.3356
16805TIP3    H171906   0.452   2.297  12.407 -0.3362 -0.8285 -0.3534
16805TIP3    H271907   0.306   2.270  12.438 -0.3875 -0.8072 -0.5814
16806TIP3   OH271908   4.313   0.463  12.188 -0.1678 -0.3943  0.5386
16806TIP3    H171909   4.273   0.463  12.275 -2.5693 -0.8947 -0.5019
16806TIP3    H271910   4.248   0.420  12.133  0.6155  1.3258 -1.8095
16807TIP3   OH271911   6.144   6.092  15.271  0.5008  0.4597  0.3465
16807TIP3    H171912   6.077   6.084  15.204  2.0586  0.1261 -1.2178
16807TIP3    H271913   6.096   6.107  15.352 -1.4907 -0.9705 -0.5471
16808TIP3   OH271914   0.550   0.386   3.943 -0.3512 -0.0845  0.6900
16808TIP3    H171915   0.538   0.309   3.887 -1.7236 -0.3286  1.2801
16808TIP3    H271916   0.470   0.388   3.996  0.0960  1.2250  1.3122
16809TIP3   OH271917   0.993   2.096   1.020  0.5721  0.0492  0.0406
16809TIP3    H171918   1.002   2.174   1.075 -1.0493  0.7809 -0.6750
16809TIP3    H271919   1.034   2.122   0.937 -1.1217  0.6361 -0.6373
16810TIP3   OH271920   3.743   3.818   1.826 -0.0604  0.0062 -0.0290
16810TIP3    H171921   3.836   3.804   1.807  0.3838 -0.1335  2.1506
16810TIP3    H271922   3.738   3.828   1.921 -2.5623 -2.3200  0.1682
16811TIP3   OH271923   3.506   3.780   4.054  0.1134  0.4413  0.4200
16811TIP3    H171924   3.573   3.761   3.988 -0.6862  0.2174 -0.3380
16811TIP3    H271925   3.536   3.735   4.133  1.0700  0.6973  0.2101
16812TIP3   OH271926   2.142   2.998   5.203  0.8472 -0.4635 -0.3150
16812TIP3    H171927   2.133   2.982   5.109 -1.1194 -1.0209 -0.0576
16812TIP3    H271928   2.138   2.911   5.243 -0.5953 -0.0734  0.4287
16813TIP3   OH271929   0.979   0.645  12.253  0.3099 -0.1338 -0.1723
16813TIP3    H171930   1.008   0.664  12.163  0.6747 -2.0954 -0.4846
16813TIP3    H271931   0.891   0.683  12.258  0.0193 -0.6083 -1.5741
16814TIP3   OH271932   5.617   0.335   6.198 -0.3931 -0.6682  0.0229
16814TIP3    H171933   5.558   0.315   6.126  1.5343  1.0445 -2.0855
16814TIP3    H271934   5.573   0.403   6.248 -0.5354  0.1154 -1.1520
16815TIP3   OH271935   1.335   4.683  11.609  0.0497  0.2317 -0.2712
16815TIP3    H171936   1.406   4.668  11.671 -0.0371 -0.8618 -0.4397
16815TIP3    H271937   1.281   4.751  11.650 -0.0874 -0.5850  0.9124
16816TIP3   OH271938   4.123   3.180  11.538  0.4618 -0.2430  0.0989
16816TIP3    H171939   4.086   3.120  11.474 -0.0858 -0.4460  0.6090
16816TIP3    H271940   4.058   3.249  11.548 -0.4403 -1.3429  2.0606
16817TIP3   OH271941   4.294   2.462   2.481  0.3078  0.0700  0.1056
16817TIP3    H171942   4.301   2.556   2.500  1.4311  0.2081 -0.9297
16817TIP3    H271943   4.304   2.420   2.567  1.5168  0.8264  0.3470
16818TIP3   OH271944   5.848   0.420   0.670 -0.9735 -0.1921  0.1575
16818TIP3    H171945   5.850   0.327   0.648  0.4260 -0.3804  1.0424
16818TIP3    H271946   5.784   0.457   0.610 -0.5238 -1.4838 -1.1415
16819TIP3   OH271947   1.246   0.115  14.928 -0.2500 -0.5246 -0.4680
16819TIP3    H171948   1.196   0.189  14.963 -0.7262 -0.9591 -0.2150
16819TIP3    H271949   1.314   0.100  14.993  0.0372 -0.1172 -0.6681
16820TIP3   OH271950   5.596   0.519   4.815 -0.1712 -0.4958 -0.5602
16820TIP3    H171951   5.576   0.592   4.873 -0.3717 -0.6835 -0.3950
16820TIP3    H271952   5.614   0.446   4.874 -0.9556 -0.8384 -0.7493
16821TIP3   OH271953   3.121   1.404   3.156  0.4711 -0.3716 -0.0768
16821TIP3    H171954   3.158   1.337   3.099 -1.1167 -1.4767  0.1599
16821TIP3    H271955   3.102   1.358   3.238  2.2029  1.0630  1.1731
16822TIP3   OH271956   4.435   6.144   2.649 -0.4468 -0.0853  0.1634
16822TIP3    H171957   4.407   6.164   2.738  0.2827  1.5036  0.0560
16822TIP3    H271958   4.430   6.049   2.643 -1.1388 -0.1569  1.6840
16823TIP3   OH271959   3.708   0.633   2.779  0.4191  0.2054 -0.2834
16823TIP3    H171960   3.704   0.673   2.866  1.0542 -0.9843  0.2976
16823TIP3    H271961   3.755   0.551   2.792  1.2871  0.4308 -1.9115
16824TIP3   OH271962   2.630   3.128   3.756  0.5719  0.2468 -0.8514
16824TIP3    H171963   2.677   3.167   3.830 -2.1528  1.0607  0.4995
16824TIP3    H271964   2.664   3.174   3.679  3.8298 -0.9673 -0.2452
16825TIP3   OH271965   6.370   1.248   4.470  0.1731 -0.1470  0.1400
16825TIP3    H171966   6.403   1.253   4.380 -2.0070  0.7220 -0.6484
16825TIP3    H271967   6.425   1.310   4.519  2.5254 -1.9190 -0.1804
16826TIP3   OH271968   2.784   5.210   4.468  0.1781 -0.1205 -0.0093
16826TIP3    H171969   2.839   5.197   4.390 -0.9763 -1.6261 -0.6100
16826TIP3    H271970   2.833   5.169   4.539  0.3026 -0.5822 -0.3544
16827TIP3   OH271971   3.749   0.038   5.710  0.1393 -0.1707  0.0667
16827TIP3    H171972   3.674  -0.021   5.721 -2.5016  3.1858  0.8189
16827TIP3    H271973   3.760   0.045   5.615 -0.9526 -0.1657 -0.0630
16828TIP3   OH271974   5.273   3.328   5.251 -0.1896  0.1889 -0.4952
16828TIP3    H171975   5.266   3.343   5.157  1.5009  0.9248 -0.5261
16828TIP3    H271976   5.191   3.285   5.275 -1.2554  1.3058 -2.0470
16829TIP3   OH271977   0.337   1.972  11.884 -0.7741  0.6544  0.1944
16829TIP3    H171978   0.358   2.062  11.911 -1.1912  0.6828  0.4366
16829TIP3    H271979   0.248   1.958  11.916 -1.1903  0.6004 -0.9780
16830TIP3   OH271980   4.376   2.508   2.136 -0.7759  0.1963  0.4626
16830TIP3    H171981   4.315   2.492   2.208  0.1051 -0.7409  1.0025
16830TIP3    H271982   4.346   2.591   2.098 -3.3712 -1.0317 -0.3063
16831TIP3   OH271983   2.209   2.115  10.816  0.4687 -0.2900 -0.0742
16831TIP3    H171984   2.281   2.062  10.849  0.0103  0.0592  1.5125
16831TIP3    H271985   2.212   2.196  10.867 -1.1529 -0.3411  0.1418
16832TIP3   OH271986   4.192   3.057   3.020 -0.8140 -0.4192  0.2103
16832TIP3    H171987   4.287   3.058   3.010 -0.7829 -0.0334  0.5205
16832TIP3    H271988   4.178   3.071   3.114 -1.1648 -0.9197  0.2331
16833TIP3   OH271989   5.845   1.984  15.931  0.0530 -0.5643  0.5533
16833TIP3    H171990   5.868   2.076  15.917 -2.6755  0.4006  2.0402
16833TIP3    H271991   5.886   1.962  16.014 -0.2207 -0.3436  0.7488
16834TIP3   OH271992   2.189   6.526  15.298 -0.2374 -0.7318 -0.1661
16834TIP3    H171993   2.234   6.563  15.221  0.7826 -1.7965 -0.0891
16834TIP3    H271994   2.111   6.484  15.262 -0.3813 -0.2170 -0.4755
16835TIP3   OH271995   1.531   2.073   0.593 -0.5224  0.2683 -0.2773
16835TIP3    H171996   1.440   2.046   0.599 -0.3634 -0.9624 -2.8860
16835TIP3    H271997   1.580   1.991   0.588  0.6657  0.9424  0.1259
16836TIP3   OH271998   0.935   1.176   0.349  0.2761 -0.6965  0.1296
16836TIP3    H171999   0.896   1.165   0.435  1.3325 -0.3320  0.6648
16836TIP3    H272000   0.950   1.271   0.341  1.5552 -0.8833  0.1730
16837TIP3   OH272001   2.305   5.596  14.554 -0.4121 -0.2915 -0.3299
16837TIP3    H172002   2.384   5.643  14.526 -0.5717  0.2423  0.0937
16837TIP3    H272003   2.235   5.661  14.545 -0.6670 -0.5057  0.0887
16838TIP3   OH272004   3.801   6.580  14.544  0.1499 -0.1613 -0.5231
16838TIP3    H172005   3.841   6.590  14.457  0.1947 -1.1089 -0.6208
16838TIP3    H272006   3.716   6.540  14.526  0.0259 -0.0632 -0.1555
16839TIP3   OH272007   3.174   5.305   1.499 -0.2059 -0.6446  0.5826
16839TIP3    H172008   3.113   5.299   1.425 -1.5513 -1.3125  1.7212
16839TIP3    H272009   3.126   5.353   1.566  2.0041  2.4162  0.0613
16840TIP3   OH272010   2.234   2.664   6.068 -0.1595  0.4004  0.0481
16840TIP3    H172011   2.245   2.633   5.978  2.1133  0.1930  0.3437
16840TIP3    H272012   2.197   2.752   6.059  1.1783  0.8631 -1.1579
16841TIP3   OH272013   4.074   0.428  17.107 -0.3769 -0.0302 -0.2345
16841TIP3    H172014   4.090   0.389  17.022  0.8410 -2.3321  1.0084
16841TIP3    H272015   3.978   0.435  17.113 -0.6118 -2.3843 -0.7179
16842TIP3   OH272016   5.910   0.730  15.107  0.3695 -0.4888  0.2340
16842TIP3    H172017   5.914   0.777  15.024 -0.9047  0.5434  0.7304
16842TIP3    H272018   5.967   0.654  15.095  0.6301 -0.0530 -1.3868
16843TIP3   OH272019   2.806   3.597   1.624 -0.5239  0.1679  0.3754
16843TIP3    H172020   2.856   3.678   1.616 -0.8149  0.2866 -0.2740
16843TIP3    H272021   2.871   3.528   1.617 -0.6661  0.2841 -2.3601
16844TIP3   OH272022   4.964   6.273   6.526  0.0127 -0.5050 -0.6278
16844TIP3    H172023   4.890   6.258   6.467 -0.7488 -1.5224  0.5543
16844TIP3    H272024   4.923   6.284   6.613  1.2696 -1.5281  0.1063
16845TIP3   OH272025   1.593   4.753  13.539 -0.4610  0.4164 -0.2727
16845TIP3    H172026   1.521   4.799  13.582 -0.8960 -0.7023  0.2131
16845TIP3    H272027   1.642   4.822  13.495 -2.2802  1.1270 -1.2710
16846TIP3   OH272028   2.647   3.185  13.131 -0.3593 -0.1036 -0.4820
16846TIP3    H172029   2.670   3.278  13.128 -0.0906 -0.1894 -1.2060
16846TIP3    H272030   2.731   3.141  13.141 -0.4463 -0.2964 -0.6191
16847TIP3   OH272031   4.342   0.889   4.694 -0.0898 -0.6119  0.1240
16847TIP3    H172032   4.356   0.921   4.783 -1.5755  0.1053  0.1146
16847TIP3    H272033   4.253   0.853   4.696 -1.0535  1.5997 -1.6965
16848TIP3   OH272034   0.474   5.778  17.134 -0.1423 -0.6120 -0.0592
16848TIP3    H172035   0.414   5.705  17.150  0.2258 -0.8243  0.4052
16848TIP3    H272036   0.553   5.736  17.099  0.1587 -0.4688  0.4376
16849TIP3   OH272037   6.030   5.019  16.775  0.2231 -0.2911 -0.3322
16849TIP3    H172038   6.072   4.970  16.846 -1.1707  0.7155  1.2212
16849TIP3    H272039   6.102   5.054  16.723  1.2552 -1.1412  0.5171
16850TIP3   OH272040   4.621   5.088   1.546 -0.1240 -0.3064 -0.1740
16850TIP3    H172041   4.656   5.023   1.485 -0.2045 -0.8443  0.3345
16850TIP3    H272042   4.556   5.039   1.598 -0.4252  0.2656 -0.0070
16851TIP3   OH272043   1.415   3.776   0.710 -0.5609 -0.0680 -0.4182
16851TIP3    H172044   1.413   3.871   0.699 -1.9657 -0.0242  0.0833
16851TIP3    H272045   1.363   3.760   0.789  0.2181 -1.2107 -0.1083
16852TIP3   OH272046   0.654   0.944  16.467  0.6395 -0.2666  0.9076
16852TIP3    H172047   0.579   0.998  16.493  0.3036 -0.0437 -0.4875
16852TIP3    H272048   0.684   0.904  16.549 -1.5668 -1.0928  1.3332
16853TIP3   OH272049   4.687   5.432  15.307  0.3840  0.0269  0.6355
16853TIP3    H172050   4.643   5.381  15.374  0.1649 -1.1264 -0.3717
16853TIP3    H272051   4.665   5.388  15.225  1.6384  0.7011 -0.0780
16854TIP3   OH272052   2.338   2.489  15.360 -0.5914 -0.5471 -0.1513
16854TIP3    H172053   2.337   2.419  15.425  0.5297 -0.8316 -0.4348
16854TIP3    H272054   2.329   2.444  15.276 -0.6293 -0.2826 -0.2905
16855TIP3   OH272055   6.368   5.480   3.366  0.1414 -0.2597 -0.0657
16855TIP3    H172056   6.428   5.406   3.373 -1.0456 -1.6425 -3.4657
16855TIP3    H272057   6.286   5.442   3.334 -1.1377  2.2497  0.0621
16856TIP3   OH272058   5.492   2.246  11.572  0.2868  0.1733 -1.1194
16856TIP3    H172059   5.434   2.247  11.496  1.0662  1.0852 -1.7175
16856TIP3    H272060   5.579   2.266  11.536  0.7274  0.2186 -0.0507
16857TIP3   OH272061   3.215   0.518  12.755 -0.0125  0.3748  0.6542
16857TIP3    H172062   3.304   0.540  12.782 -0.1282  0.3516  1.0594
16857TIP3    H272063   3.159   0.580  12.803 -0.0480  2.2273 -1.6572
16858TIP3   OH272064   0.113   4.844  12.434 -0.0262 -0.3404 -0.5496
16858TIP3    H172065   0.121   4.939  12.427 -0.5943 -0.1787  0.7310
16858TIP3    H272066   0.092   4.815  12.346 -0.1523  0.7658 -0.8911
16859TIP3   OH272067   5.914   6.230  11.970 -0.5397 -0.3485 -0.1249
16859TIP3    H172068   5.941   6.191  11.887  2.4128 -0.4419  0.8291
16859TIP3    H272069   5.893   6.156  12.026 -0.7686 -0.3526 -0.2172
16860TIP3   OH272070   3.568   4.816   4.115 -0.5300 -0.4060 -0.2318
16860TIP3    H172071   3.527   4.729   4.113  0.0378 -0.6742 -1.4166
16860TIP3    H272072   3.658   4.799   4.087 -0.0807  0.4028  0.7261
16861TIP3   OH272073   0.287   1.351   3.166 -0.2237  0.2389  0.6589
16861TIP3    H172074   0.324   1.290   3.230  0.1249 -0.8463 -0.5520
16861TIP3    H272075   0.340   1.430   3.175  0.2855 -0.1628  1.2173
16862TIP3   OH272076   5.092   0.509  16.365  0.4358  0.4325  0.0693
16862TIP3    H172077   5.186   0.515  16.349  0.7786 -0.4682  1.6124
16862TIP3    H272078   5.068   0.422  16.333  0.4719 -0.0266  1.2760
16863TIP3   OH272079   3.140   5.901  16.010  0.6409  1.1224  0.5593
16863TIP3    H172080   3.171   5.814  16.034  0.0119  0.4155 -1.1057
16863TIP3    H272081   3.105   5.937  16.091 -0.1592 -0.6477  1.0307
16864TIP3   OH272082   5.317   3.561   5.810  0.5684 -0.2106  0.2060
16864TIP3    H172083   5.379   3.520   5.750  0.1615 -1.9498  0.9628
16864TIP3    H272084   5.372   3.608   5.873  0.9856  2.0765 -1.8053
16865TIP3   OH272085   0.533   3.772  10.217  0.8567 -0.3491 -0.2444
16865TIP3    H172086   0.449   3.788  10.174 -0.1603 -0.3991  1.6804
16865TIP3    H272087   0.579   3.856  10.213 -0.4598  0.4708  1.1626
16866TIP3   OH272088   2.283   6.578  10.678  0.1051  0.8368  0.4825
16866TIP3    H172089   2.348   6.637  10.640 -2.3429  2.5462 -1.2011
16866TIP3    H272090   2.303   6.492  10.641  0.3066  1.7104 -1.4609
16867TIP3   OH272091   0.635   1.214  16.945 -0.4458  0.5324 -0.0998
16867TIP3    H172092   0.634   1.308  16.926 -0.9234  0.8581  1.4896
16867TIP3    H272093   0.605   1.207  17.035 -0.7052 -1.1823 -0.2991
16868TIP3   OH272094   0.937   1.430  13.205  0.2602  0.2978  0.7277
16868TIP3    H172095   0.933   1.497  13.274 -0.9540 -0.0008  0.9638
16868TIP3    H272096   0.901   1.351  13.247  1.0809 -0.3329  0.2576
16869TIP3   OH272097   5.181   2.201   1.627  0.7240 -0.6736  0.1907
16869TIP3    H172098   5.102   2.243   1.663  1.0928  2.3329 -2.3182
16869TIP3    H272099   5.251   2.226   1.687  0.2608 -1.0962  0.9223
16870TIP3   OH272100   6.565   6.815   5.181  0.1213  0.6750 -0.0124
16870TIP3    H172101   6.478   6.825   5.143 -1.7875 -2.1997  3.2865
16870TIP3    H272102   6.590   6.725   5.160  1.1962  0.6720  1.2266
16871TIP3   OH272103   1.978   5.931   3.314 -0.6935  0.1742  0.2765
16871TIP3    H172104   1.999   6.020   3.340 -0.5781  0.6580 -1.4267
16871TIP3    H272105   2.031   5.876   3.372 -0.9626  1.1863  1.5099
16872TIP3   OH272106   1.682   3.831  14.049 -0.3114 -0.0658  0.5950
16872TIP3    H172107   1.676   3.881  13.968 -0.7916 -3.1429 -1.3858
16872TIP3    H272108   1.609   3.862  14.102 -0.8471  1.0380 -0.7564
16873TIP3   OH272109   0.575   4.206   5.443 -0.0693  0.0839 -0.0008
16873TIP3    H172110   0.592   4.151   5.366  0.5863  0.7760 -0.3555
16873TIP3    H272111   0.529   4.148   5.504  1.9920 -1.3260  0.2755
16874TIP3   OH272112   6.411   5.250  14.149  0.8753 -0.5931  0.0637
16874TIP3    H172113   6.447   5.270  14.063  0.2112  0.5644  0.0486
16874TIP3    H272114   6.343   5.184  14.132 -0.2424  0.6865 -0.4848
16875TIP3   OH272115   6.038   1.684  12.544  0.2763  0.2899  0.0843
16875TIP3    H172116   5.984   1.633  12.604 -0.3520  0.1496 -0.5912
16875TIP3    H272117   6.128   1.668  12.574 -0.1056  1.3900  1.8646
16876TIP3   OH272118   2.498   0.691   5.713  0.1551 -0.4595 -0.1925
16876TIP3    H172119   2.571   0.701   5.652  1.6281  2.2105  1.9273
16876TIP3    H272120   2.472   0.781   5.734 -2.1889 -1.3551  0.9516
16877TIP3   OH272121   6.342   4.776  15.609 -0.2107  0.3603  0.1451
16877TIP3    H172122   6.301   4.764  15.524 -1.2225 -1.3546  0.8458
16877TIP3    H272123   6.435   4.789  15.590 -0.3008 -0.8830 -1.1720
16878TIP3   OH272124   0.648   4.624   1.633  0.5574  0.2799  0.3007
16878TIP3    H172125   0.658   4.701   1.689 -3.4880  1.2925 -0.2193
16878TIP3    H272126   0.590   4.652   1.563  0.9885 -2.5772 -1.2915
16879TIP3   OH272127   3.541   0.949  11.570  0.3326  0.0742  0.0611
16879TIP3    H172128   3.468   1.002  11.537  0.4955 -0.1444 -0.6653
16879TIP3    H272129   3.508   0.859  11.565 -1.2202  0.2699  4.4716
16880TIP3   OH272130   3.731   5.448   0.570  0.1464 -0.0702 -0.0235
16880TIP3    H172131   3.798   5.512   0.546  0.4742 -0.1808  0.5551
16880TIP3    H272132   3.651   5.478   0.527 -0.1996  1.8700  1.8823
16881TIP3   OH272133   0.275   5.953  14.262 -0.0770  0.3815 -0.3137
16881TIP3    H172134   0.276   5.955  14.358 -1.9005  0.2887 -0.2647
16881TIP3    H272135   0.256   6.043  14.236 -0.1207  0.3015 -0.5687
16882TIP3   OH272136   6.115   6.669  15.415 -0.3316 -0.6698  0.6433
16882TIP3    H172137   6.112   6.739  15.481 -1.0339 -1.0981  1.0755
16882TIP3    H272138   6.206   6.667  15.387 -0.0130 -0.4878  1.6209
16883TIP3   OH272139   3.218   5.024   3.082 -0.0197 -0.7039  0.1494
16883TIP3    H172140   3.206   5.113   3.049 -0.6772 -1.1210 -0.7574
16883TIP3    H272141   3.307   5.024   3.119  0.8724 -0.3037 -1.9202
16884TIP3   OH272142   3.387   5.155  12.953  0.1134  0.2354  0.0630
16884TIP3    H172143   3.473   5.115  12.964  0.9150  1.6536 -1.0272
16884TIP3    H272144   3.381   5.176  12.860 -0.8486  1.4146  0.3789
16885TIP3   OH272145   5.022   3.272   5.227 -0.6493  0.0363 -0.1089
16885TIP3    H172146   5.018   3.366   5.243  2.0918  0.4573 -1.4266
16885TIP3    H272147   4.983   3.261   5.140  2.2847  0.5496 -1.5872
16886TIP3   OH272148   2.168   0.982  14.051 -0.3937 -0.5523  0.0738
16886TIP3    H172149   2.155   0.961  14.143  2.1787 -1.1134  0.3273
16886TIP3    H272150   2.151   0.900  14.005 -0.9486 -0.4518  0.0892
16887TIP3   OH272151   1.200   2.031   3.820  0.6253  0.1687 -0.1454
16887TIP3    H172152   1.260   1.957   3.814  0.6462  0.2130 -0.4977
16887TIP3    H272153   1.116   1.996   3.791  0.7938  0.4626 -1.0083
16888TIP3   OH272154   4.679   6.711   6.815  0.5340 -0.2655  0.3772
16888TIP3    H172155   4.597   6.696   6.861  0.7420 -0.4184  0.7064
16888TIP3    H272156   4.717   6.788   6.858  0.5339 -0.1601  0.1871
16889TIP3   OH272157   3.956   3.832   3.540  0.2180  0.0130  0.3983
16889TIP3    H172158   3.989   3.848   3.628 -0.6803  0.2804  0.6927
16889TIP3    H272159   3.864   3.857   3.544 -0.5842 -2.7405  0.1620
16890TIP3   OH272160   6.360   5.756  15.745 -0.6737  0.6225  0.3437
16890TIP3    H172161   6.407   5.797  15.819  1.2448  3.2646 -2.2221
16890TIP3    H272162   6.417   5.684  15.718 -0.3947  0.9041  0.1795
16891TIP3   OH272163   4.153   5.626   4.945 -0.3015 -0.1620 -0.0734
16891TIP3    H172164   4.238   5.671   4.956 -0.6299  0.5625 -0.4093
16891TIP3    H272165   4.132   5.639   4.852 -0.7421 -0.4029 -0.0071
16892TIP3   OH272166   6.611   2.237  13.121  0.0697  0.2312 -0.6736
16892TIP3    H172167   6.691   2.242  13.172  1.1466 -3.1573 -1.9146
16892TIP3    H272168   6.640   2.235  13.030 -1.4030 -1.1340 -1.1432
16893TIP3   OH272169   3.104   2.030  15.733  0.1121  0.2404 -0.3366
16893TIP3    H172170   3.199   2.038  15.746  0.1419  3.5496 -2.0173
16893TIP3    H272171   3.068   2.027  15.821  1.6263  1.8357  0.3772
16894TIP3   OH272172   6.764   2.482   1.485 -0.1847 -0.0837  0.3488
16894TIP3    H172173   6.855   2.508   1.493 -0.3054  0.5920 -0.4320
16894TIP3    H272174   6.759   2.439   1.399 -0.3147 -1.3259  0.9620
16895TIP3   OH272175   3.188   3.907   4.617  0.5016 -0.4880 -0.7174
16895TIP3    H172176   3.161   3.896   4.709  2.1229  1.6632  0.0574
16895TIP3    H272177   3.277   3.944   4.623 -0.1299  1.5104 -3.1417
16896TIP3   OH272178   3.859   0.294   4.827  0.0697  0.8607  0.2160
16896TIP3    H172179   3.791   0.273   4.891  0.1948  0.2874  0.1634
16896TIP3    H272180   3.890   0.381   4.853 -1.4260  1.6022 -0.3981
16897TIP3   OH272181   2.138   6.476   0.459  0.3627 -0.2953  0.7746
16897TIP3    H172182   2.163   6.548   0.517 -2.6159 -1.6388  3.8853
16897TIP3    H272183   2.070   6.513   0.403  1.5819  0.3454 -0.3146
16898TIP3   OH272184   6.460   4.908  15.229  0.5497 -0.1573 -0.2112
16898TIP3    H172185   6.498   4.993  15.251 -0.3633  0.7004 -1.8417
16898TIP3    H272186   6.531   4.845  15.244  1.1962  0.8697  1.1207
16899TIP3   OH272187   2.840   4.761  13.610 -0.2600 -0.1498  0.1927
16899TIP3    H172188   2.747   4.749  13.595 -0.3891 -0.4769  1.2001
16899TIP3    H272189   2.882   4.696  13.554 -0.5085  1.8282 -2.3378
16900TIP3   OH272190   2.117   0.635   0.468 -0.3781  0.4189 -0.1623
16900TIP3    H172191   2.031   0.629   0.427 -0.2288  1.9951 -0.7536
16900TIP3    H272192   2.160   0.707   0.423  0.5809  0.8347  1.3617
16901TIP3   OH272193   4.274   1.786   5.968  0.1722 -0.1969  0.4464
16901TIP3    H172194   4.285   1.709   6.024 -0.5074  0.3394  1.3248
16901TIP3    H272195   4.277   1.860   6.028  1.1263  0.4848 -0.4366
16902TIP3   OH272196   6.594   5.841  15.866  0.7597  0.4778 -0.2275
16902TIP3    H172197   6.595   5.848  15.962 -4.7460 -0.3163  0.0357
16902TIP3    H272198   6.590   5.931  15.836 -0.1767  0.6580  0.4104
16903TIP3   OH272199   1.328   5.670   5.396  0.5653  0.0626 -0.2052
16903TIP3    H172200   1.262   5.670   5.328 -0.1242  0.0646  0.4613
16903TIP3    H272201   1.288   5.717   5.469  1.0073 -0.6125  0.4797
16904TIP3   OH272202   5.520   3.713  16.896 -0.1744 -0.1353 -0.2294
16904TIP3    H172203   5.601   3.667  16.878  0.6442  1.3507 -0.4315
16904TIP3    H272204   5.542   3.773  16.967 -0.4797  1.8819 -1.8072
16905TIP3   OH272205   3.844   2.936  11.779 -0.1842 -0.9659  0.0191
16905TIP3    H172206   3.896   2.904  11.706  0.5405  1.0507 -0.3822
16905TIP3    H272207   3.909   2.972  11.840 -0.8290 -2.0113  1.3483
16906TIP3   OH272208   1.651   0.640  11.798  0.0136  0.8166 -0.5988
16906TIP3    H172209   1.604   0.573  11.749 -3.5927  3.0853 -0.3849
16906TIP3    H272210   1.654   0.605  11.888 -0.4879  0.2722 -0.7910
16907TIP3   OH272211   2.410   6.603   1.994  0.0131  0.9139  0.0906
16907TIP3    H172212   2.447   6.551   1.922  0.3241  0.7019  0.4004
16907TIP3    H272213   2.358   6.671   1.950  0.4418  0.9701 -0.3481
16908TIP3   OH272214   2.791   0.087   4.323 -0.5132  0.0344 -0.0911
16908TIP3    H172215   2.831   0.129   4.247  1.0019 -1.3292 -0.0688
16908TIP3    H272216   2.713   0.140   4.341 -0.5552  0.7491 -2.2035
16909TIP3   OH272217   2.180   5.157   4.458 -0.2959 -0.3776  0.1733
16909TIP3    H172218   2.254   5.202   4.418 -1.0171  2.5906  2.0464
16909TIP3    H272219   2.219   5.107   4.530  0.4057 -2.3039 -1.4781
16910TIP3   OH272220   1.248   5.585  15.295 -0.0342  0.6052 -0.4463
16910TIP3    H172221   1.197   5.632  15.229 -1.4687 -0.5805 -0.2095
16910TIP3    H272222   1.321   5.548  15.246 -0.9627 -0.0692 -1.3494
16911TIP3   OH272223   1.813   2.414   6.308  0.1925 -0.4516  0.5171
16911TIP3    H172224   1.885   2.354   6.323  1.0809  0.8373  1.5298
16911TIP3    H272225   1.763   2.413   6.389  0.0887 -0.0098  0.4651
16912TIP3   OH272226   4.715   2.712  13.645  0.4538  0.6244 -0.2793
16912TIP3    H172227   4.805   2.678  13.643  0.0993 -0.5170  1.9202
16912TIP3    H272228   4.702   2.741  13.735 -1.5466  0.3198 -0.4422
16913TIP3   OH272229   1.333   1.371  15.450  0.0639 -0.5255 -0.0426
16913TIP3    H172230   1.268   1.314  15.411  1.6325 -2.6034  0.2782
16913TIP3    H272231   1.288   1.413  15.523 -2.1995  1.5660 -2.5360
16914TIP3   OH272232   0.654   4.722  15.995 -0.2083 -0.5569  0.1905
16914TIP3    H172233   0.611   4.733  15.911 -0.9761 -0.7793  0.5477
16914TIP3    H272234   0.661   4.811  16.030 -0.5698 -0.5386  0.2208
16915TIP3   OH272235   2.833   0.338   4.630 -0.7049 -0.1691  0.3279
16915TIP3    H172236   2.877   0.324   4.546  1.1660  0.7955  1.1155
16915TIP3    H272237   2.870   0.270   4.687 -0.1694  0.7100  1.0237
16916TIP3   OH272238   2.421   1.767  14.073 -0.2208  0.1201  0.0400
16916TIP3    H172239   2.505   1.732  14.043 -0.3426 -0.3126  0.1963
16916TIP3    H272240   2.374   1.690  14.106 -0.8978  0.2726 -0.5625
16917TIP3   OH272241   2.645   0.163   0.713 -0.1109 -0.0215  0.8294
16917TIP3    H172242   2.589   0.128   0.644  0.4637 -0.8808  0.7934
16917TIP3    H272243   2.584   0.196   0.779 -0.6596  0.1415  0.2445
16918TIP3   OH272244   0.865   4.298  11.751 -0.3553 -0.1793  0.3619
16918TIP3    H172245   0.942   4.270  11.799  0.6326  1.6278 -0.1145
16918TIP3    H272246   0.900   4.347  11.676 -1.9095 -1.2609 -1.1046
16919TIP3   OH272247   2.018   3.074  12.934  0.0136  0.6779 -0.8680
16919TIP3    H172248   1.973   3.058  13.016  2.2972  0.1407  0.3310
16919TIP3    H272249   1.983   3.009  12.873  0.0060 -0.4835  0.3614
16920TIP3   OH272250   0.908   1.060   3.527  0.5224  0.0537 -0.0314
16920TIP3    H172251   0.826   1.017   3.548  1.5980 -2.2402 -0.3417
16920TIP3    H272252   0.932   1.024   3.441  1.3799  1.4065 -0.3731
16921TIP3   OH272253   2.244   3.133  13.083 -0.2206  0.5109 -0.4391
16921TIP3    H172254   2.168   3.137  13.025 -0.1855  1.4145 -0.4386
16921TIP3    H272255   2.268   3.041  13.086 -2.6473 -0.1165  1.2788
16922TIP3   OH272256   4.778   0.704  12.509  0.0711 -0.4234  0.2458
16922TIP3    H172257   4.767   0.761  12.433  3.0339 -1.7468 -1.2627
16922TIP3    H272258   4.760   0.760  12.584 -1.4288  1.3104 -1.3519
16923TIP3   OH272259   0.793   0.625  14.292  0.3640  0.0595 -0.6868
16923TIP3    H172260   0.807   0.643  14.385 -1.4554 -2.0547  0.0468
16923TIP3    H272261   0.763   0.708  14.256 -1.6376  0.2149  1.2201
16924TIP3   OH272262   3.886   4.122   6.205 -0.7764 -0.6760  0.2227
16924TIP3    H172263   3.840   4.134   6.288  0.3866  1.5840  0.6064
16924TIP3    H272264   3.952   4.055   6.224 -0.0213  0.3563  1.3790
16925TIP3   OH272265   0.207   3.585  11.473  0.0753  0.0432  0.2115
16925TIP3    H172266   0.183   3.656  11.413  0.6749 -1.6239 -2.1008
16925TIP3    H272267   0.291   3.611  11.509 -0.2108  0.9982  0.2060
16926TIP3   OH272268   2.815   0.783   5.298 -0.2835  0.2758 -0.6800
16926TIP3    H172269   2.824   0.722   5.225 -0.3640 -0.6176  0.0423
16926TIP3    H272270   2.843   0.867   5.263  3.5058 -0.8879 -0.6898
16927TIP3   OH272271   3.790   4.963  14.914  0.0919 -0.1986  0.6229
16927TIP3    H172272   3.767   4.912  14.992  0.5967  1.3678  1.8262
16927TIP3    H272273   3.886   4.959  14.910  0.0224 -1.1845 -0.5758
16928TIP3   OH272274   0.130   0.391  13.171  0.2939  0.2345  0.1100
16928TIP3    H172275   0.161   0.341  13.246  1.1780  0.4590 -0.1059
16928TIP3    H272276   0.089   0.325  13.114 -0.0169  0.0061  0.5966
16929TIP3   OH272277   2.967   5.311   2.744 -0.3750  0.3545  0.1342
16929TIP3    H172278   2.965   5.322   2.839  1.8981 -3.4734  0.7402
16929TIP3    H272279   3.021   5.383   2.712  1.4665 -0.1128  2.1188
16930TIP3   OH272280   2.196   3.089  13.609  0.0826  0.2890  0.2112
16930TIP3    H172281   2.104   3.111  13.597 -0.2003 -0.3246  1.1305
16930TIP3    H272282   2.210   3.014  13.552 -0.3665 -0.4926  1.1027
16931TIP3   OH272283   1.579   1.114  13.639 -0.1719 -0.0051 -0.4075
16931TIP3    H172284   1.620   1.177  13.699  1.0854 -0.6458 -0.5917
16931TIP3    H272285   1.521   1.168  13.584 -1.6608  0.5351  1.6347
16932TIP3   OH272286   4.576   4.856  16.255 -0.1734  0.0387  0.2299
16932TIP3    H172287   4.597   4.934  16.204  0.3228  1.1923  2.1800
16932TIP3    H272288   4.627   4.786  16.213 -0.5858  0.7405 -1.4967
16933TIP3   OH272289   0.617   2.220  14.975 -0.4092  0.1078 -0.1619
16933TIP3    H172290   0.626   2.125  14.983  0.2346  0.1867  0.0797
16933TIP3    H272291   0.706   2.253  14.986 -0.6535  0.7501 -0.1137
16934TIP3   OH272292   6.388   2.547   5.910 -1.0222 -0.2135 -0.0700
16934TIP3    H172293   6.302   2.565   5.874 -1.0431 -0.3726 -0.1024
16934TIP3    H272294   6.433   2.632   5.911 -1.2509 -0.0937  0.1383
16935TIP3   OH272295   0.568   0.106  15.161 -0.8726  0.2145  0.0657
16935TIP3    H172296   0.534   0.188  15.195  0.0209  0.7110 -0.2109
16935TIP3    H272297   0.533   0.100  15.072 -0.1863  0.7654 -0.2489
16936TIP3   OH272298   2.595   2.849   3.732  0.3183  0.1240  0.1101
16936TIP3    H172299   2.686   2.820   3.736  0.3829  0.4118  0.8258
16936TIP3    H272300   2.600   2.939   3.700  0.3552  0.4450  1.0018
16937TIP3   OH272301   2.819   0.969  11.331  0.0286 -0.2864 -0.6310
16937TIP3    H172302   2.759   0.936  11.397  1.7113  0.6670  1.4310
16937TIP3    H272303   2.773   0.956  11.248 -1.2032 -3.5780  0.4963
16938TIP3   OH272304   5.753   0.856   0.322 -0.2211  0.1265  0.0991
16938TIP3    H172305   5.745   0.845   0.417 -0.4291  0.9022  0.1771
16938TIP3    H272306   5.664   0.841   0.289 -0.2261  0.2260  0.0672
16939TIP3   OH272307   0.351   5.913  10.689  0.3183  0.3149 -0.2342
16939TIP3    H172308   0.314   5.966  10.759 -1.9957  0.6270 -1.6401
16939TIP3    H272309   0.435   5.955  10.668 -1.1347  3.0319 -0.8433
16940TIP3   OH272310   1.930   5.445  11.446 -0.4443  0.6006 -0.1639
16940TIP3    H172311   1.963   5.446  11.536  1.0626  0.2221 -0.6939
16940TIP3    H272312   1.878   5.525  11.439 -1.0858  0.3182  1.2314
16941TIP3   OH272313   5.307   6.703  14.638 -0.1718  0.6432  0.4779
16941TIP3    H172314   5.397   6.725  14.664 -0.2706 -0.9328  2.2654
16941TIP3    H272315   5.259   6.701  14.721 -1.4919 -0.1405 -0.3084
16942TIP3   OH272316   4.474   3.311   2.745 -0.4057  0.4574 -0.1035
16942TIP3    H172317   4.522   3.229   2.732 -1.6011 -0.1968 -0.5230
16942TIP3    H272318   4.500   3.366   2.672 -2.4386 -0.9568 -1.9598
16943TIP3   OH272319   4.401   1.759   2.062  0.0869 -0.3053 -0.1563
16943TIP3    H172320   4.313   1.753   2.099  0.3691  0.0237  0.5804
16943TIP3    H272321   4.454   1.701   2.116  0.8722  1.5611  1.1093
16944TIP3   OH272322   5.378   3.043   6.086  0.9139  0.1137 -0.2833
16944TIP3    H172323   5.330   2.963   6.066  0.3507  0.6572 -1.1550
16944TIP3    H272324   5.359   3.060   6.178  0.9067 -0.6672 -0.1383
16945TIP3   OH272325   6.249   2.050   5.469 -0.4184  0.8986  0.7149
16945TIP3    H172326   6.315   2.106   5.509  1.3251 -1.0880  0.6899
16945TIP3    H272327   6.270   2.050   5.376  1.1803 -1.7733  1.0235
16946TIP3   OH272328   2.347   5.935   6.442 -0.1725 -0.2304  0.1617
16946TIP3    H172329   2.401   5.858   6.423 -0.2154 -0.4226  0.8162
16946TIP3    H272330   2.343   5.938   6.538 -0.8078  0.1475  0.1205
16947TIP3   OH272331   2.087   0.529  10.815  0.5421  0.0100  0.1081
16947TIP3    H172332   2.166   0.555  10.769  0.3635  0.5607  0.1037
16947TIP3    H272333   2.046   0.463  10.759  0.3811  0.6023 -0.4702
16948TIP3   OH272334   6.705   1.079   4.470 -0.6006  0.3099  0.1032
16948TIP3    H172335   6.770   1.017   4.438 -1.8038  0.0234 -1.9168
16948TIP3    H272336   6.643   1.025   4.519 -0.0985  0.3654  0.8058
16949TIP3   OH272337   2.951   4.442  17.000  0.1862 -0.5626  0.1723
16949TIP3    H172338   2.957   4.355  16.960  0.3228 -0.1464 -0.7129
16949TIP3    H272339   2.872   4.480  16.963  0.1770 -0.2683  0.4901
16950TIP3   OH272340   1.922   6.202   0.092 -0.4767  0.5452  0.2340
16950TIP3    H172341   1.975   6.264   0.044 -0.3438  0.0125 -0.3144
16950TIP3    H272342   1.984   6.135   0.122 -0.6110  0.6907  0.8481
16951TIP3   OH272343   3.669   3.525   3.489 -0.3562  0.1622  0.3857
16951TIP3    H172344   3.663   3.507   3.396 -0.4440  1.8268  0.0468
16951TIP3    H272345   3.755   3.491   3.515  0.5152  1.4549 -0.7397
16952TIP3   OH272346   6.028   3.443  13.911  0.8266  0.2285  1.0019
16952TIP3    H172347   6.057   3.477  13.996 -0.0349  0.4114  1.2216
16952TIP3    H272348   5.946   3.398  13.930  1.7893 -1.7506  0.6746
16953TIP3   OH272349   5.000   1.900   6.421 -0.3975  0.1215 -0.3255
16953TIP3    H172350   5.094   1.902   6.437 -0.6662 -1.1848  1.5126
16953TIP3    H272351   4.983   1.813   6.384 -0.6154  1.0566 -2.4876
16954TIP3   OH272352   3.050   1.001   0.416  0.3309 -0.2573  0.4340
16954TIP3    H172353   3.084   1.035   0.499  1.1922 -0.5498  0.2073
16954TIP3    H272354   3.126   0.961   0.373 -0.1470 -0.2769 -0.4125
16955TIP3   OH272355   2.748   2.387  12.300 -0.2752 -0.3107 -0.0985
16955TIP3    H172356   2.793   2.465  12.332 -0.3549 -1.1199  2.0782
16955TIP3    H272357   2.661   2.417  12.275  0.4889  0.7257 -1.6164
16956TIP3   OH272358   1.229   1.008  12.606  0.5162  0.4742 -0.1265
16956TIP3    H172359   1.299   0.947  12.630  1.1209  1.1793 -0.0703
16956TIP3    H272360   1.238   1.018  12.511 -0.5910 -0.7486 -0.3641
16957TIP3   OH272361   2.702   0.539  11.707 -0.1919 -0.9742 -0.3910
16957TIP3    H172362   2.704   0.587  11.624  0.2563 -0.4080 -0.0577
16957TIP3    H272363   2.660   0.456  11.686 -3.0411  0.4373 -0.5119
16958TIP3   OH272364   5.036   6.558  14.071 -0.2899 -0.1729 -0.7292
16958TIP3    H172365   5.061   6.629  14.130  0.0271  1.3876 -2.6683
16958TIP3    H272366   5.011   6.486  14.129 -1.7135  1.8847  1.3078
16959TIP3   OH272367   4.955   0.858  12.842 -0.3003  0.3199 -0.4233
16959TIP3    H172368   4.999   0.927  12.893 -0.9649  0.0724  0.5043
16959TIP3    H272369   5.023   0.824  12.784  0.5578  0.3965  0.5219
16960TIP3   OH272370   5.015   0.197  14.284  0.2366 -0.2795  0.5235
16960TIP3    H172371   5.100   0.213  14.327  0.3771 -0.7768  0.4355
16960TIP3    H272372   4.982   0.284  14.264  0.5127 -0.0630  0.9831
16961TIP3   OH272373   6.282   1.074   3.086 -0.1978  0.2566 -0.1728
16961TIP3    H172374   6.223   1.028   3.145  0.1236 -0.1018 -0.1254
16961TIP3    H272375   6.315   1.006   3.027 -0.4327  0.5939 -0.6983
16962TIP3   OH272376   1.520   4.840  14.285 -0.1675  0.3712  0.0892
16962TIP3    H172377   1.483   4.852  14.372  0.3428 -1.2028  0.5487
16962TIP3    H272378   1.448   4.862  14.225 -0.0291  3.0229  0.8550
16963TIP3   OH272379   0.390   1.551  15.533  0.0962  0.0227  0.2460
16963TIP3    H172380   0.485   1.553  15.518  0.1862 -0.0539  0.7642
16963TIP3    H272381   0.352   1.592  15.456  0.6101  0.9519  0.4705
16964TIP3   OH272382   0.229   2.611  10.407  0.0128  0.4204 -0.1803
16964TIP3    H172383   0.291   2.543  10.432  0.3453  0.6775 -0.2989
16964TIP3    H272384   0.145   2.582  10.442  0.1784  0.0100 -0.1278
16965TIP3   OH272385   0.133   6.469  14.781  0.5904 -0.0303 -0.2672
16965TIP3    H172386   0.186   6.391  14.761  1.2155  0.4432 -0.4626
16965TIP3    H272387   0.048   6.434  14.809  0.9577 -0.7887 -0.1002
16966TIP3   OH272388   6.492   1.407  12.388 -0.1081 -0.0213 -0.2258
16966TIP3    H172389   6.495   1.498  12.359 -0.2037 -0.3855 -1.4029
16966TIP3    H272390   6.488   1.413  12.484  2.2621  1.1561 -0.1510
16967TIP3   OH272391   4.740   5.052  14.627 -0.2584  0.2378  0.3652
16967TIP3    H172392   4.741   5.093  14.714 -0.2969  2.2796 -0.5921
16967TIP3    H272393   4.654   5.010  14.623 -1.2585  2.2370  0.3691
16968TIP3   OH272394   3.205   4.108  11.821 -0.6330  0.2503  0.3628
16968TIP3    H172395   3.114   4.134  11.830 -0.3960  1.3701 -0.4268
16968TIP3    H272396   3.237   4.158  11.746 -0.2917 -2.6023 -1.4654
16969TIP3   OH272397   0.373   3.427  14.402  0.7208  0.0931  0.3257
16969TIP3    H172398   0.306   3.495  14.403 -0.2123 -0.8224  0.1270
16969TIP3    H272399   0.360   3.382  14.318  0.1911 -1.4710  1.2284
16970TIP3   OH272400   3.651   5.896   0.752 -0.0263  0.7322 -0.0017
16970TIP3    H172401   3.733   5.937   0.780 -1.5355  3.3694  0.7125
16970TIP3    H272402   3.588   5.920   0.819 -1.3748 -1.4155 -0.4537
16971TIP3   OH272403   0.847   3.474   2.165  0.5084 -0.2288  0.6100
16971TIP3    H172404   0.799   3.474   2.247 -1.1356 -0.2332 -0.3302
16971TIP3    H272405   0.925   3.526   2.182  0.6393 -0.9843  2.4170
16972TIP3   OH272406   6.185   1.478   0.515 -0.2672  0.5945 -0.4700
16972TIP3    H172407   6.213   1.399   0.561  2.4823  1.4748 -0.5467
16972TIP3    H272408   6.185   1.453   0.422  2.5918  1.1908 -0.6796
16973TIP3   OH272409   4.004   5.257  13.978 -0.2173  0.9655  0.6986
16973TIP3    H172410   3.968   5.323  13.919  0.7676  0.8637 -0.0212
16973TIP3    H272411   4.083   5.298  14.014  0.5833  0.0511 -0.0109
16974TIP3   OH272412   0.137   6.162   2.654  0.2438  0.7822 -0.2323
16974TIP3    H172413   0.223   6.198   2.678  0.0021  0.6920  0.7988
16974TIP3    H272414   0.074   6.225   2.690 -0.2089 -1.1161  2.3878
16975TIP3   OH272415   1.259   2.743  15.463 -0.0177 -0.1735 -0.3583
16975TIP3    H172416   1.306   2.661  15.449 -0.3998 -0.2340 -1.3652
16975TIP3    H272417   1.201   2.750  15.387  0.0888  1.0789 -0.3299
16976TIP3   OH272418   3.586   3.058  15.900  0.3885 -0.6395  0.5191
16976TIP3    H172419   3.496   3.090  15.890  0.6940 -0.1839 -0.8595
16976TIP3    H272420   3.578   2.985  15.961 -0.6866  0.3960  1.6594
16977TIP3   OH272421   1.987   5.371   4.353  0.6360 -0.0181  0.1195
16977TIP3    H172422   2.024   5.429   4.287 -0.7438  0.3634 -0.3128
16977TIP3    H272423   2.051   5.374   4.425  1.0695  1.2412 -0.3013
16978TIP3   OH272424   0.271   5.837  16.150  0.0623  0.3374  0.2986
16978TIP3    H172425   0.264   5.928  16.179  1.1178  0.3927  0.3949
16978TIP3    H272426   0.196   5.825  16.092 -1.2098  0.6735  1.8238
16979TIP3   OH272427   1.309   1.132   5.806 -0.3711  0.2372 -0.1479
16979TIP3    H172428   1.353   1.050   5.829 -0.4613  0.1201 -0.3947
16979TIP3    H272429   1.244   1.107   5.740 -1.3785  0.2800  0.8157
16980TIP3   OH272430   4.937   2.564  13.671  0.2825  0.2078  0.0969
16980TIP3    H172431   4.948   2.565  13.766  0.0543 -0.0503  0.1275
16980TIP3    H272432   5.020   2.596  13.637  0.6998 -0.6019  0.3515
16981TIP3   OH272433   0.541   6.192  15.040  0.0720  0.2744  0.1115
16981TIP3    H172434   0.629   6.177  15.005  0.3630  1.7510  0.1914
16981TIP3    H272435   0.484   6.140  14.983  1.1381 -2.0882  1.1036
16982TIP3   OH272436   3.935   5.562   4.157  0.2063 -0.3681  0.0232
16982TIP3    H172437   3.918   5.479   4.113 -0.4464 -0.0315 -0.3579
16982TIP3    H272438   4.014   5.545   4.209  0.0472 -1.2395 -0.0093
16983TIP3   OH272439   3.289   3.512  11.580  0.0679 -0.6175 -0.5770
16983TIP3    H172440   3.225   3.527  11.650  0.1486  0.9607 -0.8086
16983TIP3    H272441   3.336   3.433  11.606  0.9168  0.5968  1.7886
16984TIP3   OH272442   2.753   0.999  12.078 -0.5635 -0.2530 -0.5412
16984TIP3    H172443   2.796   0.934  12.133 -0.7748  0.1784  0.1341
16984TIP3    H272444   2.685   1.037  12.133 -0.0233  0.9988 -0.7161
16985TIP3   OH272445   4.216   3.762  13.441  0.0111  0.1817  0.0297
16985TIP3    H172446   4.219   3.722  13.527 -0.7370  0.0110 -0.0164
16985TIP3    H272447   4.211   3.688  13.380  2.1638  0.2547 -0.2545
16986TIP3   OH272448   6.586   5.141  15.284  0.2757  0.2609 -0.0561
16986TIP3    H172449   6.575   5.192  15.364  1.4449 -2.4453  1.8819
16986TIP3    H272450   6.671   5.169  15.250  1.5698 -1.3337  1.7601
16987TIP3   OH272451   4.357   0.120  14.842  0.0236 -0.1778  0.0622
16987TIP3    H172452   4.393   0.143  14.928 -1.4225  1.4618  0.2600
16987TIP3    H272453   4.308   0.039  14.858  0.4757 -0.3494  0.5993
16988TIP3   OH272454   5.149   4.811   6.582 -0.1476 -0.2296  0.0651
16988TIP3    H172455   5.215   4.776   6.523 -0.2476  2.7359 -1.9139
16988TIP3    H272456   5.153   4.754   6.659  3.2217 -1.3846 -0.8750
16989TIP3   OH272457   3.807   3.081   3.417  0.4458  0.1858  0.5167
16989TIP3    H172458   3.781   3.167   3.450 -2.2583  0.6328 -2.5313
16989TIP3    H272459   3.763   3.019   3.476  0.0132  0.8926  0.9489
16990TIP3   OH272460   3.195   5.712  12.670  0.6624  0.0557 -0.1977
16990TIP3    H172461   3.171   5.638  12.726 -2.0692  0.0175 -1.3504
16990TIP3    H272462   3.237   5.673  12.594  0.2769 -0.2285 -0.2628
16991TIP3   OH272463   6.593   3.056  11.920  0.3019 -0.4738 -0.1190
16991TIP3    H172464   6.549   3.069  11.836  0.0646 -1.1490 -0.1021
16991TIP3    H272465   6.524   3.024  11.978  0.2331  0.9762  0.6137
16992TIP3   OH272466   6.440   5.692   5.435  0.6896  0.6447 -0.2542
16992TIP3    H172467   6.384   5.622   5.468  1.3813 -0.3951 -1.2409
16992TIP3    H272468   6.504   5.647   5.380  1.3982  2.0138 -0.5666
16993TIP3   OH272469   3.604   1.659  16.562 -0.0294  0.0060  0.3967
16993TIP3    H172470   3.657   1.739  16.553  1.1077 -0.7173  0.5923
16993TIP3    H272471   3.603   1.641  16.656 -1.0802  0.3076  0.4520
16994TIP3   OH272472   4.952   5.513   0.610 -0.0358  0.1910 -0.4802
16994TIP3    H172473   4.964   5.475   0.523  0.0700  1.3599 -0.9865
16994TIP3    H272474   5.032   5.563   0.626 -0.3510  0.5506 -0.0094
16995TIP3   OH272475   4.241   3.599  12.987  0.3077 -0.1401  0.5519
16995TIP3    H172476   4.212   3.570  12.900 -0.6030 -0.3282  0.9120
16995TIP3    H272477   4.336   3.590  12.984  0.3638  0.7569 -0.7440
16996TIP3   OH272478   3.512   5.944   4.584 -0.0395  0.5618  0.5882
16996TIP3    H172479   3.502   6.017   4.645 -1.5147  0.0239  1.0119
16996TIP3    H272480   3.511   5.985   4.498  3.2871  1.4583  0.9215
16997TIP3   OH272481   2.063   0.701   5.454  0.4716  0.1447 -0.1556
16997TIP3    H172482   2.003   0.663   5.518  0.8176  0.8445  0.5999
16997TIP3    H272483   2.148   0.664   5.478  0.4146 -0.5121 -0.9562
16998TIP3   OH272484   3.677   4.521   6.152  0.0676  0.2910 -0.3863
16998TIP3    H172485   3.718   4.583   6.212  3.1589 -1.5050 -0.5187
16998TIP3    H272486   3.652   4.446   6.207 -1.0708  0.4630 -0.6605
16999TIP3   OH272487   5.469   0.827  14.150 -0.0310  0.0532 -0.2233
16999TIP3    H172488   5.452   0.921  14.155  1.8366  0.3899  0.2720
16999TIP3    H272489   5.486   0.801  14.241  1.1610 -0.4015 -0.5604
17000TIP3   OH272490   3.162   4.248  12.805  0.4827  0.0317  0.0660
17000TIP3    H172491   3.196   4.292  12.883 -1.2826 -0.1749  0.9891
17000TIP3    H272492   3.118   4.170  12.840 -1.1946  0.4752 -1.0374
17001TIP3   OH272493   5.984   5.998  15.500 -0.4748  0.1889 -0.1176
17001TIP3    H172494   6.035   5.930  15.545  0.1448  0.8611  0.2101
17001TIP3    H272495   5.951   6.054  15.570  0.0486  0.9368 -0.4637
17002TIP3   OH272496   2.620   4.720  11.545 -0.1214 -0.6973  0.5645
17002TIP3    H172497   2.566   4.791  11.511  2.4481  0.7992 -0.5019
17002TIP3    H272498   2.680   4.762  11.606  2.3029 -1.6857 -1.0585
17003TIP3   OH272499   6.665   1.218   1.241 -0.6026 -0.5737  0.1132
17003TIP3    H172500   6.755   1.185   1.231 -0.4754 -0.6333  1.4284
17003TIP3    H272501   6.672   1.289   1.305 -1.1323  1.0176 -1.5451
17004TIP3   OH272502   1.886   3.363  12.512  0.4138 -0.0789  0.4800
17004TIP3    H172503   1.833   3.334  12.586 -1.0600 -0.8118 -0.8351
17004TIP3    H272504   1.866   3.456  12.502 -1.4491 -0.5685 -0.6365
17005TIP3   OH272505   3.735   4.650  16.137  0.6453 -0.1652  0.1122
17005TIP3    H172506   3.732   4.618  16.047 -0.2849 -0.1266  0.1327
17005TIP3    H272507   3.720   4.744  16.129  1.5824  0.0043  0.2226
17006TIP3   OH272508   4.546   3.076  11.745  0.4756 -0.2785  0.2850
17006TIP3    H172509   4.518   3.117  11.826  3.1953 -2.5685  2.5135
17006TIP3    H272510   4.621   3.128  11.716 -0.4612  0.5075 -0.7917
17007TIP3   OH272511   6.714   4.963  12.994  0.0712 -0.0654 -0.2625
17007TIP3    H172512   6.742   4.944  12.904  0.6953  3.1220 -0.8326
17007TIP3    H272513   6.685   5.055  12.990  2.0229  0.7725  3.2322
17008TIP3   OH272514   2.980   4.104   4.990 -0.2992  0.2709 -0.0907
17008TIP3    H172515   2.952   4.051   5.066  0.6620  1.4340  1.0938
17008TIP3    H272516   2.924   4.181   4.993 -0.4052  0.2203 -0.7013
17009TIP3   OH272517   6.315   1.276  11.248 -0.4910 -0.3436 -0.1053
17009TIP3    H172518   6.274   1.333  11.312  0.2452  1.0431 -0.8205
17009TIP3    H272519   6.390   1.327  11.216  0.0744 -1.6472 -0.8958
17010TIP3   OH272520   0.103   4.534   5.706  0.0314  0.5987  0.0575
17010TIP3    H172521   0.124   4.487   5.787  1.0295  1.0016  0.0358
17010TIP3    H272522   0.188   4.560   5.671 -0.4621  1.3998 -0.5447
17011TIP3   OH272523   0.241   4.259   1.288 -0.1248 -0.1931 -0.0783
17011TIP3    H172524   0.278   4.345   1.306  0.3791 -0.0834 -1.5405
17011TIP3    H272525   0.149   4.276   1.267  0.1517  0.0938 -1.1086
17012TIP3   OH272526   1.864   6.454  13.683  0.0766  0.0889 -0.0700
17012TIP3    H172527   1.818   6.455  13.599  0.4891  0.3296 -0.2945
17012TIP3    H272528   1.831   6.531  13.729  0.6965  0.5985 -0.4724
17013TIP3   OH272529   6.635   5.528   4.505  0.2406  0.0227  0.5879
17013TIP3    H172530   6.595   5.614   4.515  1.3248  0.5314  0.6947
17013TIP3    H272531   6.654   5.520   4.411  2.8072  1.1532  0.9744
17014TIP3   OH272532   4.965   1.889   3.644  0.3654 -0.0360  0.0637
17014TIP3    H172533   5.058   1.876   3.629  0.1359 -0.0896 -1.4329
17014TIP3    H272534   4.960   1.958   3.710  1.4587  0.7035 -0.6123
17015TIP3   OH272535   1.689   0.827   4.423  0.4469 -0.5801  0.4984
17015TIP3    H172536   1.682   0.770   4.499  2.4023 -0.8339  0.5183
17015TIP3    H272537   1.768   0.880   4.440  0.3238  0.0718 -0.8682
17016TIP3   OH272538   6.354   4.289   5.633  0.2775  0.5166 -0.2020
17016TIP3    H172539   6.377   4.371   5.590 -0.0530  1.9786  2.3752
17016TIP3    H272540   6.273   4.307   5.680  2.5036  0.0646  4.0457
17017TIP3   OH272541   3.862   5.859   5.617  0.3550  0.2518 -0.7009
17017TIP3    H172542   3.946   5.820   5.643 -0.3554 -1.4701 -0.9435
17017TIP3    H272543   3.798   5.819   5.676 -0.4938  0.4778 -1.4565
17018TIP3   OH272544   0.728   1.400   5.011 -0.0079 -0.3874  0.3499
17018TIP3    H172545   0.680   1.433   5.087  0.8696 -1.3741  1.3553
17018TIP3    H272546   0.807   1.360   5.048  0.0109 -1.6609 -1.0105
17019TIP3   OH272547   2.577   6.778  11.669 -0.1272 -0.1691  0.7285
17019TIP3    H172548   2.645   6.730  11.716  1.3260  0.9978 -0.0909
17019TIP3    H272549   2.562   6.726  11.590 -0.9299 -0.9643  1.4099
17020TIP3   OH272550   4.322   0.257  15.869  0.2676 -0.0006 -0.0702
17020TIP3    H172551   4.253   0.319  15.849  0.4060  0.3503  0.5366
17020TIP3    H272552   4.381   0.304  15.928  0.3604 -0.7140  0.4147
17021TIP3   OH272553   3.905   0.534   0.862 -0.2818 -0.5000  0.3581
17021TIP3    H172554   3.815   0.555   0.836 -0.1055 -1.5171 -1.1028
17021TIP3    H272555   3.954   0.533   0.780  0.9433 -0.5437  1.0867
17022TIP3   OH272556   3.171   6.138   3.675 -0.0725 -0.0569  0.0203
17022TIP3    H172557   3.184   6.050   3.638  0.3236  0.3008 -0.7046
17022TIP3    H272558   3.099   6.127   3.737 -0.1448 -0.8616 -0.1930
17023TIP3   OH272559   5.325   4.455   2.671 -0.0649  0.9391  0.1083
17023TIP3    H172560   5.395   4.390   2.660 -0.7498  0.3465 -0.7821
17023TIP3    H272561   5.343   4.521   2.605 -0.4304  0.7157 -0.2124
17024TIP3   OH272562   6.779   5.325  14.909  0.3256  0.1200  0.3495
17024TIP3    H172563   6.718   5.343  14.980  0.6325 -0.4545  0.7620
17024TIP3    H272564   6.737   5.360  14.831  0.0486  0.8773  0.8373
17025TIP3   OH272565   1.838   6.718  16.051  0.9770 -0.4221  0.2435
17025TIP3    H172566   1.862   6.628  16.030 -0.6829 -1.0063  0.8029
17025TIP3    H272567   1.743   6.720  16.044  1.0099  1.3739 -0.0524
17026TIP3   OH272568   2.147   1.857   0.645 -0.0869  0.4578 -0.0392
17026TIP3    H172569   2.183   1.872   0.557 -1.3331 -2.3121 -1.0916
17026TIP3    H272570   2.215   1.890   0.704  1.8179  0.2313 -2.0021
17027TIP3   OH272571   5.308   0.178  14.992 -0.1182 -0.5428  0.1756
17027TIP3    H172572   5.292   0.096  15.038 -1.0193  0.0241  0.8828
17027TIP3    H272573   5.275   0.246  15.051 -1.3856  0.1878 -1.3380
17028TIP3   OH272574   4.821   6.295  15.034 -0.2594 -0.1129  0.6079
17028TIP3    H172575   4.896   6.350  15.059 -0.7959  1.7949 -1.7911
17028TIP3    H272576   4.858   6.229  14.976 -0.1826 -0.0924  0.6335
17029TIP3   OH272577   1.239   1.606  12.136 -0.1966 -0.3923  0.1680
17029TIP3    H172578   1.164   1.621  12.194 -2.9270 -0.5718 -3.1423
17029TIP3    H272579   1.290   1.686  12.141 -1.5825  0.4437  1.1611
17030TIP3   OH272580   3.882   2.366  14.736 -1.0510 -0.2347  0.0760
17030TIP3    H172581   3.863   2.406  14.652 -2.6317 -0.0343  0.5060
17030TIP3    H272582   3.918   2.280  14.715  0.4660  0.6124 -0.8205
17031TIP3   OH272583   1.740   0.219  13.279  0.0037  0.1068 -0.8189
17031TIP3    H172584   1.793   0.209  13.200  0.7382 -1.0159 -0.1944
17031TIP3    H272585   1.795   0.270  13.339  0.1156 -0.4702 -0.4230
17032TIP3   OH272586   2.257   1.451   1.482 -0.3645 -0.4152  0.1196
17032TIP3    H172587   2.162   1.465   1.483 -0.4768 -1.1260 -0.1606
17032TIP3    H272588   2.284   1.476   1.394 -0.5251 -1.6708 -0.2938
17033TIP3   OH272589   5.824   5.086  16.582 -0.1153 -0.1450 -0.2162
17033TIP3    H172590   5.876   5.070  16.660 -1.4797 -0.9903  0.5329
17033TIP3    H272591   5.888   5.090  16.511  0.9561 -1.2618  0.6649
17034TIP3   OH272592   0.016   2.688   5.338  0.1351 -0.1645 -0.1305
17034TIP3    H172593   0.096   2.711   5.289  0.4818 -2.0581 -0.4858
17034TIP3    H272594   0.042   2.695   5.430 -0.6974  4.0524 -0.1095
17035TIP3   OH272595   3.400   1.662   0.515  0.5955  0.3032 -0.2815
17035TIP3    H172596   3.490   1.688   0.535  0.7565 -0.1206 -0.4483
17035TIP3    H272597   3.409   1.588   0.456  0.1313  1.8747 -2.3710
17036TIP3   OH272598   1.091   6.611   1.654 -0.7065 -0.0753 -0.2280
17036TIP3    H172599   1.123   6.700   1.644 -0.8874  0.0545  0.3117
17036TIP3    H272600   1.027   6.601   1.584  0.5634 -0.3652 -1.3464
17037TIP3   OH272601   3.848   2.790   0.015 -0.6717  0.2270  0.2139
17037TIP3    H172602   3.754   2.773   0.004 -0.6310  0.4835 -0.5912
17037TIP3    H272603   3.876   2.824  -0.070  0.5713 -1.8363 -0.2580
17038TIP3   OH272604   0.978   5.930   3.598 -0.0750  0.7111  0.2701
17038TIP3    H172605   0.962   5.879   3.677 -0.5416 -0.9848 -0.9086
17038TIP3    H272606   0.904   5.910   3.541  0.2253  1.9887 -0.5883
17039TIP3   OH272607   4.931   2.665   2.304 -0.0924 -0.8078 -0.8493
17039TIP3    H172608   4.858   2.605   2.294 -1.6515  0.9680 -0.3765
17039TIP3    H272609   4.960   2.683   2.214 -0.5018 -1.1960 -1.0602
17040TIP3   OH272610   1.200   6.188  10.984 -0.0832 -0.4547 -0.1027
17040TIP3    H172611   1.253   6.191  11.063  1.7978 -1.1487 -1.3095
17040TIP3    H272612   1.136   6.259  10.995  0.5372 -0.1717  1.7526
17041TIP3   OH272613   2.067   6.326  13.766 -0.0767  0.2044 -0.4519
17041TIP3    H172614   2.137   6.354  13.706  0.0364 -0.5107 -0.6644
17041TIP3    H272615   1.988   6.368  13.732  0.1348  0.4884 -0.5967
17042TIP3   OH272616   2.358   5.020   4.169  0.8263  0.2311  0.5067
17042TIP3    H172617   2.395   5.055   4.250  0.8357  0.0013  0.6036
17042TIP3    H272618   2.409   4.940   4.153  2.7671  1.7812 -1.2744
17043TIP3   OH272619   6.410   5.301   4.492  0.2505 -0.2691  1.0312
17043TIP3    H172620   6.415   5.368   4.423  0.2109  0.6821  1.9299
17043TIP3    H272621   6.492   5.253   4.486  0.2137 -0.2352  0.2698
17044TIP3   OH272622   4.640   5.993   1.559 -0.0133  0.6265 -0.3693
17044TIP3    H172623   4.589   6.069   1.587  0.7307  0.2585  2.0964
17044TIP3    H272624   4.664   5.948   1.640  0.9518 -1.3470 -1.6904
17045TIP3   OH272625   4.201   1.111   2.021 -0.3059  0.1784 -0.3705
17045TIP3    H172626   4.261   1.176   2.059  0.2951 -1.1940  1.0869
17045TIP3    H272627   4.202   1.129   1.927  2.9224 -0.2269 -0.4630
17046TIP3   OH272628   4.537   1.256   0.324 -0.5258  0.0554 -0.4603
17046TIP3    H172629   4.555   1.305   0.244  0.2062 -0.9005 -0.8953
17046TIP3    H272630   4.602   1.288   0.387  1.0732 -1.5260 -1.2495
17047TIP3   OH272631   4.610   3.638   4.185 -0.1543 -0.6089 -0.4507
17047TIP3    H172632   4.615   3.553   4.142 -0.0027 -1.6097  1.4914
17047TIP3    H272633   4.524   3.672   4.162  0.2381 -0.7667 -2.1884
17048TIP3   OH272634   0.365   1.917   1.307  0.1533 -0.5856 -0.7164
17048TIP3    H172635   0.426   1.974   1.262  0.0148  0.3263  0.2397
17048TIP3    H272636   0.398   1.829   1.290  1.8497 -0.0994 -0.0129
17049TIP3   OH272637   3.228   1.311  16.600  0.2705 -0.5281  0.7379
17049TIP3    H172638   3.315   1.309  16.561  0.0611 -1.9564  0.3186
17049TIP3    H272639   3.199   1.401  16.591  1.2309 -0.3095 -0.1834
17050TIP3   OH272640   1.671   4.197  16.084  0.3310  0.6985 -0.2776
17050TIP3    H172641   1.602   4.255  16.052 -0.0018  0.2068 -0.4476
17050TIP3    H272642   1.752   4.248  16.073  0.1703  0.7114 -1.4782
17051TIP3   OH272643   2.196   4.400   5.447 -0.2660  0.9403  0.0479
17051TIP3    H172644   2.276   4.437   5.411  0.5194  0.0436  0.8356
17051TIP3    H272645   2.222   4.364   5.532 -2.0498  2.9537  1.4881
17052TIP3   OH272646   1.364   6.218   0.223  0.2701  0.4949  0.2405
17052TIP3    H172647   1.289   6.243   0.276 -0.3126 -2.8285  1.1087
17052TIP3    H272648   1.439   6.222   0.283 -0.1041 -1.5038  0.8628
17053TIP3   OH272649   4.329   6.177   3.532 -0.6802 -0.1425 -0.4093
17053TIP3    H172650   4.256   6.124   3.501 -0.4642 -0.5036 -0.3003
17053TIP3    H272651   4.304   6.203   3.621 -0.3157 -0.9396 -0.0697
17054TIP3   OH272652   4.101   3.148   3.280  0.0468 -0.1024 -0.2393
17054TIP3    H172653   4.016   3.134   3.321  0.8671 -0.1000  1.5119
17054TIP3    H272654   4.108   3.243   3.271  0.7209  0.0337  1.5333
17055TIP3   OH272655   3.193   5.666  14.164 -0.0383  0.0530 -0.1834
17055TIP3    H172656   3.197   5.574  14.190 -0.2809  0.0092 -0.2988
17055TIP3    H272657   3.109   5.697  14.197  0.3924  0.4496  0.5562
17056TIP3   OH272658   2.389   3.714   1.921  0.0171  0.4904  0.0419
17056TIP3    H172659   2.432   3.780   1.867  1.1335 -0.2084  0.0671
17056TIP3    H272660   2.382   3.637   1.864  0.1205  0.1322  0.5128
17057TIP3   OH272661   1.798   2.901  16.335 -0.5359 -0.5480 -0.1233
17057TIP3    H172662   1.872   2.845  16.359 -1.1067 -0.8361  1.0081
17057TIP3    H272663   1.733   2.841  16.299 -0.6763 -0.4624 -0.0161
17058TIP3   OH272664   4.661   6.709   0.906  0.3447 -0.2820  0.8413
17058TIP3    H172665   4.569   6.710   0.878 -0.3439 -0.3395  3.0415
17058TIP3    H272666   4.693   6.623   0.880 -0.2795 -0.3474  0.2647
17059TIP3   OH272667   5.367   3.042  12.679  0.1487 -0.3415 -0.8521
17059TIP3    H172668   5.389   3.024  12.588  0.4037  0.7669 -1.0249
17059TIP3    H272669   5.417   2.978  12.729  1.3232  0.1197 -1.4166
17060TIP3   OH272670   2.456   4.791  15.433 -0.0663  0.0353  0.1474
17060TIP3    H172671   2.369   4.760  15.459 -0.1884  0.4299  0.2098
17060TIP3    H272672   2.460   4.775  15.339 -0.1707 -0.0686  0.1599
17061TIP3   OH272673   5.207   5.786   3.656  0.3399  0.1364 -0.0334
17061TIP3    H172674   5.232   5.751   3.742  3.9802 -0.7358 -1.3343
17061TIP3    H272675   5.173   5.710   3.608 -0.4314  0.3421  0.1822
17062TIP3   OH272676   6.231   2.900  16.104  0.4021 -0.2806 -0.2966
17062TIP3    H172677   6.220   2.820  16.154  1.5177 -0.6754 -0.6659
17062TIP3    H272678   6.144   2.921  16.072 -0.6101  0.7172  2.9109
17063TIP3   OH272679   3.661   5.374  12.921  0.3308  0.2333  0.6605
17063TIP3    H172680   3.580   5.401  12.965  0.5323  1.2837  0.4043
17063TIP3    H272681   3.668   5.434  12.846 -0.1174 -1.6428 -0.9167
17064TIP3   OH272682   0.322   0.513  16.143  0.3370  0.0049  0.1782
17064TIP3    H172683   0.277   0.433  16.117 -0.8126  1.0387 -1.0915
17064TIP3    H272684   0.334   0.504  16.237 -0.8961 -1.1106  0.2456
17065TIP3   OH272685   5.685   0.807   1.884  0.4950 -0.0332  0.4984
17065TIP3    H172686   5.747   0.815   1.811 -2.1036 -0.1668 -1.7967
17065TIP3    H272687   5.610   0.860   1.857 -0.7850 -0.6113  2.8191
17066TIP3   OH272688   5.758   6.770   4.367 -0.1545  0.4071  0.1148
17066TIP3    H172689   5.798   6.686   4.344 -1.0120  0.6410 -2.3440
17066TIP3    H272690   5.667   6.763   4.339 -1.0164  1.1360  2.5425
17067TIP3   OH272691   6.288   0.766   5.842 -0.2189  0.5593  0.4537
17067TIP3    H172692   6.336   0.702   5.790  0.7241  0.6137  1.2351
17067TIP3    H272693   6.238   0.817   5.778 -2.6099 -2.2465 -0.0396
17068TIP3   OH272694   3.912   1.766  16.972  0.0097  0.1631 -0.5343
17068TIP3    H172695   3.885   1.831  17.037 -1.7593 -0.9131 -0.1629
17068TIP3    H272696   3.999   1.796  16.943  0.3368  1.2826  1.4831
17069TIP3   OH272697   4.285   1.532  13.263 -0.0328 -0.0909 -0.3940
17069TIP3    H172698   4.247   1.501  13.345  0.9782 -2.1918 -0.6964
17069TIP3    H272699   4.227   1.496  13.195  0.5176 -0.3955 -0.7033
17070TIP3   OH272700   3.536   0.094   1.689 -0.0873  0.1347  0.7514
17070TIP3    H172701   3.588   0.169   1.659  0.5961  0.7797  3.3476
17070TIP3    H272702   3.599   0.022   1.695 -0.2543 -0.0364  0.4162
17071TIP3   OH272703   0.730   0.031   4.439  0.1272  0.2565  0.1159
17071TIP3    H172704   0.681   0.073   4.368  2.0408  3.6701  0.6976
17071TIP3    H272705   0.684   0.058   4.519  1.7974  1.9868  0.5425
17072TIP3   OH272706   0.390   4.344  13.575  0.1962  0.1842 -0.0123
17072TIP3    H172707   0.314   4.320  13.628 -0.7227  4.0519  0.6251
17072TIP3    H272708   0.388   4.284  13.501 -2.2378 -1.1849  1.1018
17073TIP3   OH272709   3.665   5.889  14.751 -0.0094 -0.3802 -0.2611
17073TIP3    H172710   3.705   5.919  14.670  0.1069  0.0724 -0.0361
17073TIP3    H272711   3.685   5.957  14.815  0.0138 -0.8010  0.1816
17074TIP3   OH272712   1.314   5.887   1.066 -0.0897  0.1266 -0.6313
17074TIP3    H172713   1.247   5.843   1.118  1.4758 -0.3710  1.0370
17074TIP3    H272714   1.311   5.844   0.981 -0.4820 -1.3165  0.0960
17075TIP3   OH272715   0.057   2.567   5.689  0.0617  0.7669 -0.2527
17075TIP3    H172716   0.066   2.496   5.753 -0.7581  1.5189  0.7124
17075TIP3    H272717   0.121   2.546   5.620  0.8826 -0.0938  0.7629
17076TIP3   OH272718   0.978   1.392  17.199 -0.0514  0.0801 -0.4896
17076TIP3    H172719   1.044   1.459  17.216 -1.8797  1.7567  0.2002
17076TIP3    H272720   0.950   1.363  17.287 -1.2087  0.3837 -0.7458
17077TIP3   OH272721   2.024   5.743  13.144  0.2715 -0.2501  0.1776
17077TIP3    H172722   2.056   5.652  13.140 -2.6045 -1.4603  2.4474
17077TIP3    H272723   1.983   5.758  13.059  1.6761 -0.6980 -0.5970
17078TIP3   OH272724   0.582   1.625  13.895 -0.0725  0.1083  0.3404
17078TIP3    H172725   0.489   1.647  13.910  0.4463  2.6667  0.0636
17078TIP3    H272726   0.580   1.537  13.856 -2.3153 -0.2864  1.2628
17079TIP3   OH272727   4.430   2.307  12.904  0.3346 -0.3675  0.8287
17079TIP3    H172728   4.351   2.322  12.851  0.7183  0.2228  0.4191
17079TIP3    H272729   4.499   2.353  12.857  0.5238  0.8538  2.2578
17080TIP3   OH272730   6.607   1.918  12.811  0.2641 -0.3642 -0.2868
17080TIP3    H172731   6.639   2.008  12.806 -0.6461 -0.0787 -1.0069
17080TIP3    H272732   6.637   1.877  12.729  0.7211 -0.7345  0.0632
17081TIP3   OH272733   4.204   2.031   3.197  0.1392  0.2835 -0.3084
17081TIP3    H172734   4.194   2.053   3.290  1.6827  2.5763 -0.6382
17081TIP3    H272735   4.267   2.095   3.164 -1.1149  0.1087 -3.1696
17082TIP3   OH272736   3.085   0.047  16.445 -0.2706 -0.1318 -0.1277
17082TIP3    H172737   3.143   0.117  16.417  1.2989 -0.4229  2.3362
17082TIP3    H272738   3.075   0.060  16.539 -0.8575 -2.5618  0.1664
17083TIP3   OH272739   0.685   3.640   4.956 -0.6614  0.0570 -0.4758
17083TIP3    H172740   0.741   3.697   5.008  0.2422 -0.6408 -0.6730
17083TIP3    H272741   0.705   3.552   4.987 -2.5461 -0.1103  0.2939
17084TIP3   OH272742   2.600   0.622   1.281  0.0416  0.1273 -0.0871
17084TIP3    H172743   2.585   0.552   1.345  0.6241  1.3559  1.4312
17084TIP3    H272744   2.693   0.641   1.287 -0.5041  2.6842  1.3362
17085TIP3   OH272745   0.912   5.534   1.796 -0.0622 -0.3080  0.2844
17085TIP3    H172746   0.867   5.495   1.870  0.7754 -1.0641  0.4033
17085TIP3    H272747   0.944   5.618   1.828 -0.0831 -0.4390  0.6455
17086TIP3   OH272748   0.197   4.989   6.272 -0.1943  0.0088 -0.1480
17086TIP3    H172749   0.112   4.980   6.316  0.3612  0.4622  1.0406
17086TIP3    H272750   0.229   5.076   6.299  1.2784 -0.7322  0.5445
17087TIP3   OH272751   2.994   6.233  15.023 -0.5403 -0.2631 -0.3559
17087TIP3    H172752   2.942   6.198  14.951 -0.4322 -0.4430 -0.3454
17087TIP3    H272753   3.085   6.217  14.997 -0.5033 -0.4233 -0.1322
17088TIP3   OH272754   5.683   3.652  11.331 -0.6843 -0.8150  0.2795
17088TIP3    H172755   5.765   3.697  11.349 -0.4100 -0.3975 -1.8465
17088TIP3    H272756   5.681   3.580  11.394  0.9585 -0.3846  0.8524
17089TIP3   OH272757   2.910   4.985  12.960  0.3403  0.1874 -0.4128
17089TIP3    H172758   2.948   4.899  12.971  1.3868  0.5954 -0.7332
17089TIP3    H272759   2.815   4.971  12.965  0.4726 -1.1010 -1.3204
17090TIP3   OH272760   2.814   1.752  13.817 -0.2050  0.2216  0.4418
17090TIP3    H172761   2.844   1.768  13.728 -0.3604 -0.1244  0.3276
17090TIP3    H272762   2.721   1.772  13.816 -0.4142 -0.7112  0.2853
17091TIP3   OH272763   3.975   0.278   1.408 -0.2963 -0.2784 -0.0332
17091TIP3    H172764   3.967   0.282   1.312 -0.1480 -0.4360 -0.0529
17091TIP3    H272765   4.043   0.341   1.430 -0.3741 -0.1974 -0.0261
17092TIP3   OH272766   1.867   6.717  13.360 -0.4359 -0.7023  0.4594
17092TIP3    H172767   1.803   6.718  13.431 -0.2697  0.3721  0.6153
17092TIP3    H272768   1.923   6.793  13.379 -0.8922  0.0937 -1.2795
17093TIP3   OH272769   2.759   5.333  13.027  0.1019  0.7056  0.8708
17093TIP3    H172770   2.757   5.429  13.033  0.5886  0.8951 -1.7011
17093TIP3    H272771   2.669   5.309  13.007  0.4758  0.8220 -0.9903
17094TIP3   OH272772   0.432   6.800  14.187 -0.1806  0.2234  0.6030
17094TIP3    H172773   0.367   6.746  14.143 -0.4702  0.8777  0.2098
17094TIP3    H272774   0.517   6.766  14.156 -0.3276 -0.7547  1.2693
17095TIP3   OH272775   6.436   6.717  14.898  0.4837 -0.0812 -0.5749
17095TIP3    H172776   6.515   6.669  14.921  0.2091  0.0747  0.7446
17095TIP3    H272777   6.462   6.771  14.824  2.0505  1.1020  0.7936
17096TIP3   OH272778   2.766   5.294  16.964 -0.2957  0.2696 -0.8445
17096TIP3    H172779   2.818   5.373  16.980  0.4949 -0.2387 -0.8441
17096TIP3    H272780   2.728   5.307  16.878  0.8164  0.1368 -1.3730
17097TIP3   OH272781   5.734   0.805  14.468 -0.2500 -0.4699  0.0477
17097TIP3    H172782   5.792   0.746  14.517 -0.2601  0.0563  0.6971
17097TIP3    H272783   5.778   0.890  14.471 -1.8341  0.3231  1.9523
17098TIP3   OH272784   5.294   3.836  15.354  0.4745 -0.0586 -0.2004
17098TIP3    H172785   5.253   3.817  15.438 -0.3238  2.2400 -0.0433
17098TIP3    H272786   5.256   3.773  15.293 -0.3821 -0.4795  0.7676
17099TIP3   OH272787   6.143   0.602  11.903  0.3182  0.0875 -0.3733
17099TIP3    H172788   6.084   0.674  11.924  1.0682  0.5658  0.1019
17099TIP3    H272789   6.192   0.586  11.984  1.4075  0.2354 -0.9936
17100TIP3   OH272790   6.038   1.786  13.528  0.3909  0.3380 -0.4285
17100TIP3    H172791   6.015   1.792  13.436 -3.5760 -3.5939  0.1253
17100TIP3    H272792   5.958   1.814  13.574  1.1896 -0.9437  1.7840
17101TIP3   OH272793   3.879   3.833  13.447 -0.1921  0.3143 -0.5468
17101TIP3    H172794   3.891   3.827  13.353  0.7567  2.2098 -0.5557
17101TIP3    H272795   3.926   3.912  13.473 -1.0560  0.2191  1.4065
17102TIP3   OH272796   0.019   3.396  10.656  0.9168  0.2445  0.4766
17102TIP3    H172797   0.067   3.420  10.735  0.9356 -1.6472  1.0761
17102TIP3    H272798   0.077   3.421  10.584  0.6563  2.4960  1.0181
17103TIP3   OH272799   4.770   3.867  13.993  0.0524 -0.7215  0.4721
17103TIP3    H172800   4.801   3.874  13.903 -2.0490 -0.0696 -0.2431
17103TIP3    H272801   4.737   3.954  14.014 -3.8234 -1.9663  0.1250
17104TIP3   OH272802   6.100   2.478  16.684 -0.1434 -0.3200  0.3380
17104TIP3    H172803   6.155   2.490  16.607  0.8533 -0.8752  0.9488
17104TIP3    H272804   6.141   2.405  16.731 -0.3100  0.4932  1.7629
17105TIP3   OH272805   0.421   0.961  14.295 -0.6906 -0.4607  0.1852
17105TIP3    H172806   0.459   1.041  14.330 -1.7922  0.8872 -1.6014
17105TIP3    H272807   0.489   0.925  14.238 -1.1117  0.6198 -1.0429
17106TIP3   OH272808   3.887   3.468   6.831  0.2781 -0.0942 -0.4806
17106TIP3    H172809   3.793   3.472   6.848  0.2256 -1.1123 -0.5154
17106TIP3    H272810   3.900   3.525   6.755 -0.5269 -1.1042 -1.3899
17107TIP3   OH272811   0.027   4.010   1.993 -0.0859 -0.4584 -0.5786
17107TIP3    H172812   0.092   4.005   1.923 -0.7127  0.0206 -1.2090
17107TIP3    H272813   0.075   4.046   2.067  0.2259  0.4855 -1.2206
17108TIP3   OH272814   3.544   6.615   1.545 -0.2931  0.0141  0.1185
17108TIP3    H172815   3.551   6.552   1.473 -2.4173  0.5900 -0.6162
17108TIP3    H272816   3.450   6.624   1.560  0.1077 -0.0833  2.9700
17109TIP3   OH272817   2.006   3.289   5.259 -0.3185  0.2662  0.1273
17109TIP3    H172818   1.973   3.339   5.184  0.8503 -0.7597 -1.0987
17109TIP3    H272819   1.937   3.224   5.276  0.7177 -1.4912 -2.0578
17110TIP3   OH272820   2.926   3.169  15.536  0.1571  0.2716  0.0968
17110TIP3    H172821   2.941   3.114  15.614  0.0379 -0.3310 -0.2994
17110TIP3    H272822   2.923   3.258  15.570  0.4240  0.0385  0.7456
17111TIP3   OH272823   2.475   5.008  12.326  0.0062  0.2267  0.2549
17111TIP3    H172824   2.457   4.923  12.367 -0.0710  0.1402  0.0438
17111TIP3    H272825   2.495   5.066  12.399 -2.3689  0.6486  0.6221
17112TIP3   OH272826   5.893   5.790  16.188  0.4918 -0.2528  0.1256
17112TIP3    H172827   5.956   5.719  16.173  0.0169 -0.4584 -0.9045
17112TIP3    H272828   5.946   5.869  16.185  0.7247 -0.4330 -0.6458
17113TIP3   OH272829   4.828   0.013   4.830  0.1836 -0.3526 -0.2323
17113TIP3    H172830   4.857  -0.072   4.795  0.5058  0.8338 -2.9408
17113TIP3    H272831   4.890   0.076   4.794 -0.7204  1.1912  0.8626
17114TIP3   OH272832   4.043   5.302  17.022 -0.4916  0.1553 -0.0258
17114TIP3    H172833   4.079   5.237  17.082 -0.4195  0.5495  0.3546
17114TIP3    H272834   4.034   5.381  17.074  0.9121  0.9118 -0.8928
17115TIP3   OH272835   4.624   0.766  13.502 -0.7096  0.0163  0.0520
17115TIP3    H172836   4.626   0.786  13.596  1.2895  0.2173 -0.0110
17115TIP3    H272837   4.544   0.808  13.470 -0.5014  1.4467  1.3497
17116TIP3   OH272838   1.539   2.458   1.105 -0.3282 -0.1632  0.0881
17116TIP3    H172839   1.517   2.431   1.016  1.4622  1.5277 -0.9039
17116TIP3    H272840   1.457   2.494   1.140 -0.5658  0.9705 -1.5840
17117TIP3   OH272841   2.202   6.542  11.466 -0.0165  0.4998  0.1372
17117TIP3    H172842   2.175   6.533  11.374 -0.2950  0.3353  0.2361
17117TIP3    H272843   2.284   6.493  11.471 -0.5642 -0.4063  0.2321
17118TIP3   OH272844   1.092   3.065  14.936  0.0277 -0.2097 -0.1089
17118TIP3    H172845   1.034   3.070  14.860  0.7655  0.8106 -0.6137
17118TIP3    H272846   1.038   3.025  15.004  0.1719 -3.5382 -1.8844
17119TIP3   OH272847   4.067   6.694  14.876  0.1335  0.8373  0.0981
17119TIP3    H172848   4.090   6.675  14.967  0.0733  1.0393  0.1526
17119TIP3    H272849   4.102   6.619  14.827  2.5286  2.0011 -0.0501
17120TIP3   OH272850   2.538   6.425   2.728 -0.0992 -0.5141  0.4403
17120TIP3    H172851   2.536   6.463   2.815  1.2086  1.8126 -0.5083
17120TIP3    H272852   2.447   6.430   2.698 -0.2142  0.5138  0.9273
17121TIP3   OH272853   0.169   5.814   6.461 -0.1220 -0.0634  0.0974
17121TIP3    H172854   0.095   5.841   6.407 -0.1257 -0.4325 -0.0849
17121TIP3    H272855   0.131   5.760   6.530 -0.0958  0.2658  0.3737
17122TIP3   OH272856   2.140   2.852  16.033  0.0086  0.3509 -0.0695
17122TIP3    H172857   2.169   2.898  15.954  0.9734 -0.7484 -0.3619
17122TIP3    H272858   2.219   2.813  16.069 -0.3908  1.0033  1.5746
17123TIP3   OH272859   4.515   0.759   0.323 -0.1358 -0.0018  0.4609
17123TIP3    H172860   4.559   0.723   0.400 -1.7638 -1.7117  0.6054
17123TIP3    H272861   4.560   0.842   0.308  0.1678  0.4174  3.2992
17124TIP3   OH272862   6.568   6.063  17.102 -0.1406 -0.2681  0.0872
17124TIP3    H172863   6.545   5.974  17.131 -0.5062  0.3305  1.6767
17124TIP3    H272864   6.496   6.118  17.132  1.0941  0.8958  1.0132
17125TIP3   OH272865   0.305   1.155  12.440 -0.0668  0.3808  0.7458
17125TIP3    H172866   0.267   1.154  12.352  0.0729  1.9006  0.6586
17125TIP3    H272867   0.229   1.160  12.499 -0.1378 -0.0633  0.6928
17126TIP3   OH272868   0.336   2.274  13.722  0.4227  0.5429  0.3561
17126TIP3    H172869   0.343   2.185  13.687 -0.9606  0.6682 -0.2538
17126TIP3    H272870   0.426   2.298  13.745  0.9530 -0.5800 -0.5327
17127TIP3   OH272871   5.110   5.117  14.127 -0.3518  0.1181 -0.3548
17127TIP3    H172872   5.057   5.196  14.138  0.7556  0.9112 -0.6498
17127TIP3    H272873   5.200   5.149  14.118  0.5724 -1.3376  2.9020
17128TIP3   OH272874   6.638   4.275   3.158  0.6903 -0.0945 -0.6708
17128TIP3    H172875   6.556   4.231   3.179  1.2645 -0.8348  0.0875
17128TIP3    H272876   6.696   4.205   3.126  1.5176  0.1278  0.2860
17129TIP3   OH272877   3.031   2.836  13.030 -0.3072  0.2571  0.2199
17129TIP3    H172878   3.080   2.754  13.021 -0.1661  0.1145  2.2360
17129TIP3    H272879   3.042   2.879  12.945 -0.1687 -1.6812 -0.7676
17130TIP3   OH272880   3.578   2.601   4.915 -0.3551 -0.2132  0.0647
17130TIP3    H172881   3.581   2.678   4.859 -1.8225 -0.3451 -0.2144
17130TIP3    H272882   3.628   2.534   4.868  0.9175  0.5505  0.3094
17131TIP3   OH272883   1.242   1.354  13.261 -0.2098 -0.3640  0.4058
17131TIP3    H172884   1.249   1.448  13.248 -2.2808 -0.2106  0.2452
17131TIP3    H272885   1.179   1.344  13.333 -0.0900 -1.6134  0.3578
17132TIP3   OH272886   3.402   3.761  15.645  0.1903 -0.1680 -0.2718
17132TIP3    H172887   3.464   3.697  15.610  0.9468  0.0107  0.7230
17132TIP3    H272888   3.457   3.832  15.677 -0.6190  0.7315 -0.8537
17133TIP3   OH272889   0.232   2.545   4.987  0.3248  0.5323  0.1787
17133TIP3    H172890   0.213   2.611   5.054  1.4096  0.0599  0.9738
17133TIP3    H272891   0.328   2.539   4.986  0.2821 -0.0467 -0.8554
17134TIP3   OH272892   0.900   4.118  16.792 -0.1757 -0.0505 -0.1196
17134TIP3    H172893   0.907   4.188  16.857  1.0076  0.3900 -0.7276
17134TIP3    H272894   0.895   4.038  16.844 -0.2374  0.3797  0.5416
17135TIP3   OH272895   5.474   5.876   3.767 -0.1493 -0.0640  0.0255
17135TIP3    H172896   5.400   5.937   3.775 -0.3448 -0.2058 -0.7005
17135TIP3    H272897   5.433   5.791   3.755  0.1322 -0.2778  0.5352
17136TIP3   OH272898   4.499   6.229  15.595 -0.6379 -0.1326  0.0296
17136TIP3    H172899   4.562   6.231  15.523  0.9485 -1.4826  1.3235
17136TIP3    H272900   4.424   6.181  15.560 -0.7423  1.0160 -1.3683
17137TIP3   OH272901   1.687   2.132  16.107 -0.7603 -0.4212 -0.3371
17137TIP3    H172902   1.716   2.047  16.139  0.4400  0.0963 -0.0060
17137TIP3    H272903   1.611   2.154  16.162  0.1113 -0.4102  0.8770
17138TIP3   OH272904   2.462   5.848   5.775  0.1301  0.5624  0.6085
17138TIP3    H172905   2.406   5.771   5.772  1.2419 -0.3564  2.4910
17138TIP3    H272906   2.441   5.890   5.858 -1.9182  3.4701 -1.2876
17139TIP3   OH272907   1.786   4.108  15.259  0.0710  0.2752  0.1841
17139TIP3    H172908   1.718   4.080  15.198  0.1826  0.2335  0.0788
17139TIP3    H272909   1.748   4.182  15.306  0.1157  0.5305 -0.1815
17140TIP3   OH272910   0.909   5.639   3.164  0.5931 -0.6351  0.1655
17140TIP3    H172911   0.947   5.726   3.153  0.8750 -0.7916 -0.1265
17140TIP3    H272912   0.935   5.592   3.085  0.0849 -0.8541  0.1260
17141TIP3   OH272913   1.339   0.432   2.040  0.0941 -0.1651 -0.1996
17141TIP3    H172914   1.365   0.495   2.108  0.7170 -0.7752  0.1304
17141TIP3    H272915   1.407   0.439   1.974  0.1118 -0.4330 -0.2063
17142TIP3   OH272916   3.050   4.529   5.095 -0.0878 -0.4021 -0.0257
17142TIP3    H172917   3.109   4.478   5.039  0.4685 -0.2190  0.3997
17142TIP3    H272918   3.084   4.618   5.092 -0.1422 -0.3628  0.4946
17143TIP3   OH272919   5.656   2.944   5.204 -0.0941 -0.1508 -0.6671
17143TIP3    H172920   5.699   2.985   5.130  0.6544  0.4164  0.0734
17143TIP3    H272921   5.627   2.859   5.171  0.1686  0.1244 -1.6224
17144TIP3   OH272922   2.104   4.674  14.574  0.3071 -0.3010 -0.1005
17144TIP3    H172923   2.138   4.637  14.655  2.7951  2.7413  0.3790
17144TIP3    H272924   2.147   4.623  14.504  4.7363  2.3075  0.5227
17145TIP3   OH272925   5.123   2.885   0.046 -0.3367 -0.0569  0.0197
17145TIP3    H172926   5.183   2.863   0.117  0.0222  0.5499 -0.0944
17145TIP3    H272927   5.163   2.960   0.003 -0.9812  0.1054 -0.3014
17146TIP3   OH272928   4.175   6.030  11.958  0.2598  0.4725 -0.3542
17146TIP3    H172929   4.222   5.957  11.919 -0.1583  0.5272 -0.9665
17146TIP3    H272930   4.190   6.021  12.052  0.0214 -0.5298 -0.4066
17147TIP3   OH272931   5.556   5.206   3.995  0.2473 -0.0566 -1.0732
17147TIP3    H172932   5.526   5.127   4.040  0.5537  1.1719  1.3493
17147TIP3    H272933   5.510   5.278   4.039  1.1296  1.2419 -2.2371
17148TIP3   OH272934   1.344   2.012   4.967 -0.6457  0.3782  0.1276
17148TIP3    H172935   1.276   2.015   5.033 -0.3116 -1.2195  0.5764
17148TIP3    H272936   1.317   1.942   4.907  0.6113 -0.3221  0.3489
17149TIP3   OH272937   4.078   0.763   4.642 -0.4607 -0.0904 -0.0718
17149TIP3    H172938   4.072   0.669   4.626  1.2510 -0.5734  1.8692
17149TIP3    H272939   4.041   0.775   4.729 -1.2261  1.1391 -0.5481
17150TIP3   OH272940   1.340   5.158   2.625 -0.3915 -0.0285  0.2827
17150TIP3    H172941   1.317   5.091   2.560  0.0038 -1.3694  1.4846
17150TIP3    H272942   1.295   5.237   2.596 -1.2631 -0.9497 -0.9155
17151TIP3   OH272943   0.493   4.523  14.214  0.5810  0.7555  0.5144
17151TIP3    H172944   0.544   4.603  14.221  0.9685  0.6974 -1.3816
17151TIP3    H272945   0.460   4.523  14.125 -1.5316  0.0466  1.2637
17152TIP3   OH272946   5.079   0.538   3.584  0.3700  0.4048  0.3522
17152TIP3    H172947   5.044   0.583   3.660 -1.9260  0.3650 -0.6624
17152TIP3    H272948   5.045   0.449   3.591  2.3554 -0.3516  0.6930
17153TIP3   OH272949   0.810   2.144  17.017  0.0559  0.3654 -0.1298
17153TIP3    H172950   0.898   2.169  16.992 -0.0027  0.1293 -0.5797
17153TIP3    H272951   0.805   2.050  16.998 -1.1988  0.9317 -2.7811
17154TIP3   OH272952   0.051   0.912   3.893  0.2588  0.2216 -0.0827
17154TIP3    H172953   0.055   0.995   3.847  1.0823  0.0371 -0.3526
17154TIP3    H272954   0.038   0.846   3.825 -0.3051  0.1212  0.1208
17155TIP3   OH272955   5.212   5.708   5.714 -0.1828  0.4674  0.7261
17155TIP3    H172956   5.306   5.711   5.693 -0.3631  0.3598 -0.1272
17155TIP3    H272957   5.208   5.674   5.803  0.6009  0.6286  0.8264
17156TIP3   OH272958   6.339   3.344  15.886 -0.0460 -0.6033  0.5681
17156TIP3    H172959   6.271   3.389  15.937 -1.3418  0.3721 -1.9385
17156TIP3    H272960   6.420   3.391  15.906 -0.9372  1.2002 -0.0061
17157TIP3   OH272961   3.243   2.939  15.502 -0.0562 -0.2834 -0.2114
17157TIP3    H172962   3.325   2.893  15.515  0.3223  0.6402  0.7564
17157TIP3    H272963   3.267   3.031  15.492 -1.0080  0.1254  0.9807
17158TIP3   OH272964   6.674   5.397  16.688  0.2010 -0.8776  0.1520
17158TIP3    H172965   6.710   5.477  16.726 -0.7807 -0.2085 -0.2935
17158TIP3    H272966   6.749   5.353  16.649  0.5189  0.6149 -0.9879
17159TIP3   OH272967   5.688   2.706  15.524 -0.2657  0.5982  0.1055
17159TIP3    H172968   5.604   2.751  15.539  0.6663  1.9185  1.5310
17159TIP3    H272969   5.721   2.688  15.612  1.9751  2.0404 -0.4198
17160TIP3   OH272970   2.436   3.464   0.701 -0.1211  0.1095 -0.2269
17160TIP3    H172971   2.392   3.439   0.620  0.0779  0.0671 -0.3216
17160TIP3    H272972   2.377   3.528   0.742 -0.0035  0.4703 -0.6272
17161TIP3   OH272973   3.506   1.929   5.346  0.0116 -0.0638 -0.5568
17161TIP3    H172974   3.476   2.019   5.360  1.4336  0.2761  0.3810
17161TIP3    H272975   3.429   1.875   5.364 -1.0382  0.9925 -1.7797
17162TIP3   OH272976   5.901   2.515  11.940 -0.1946 -0.5424  0.1175
17162TIP3    H172977   5.924   2.537  11.850 -1.7618 -1.4760 -0.5392
17162TIP3    H272978   5.941   2.584  11.993  0.0592  0.4715 -1.3669
17163TIP3   OH272979   0.276   4.265   0.730 -0.4989 -0.8038 -0.2646
17163TIP3    H172980   0.187   4.299   0.718 -0.9610 -1.8148  0.2369
17163TIP3    H272981   0.263   4.178   0.767  0.7435 -0.3336  1.3298
17164TIP3   OH272982   2.238   0.309  16.905 -0.0333  0.3504  0.7141
17164TIP3    H172983   2.199   0.229  16.940  1.1026 -0.3153  0.4549
17164TIP3    H272984   2.198   0.379  16.956 -3.3641 -0.1305 -1.0562
17165TIP3   OH272985   0.575   2.015   0.354  0.9807  0.2818 -0.3140
17165TIP3    H172986   0.571   1.931   0.400  0.7994  0.7423  0.5265
17165TIP3    H272987   0.662   2.018   0.316  0.6965 -0.6576 -1.0514
17166TIP3   OH272988   3.914   2.097  16.134  0.3307  0.0293  0.1957
17166TIP3    H172989   3.971   2.056  16.199 -1.7384  0.7624  2.5873
17166TIP3    H272990   3.886   2.024  16.077  1.9661 -0.6727  0.2733
17167TIP3   OH272991   3.683   3.166  13.737 -0.0152  0.3274 -0.0608
17167TIP3    H172992   3.669   3.071  13.729 -0.1148  0.2116  1.3252
17167TIP3    H272993   3.594   3.202  13.742  0.0344  0.2982  1.3095
17168TIP3   OH272994   3.646   6.746   2.591  0.0653 -0.4990 -0.4396
17168TIP3    H172995   3.562   6.766   2.632 -0.0436  0.0763 -0.9460
17168TIP3    H272996   3.710   6.790   2.647  0.0621 -1.2029  0.1298
17169TIP3   OH272997   1.993   5.300   6.850  0.4200 -0.5421 -0.5059
17169TIP3    H172998   2.016   5.356   6.775  0.7375 -0.3513 -0.2653
17169TIP3    H272999   2.042   5.220   6.835  1.2630 -0.1302  0.0162
17170TIP3   OH273000   2.194   2.426  10.674  0.3480  0.3611  0.1449
17170TIP3    H173001   2.249   2.417  10.597  1.8425 -0.2343  1.2486
17170TIP3    H273002   2.136   2.349  10.671 -2.0817  2.2033 -2.2649
17171TIP3   OH273003   0.297   5.615   4.020 -0.1608 -0.1315  0.1011
17171TIP3    H173004   0.364   5.574   3.966  0.1295  1.1359 -0.5119
17171TIP3    H273005   0.311   5.578   4.107  1.1522 -0.1028 -0.0848
17172TIP3   OH273006   5.363   3.054  14.431 -0.3747  0.3795 -0.1978
17172TIP3    H173007   5.345   3.088  14.343  0.4135  0.9792 -0.1237
17172TIP3    H273008   5.293   2.990  14.446 -0.6085  0.3904 -1.1979
17173TIP3   OH273009   1.444   2.012  16.203  0.2544  0.5513 -0.0073
17173TIP3    H173010   1.464   1.919  16.205  0.4281  0.5556 -1.1068
17173TIP3    H273011   1.349   2.017  16.210  0.3378  0.3461  1.2359
17174TIP3   OH273012   1.499   5.958   5.279 -0.0978  0.4132 -0.0440
17174TIP3    H173013   1.455   6.038   5.249 -2.5890 -0.9107 -0.1240
17174TIP3    H273014   1.521   5.912   5.198 -0.5726  0.0685  0.0158
17175TIP3   OH273015   6.662   5.549  11.335 -0.0935  0.3538 -0.0664
17175TIP3    H173016   6.746   5.516  11.367  0.0086 -1.1972 -1.8457
17175TIP3    H273017   6.686   5.605  11.260 -0.6389 -0.0956 -0.5793
17176TIP3   OH273018   2.741   1.600  11.158 -0.0314 -0.1771  0.1295
17176TIP3    H173019   2.821   1.561  11.194  0.2210 -0.0644 -0.2981
17176TIP3    H273020   2.717   1.668  11.221  0.8842  0.5885 -0.3351
17177TIP3   OH273021   1.872   4.121  11.927 -0.3050 -0.4966  0.0907
17177TIP3    H173022   1.932   4.134  11.854  1.9018  1.9983  2.2386
17177TIP3    H273023   1.799   4.179  11.910 -1.6984 -2.7688 -2.0065
17178TIP3   OH273024   4.094   5.682   2.883  0.0809  0.4265  0.4709
17178TIP3    H173025   4.106   5.610   2.821 -0.6062  0.2214  0.5779
17178TIP3    H273026   4.060   5.754   2.830 -0.5106  0.2503  0.6108
17179TIP3   OH273027   4.881   5.524  11.908  0.5034  0.2650  0.1245
17179TIP3    H173028   4.893   5.614  11.876 -2.1230  0.2941 -0.9738
17179TIP3    H273029   4.965   5.482  11.894  1.3642  2.1725 -0.6880
17180TIP3   OH273030   0.634   1.446   2.280 -0.0504 -0.0081 -0.1612
17180TIP3    H173031   0.711   1.502   2.275  1.2601 -1.7726 -0.4655
17180TIP3    H273032   0.617   1.436   2.373  0.9230 -0.7015 -0.0540
17181TIP3   OH273033   3.621   3.761  13.509  0.7711 -0.2005  0.6585
17181TIP3    H173034   3.658   3.674  13.492  1.7730  0.1906  0.8733
17181TIP3    H273035   3.689   3.823  13.483 -0.4070  0.5702 -0.6729
17182TIP3   OH273036   0.965   2.305  12.404 -0.4406 -0.2934  0.1226
17182TIP3    H173037   0.977   2.317  12.498  1.0029 -1.4261  0.1007
17182TIP3    H273038   1.044   2.343  12.365 -2.3114  2.7942 -0.8597
17183TIP3   OH273039   2.290   4.611   2.447 -0.0750  0.0447  0.7994
17183TIP3    H173040   2.355   4.540   2.452 -2.1115 -1.8670  0.8441
17183TIP3    H273041   2.296   4.642   2.357  0.4725 -0.5447  0.6235
17184TIP3   OH273042   6.579   2.973   2.559  0.1717  0.4001  0.2698
17184TIP3    H173043   6.561   2.965   2.465 -0.2990 -0.1876  0.4044
17184TIP3    H273044   6.673   2.958   2.567  0.0284 -0.7045  0.0101
17185TIP3   OH273045   3.655   4.293   5.916  0.4389 -0.0370  0.0921
17185TIP3    H173046   3.722   4.349   5.955 -0.5828  0.1113  1.7016
17185TIP3    H273047   3.581   4.353   5.900 -0.5289 -0.8478  1.4826
17186TIP3   OH273048   3.971   1.818   2.679 -0.3527 -0.6700 -0.1306
17186TIP3    H173049   4.059   1.789   2.656 -0.0606 -0.1083  0.2882
17186TIP3    H273050   3.983   1.902   2.724 -1.0969 -0.5821 -0.0809
17187TIP3   OH273051   2.379   5.329   2.524  0.1525 -0.1941  0.0899
17187TIP3    H173052   2.365   5.401   2.585  0.8600 -0.7030  0.8598
17187TIP3    H273053   2.389   5.371   2.438 -0.7782  0.5247  0.3226
17188TIP3   OH273054   6.589   0.748   5.279  0.5273 -0.0497  0.2184
17188TIP3    H173055   6.668   0.801   5.267  0.0329  0.7824  0.5551
17188TIP3    H273056   6.540   0.793   5.347 -0.2335 -0.5650  0.0255
17189TIP3   OH273057   2.174   2.524  12.216  0.4102  0.0620 -0.2443
17189TIP3    H173058   2.102   2.578  12.182  1.9760  1.9119 -0.7423
17189TIP3    H273059   2.148   2.504  12.306 -0.4725  1.2360 -0.2184
17190TIP3   OH273060   3.951   3.314  14.800  0.1045 -0.2408  0.2254
17190TIP3    H173061   3.953   3.276  14.887  1.4217  0.9530  0.7353
17190TIP3    H273062   3.857   3.319  14.778 -0.2778  0.2295  1.9095
17191TIP3   OH273063   1.689   0.050  14.068  0.1273  0.6697 -0.2600
17191TIP3    H173064   1.691  -0.042  14.094 -0.0315  0.3896 -1.2472
17191TIP3    H273065   1.723   0.096  14.145  0.3770 -0.2223  0.1780
17192TIP3   OH273066   3.742   0.837   4.605 -0.2900  0.3983  0.0618
17192TIP3    H173067   3.798   0.889   4.662  0.2030  1.1829 -1.1283
17192TIP3    H273068   3.719   0.895   4.533  0.1933 -0.9807 -1.2387
17193TIP3   OH273069   5.301   4.374  16.793  0.0179 -0.4800 -0.3832
17193TIP3    H173070   5.344   4.458  16.807  2.2819 -1.7068  0.2359
17193TIP3    H273071   5.243   4.389  16.718 -0.7906  2.0176  0.6868
17194TIP3   OH273072   0.713   6.593   4.924  0.4566 -0.8954 -0.4345
17194TIP3    H173073   0.639   6.541   4.891  0.7431  0.1084 -2.7322
17194TIP3    H273074   0.743   6.545   5.001 -2.2092 -1.6481  0.2100
17195TIP3   OH273075   5.589   3.852  12.091 -0.6553 -0.3349 -0.4458
17195TIP3    H173076   5.582   3.831  11.997  0.4100 -1.6326 -0.2548
17195TIP3    H273077   5.562   3.943  12.097  1.0748  0.3431 -2.2976
17196TIP3   OH273078   0.326   0.947   2.343  0.3146 -0.3192 -0.2615
17196TIP3    H173079   0.395   0.933   2.408 -0.4646 -0.5256  0.5303
17196TIP3    H273080   0.247   0.961   2.395  0.0416  1.4810 -1.1479
17197TIP3   OH273081   5.513   6.573   0.439 -0.2139 -0.0597  0.4616
17197TIP3    H173082   5.512   6.555   0.533 -1.4176 -0.0731  0.4533
17197TIP3    H273083   5.574   6.507   0.403  0.5432  0.1894  1.2616
17198TIP3   OH273084   3.779   2.353  14.003  0.7358 -0.7208  0.2404
17198TIP3    H173085   3.740   2.424  13.952  1.0937 -0.3448  0.4908
17198TIP3    H273086   3.871   2.377  14.011  0.4911 -0.2238  1.9651
17199TIP3   OH273087   6.030   1.200   6.647  0.3132 -0.6344 -0.3576
17199TIP3    H173088   6.077   1.272   6.689  1.1359 -0.6327 -1.2627
17199TIP3    H273089   6.060   1.122   6.692  0.0465 -0.4910  0.0716
17200TIP3   OH273090   0.924   0.867   4.846  0.1385 -0.1659  0.0168
17200TIP3    H173091   0.953   0.941   4.792 -0.2822  0.8673  1.1929
17200TIP3    H273092   1.005   0.825   4.873  0.3538 -0.7924 -1.5411
17201TIP3   OH273093   3.940   3.591   2.359  0.1234  0.3099 -0.6590
17201TIP3    H173094   3.879   3.551   2.297 -0.3215  1.9790 -1.3011
17201TIP3    H273095   3.973   3.668   2.314  0.4445  1.0667  0.8480
17202TIP3   OH273096   2.814   0.871   4.916  0.3674 -0.6258 -0.0138
17202TIP3    H173097   2.863   0.885   4.835 -0.4532 -1.2623 -0.6347
17202TIP3    H273098   2.881   0.865   4.984  1.0782 -0.3372 -0.6782
17203TIP3   OH273099   5.063   6.791  12.968  0.0468 -0.0664 -0.5824
17203TIP3    H173100   5.118   6.722  12.931  0.4680  1.1399 -2.3022
17203TIP3    H273101   5.103   6.811  13.053  1.0473 -0.6158 -0.9194
17204TIP3   OH273102   5.667   3.385   3.237 -0.3241 -0.2458  0.8760
17204TIP3    H173103   5.624   3.366   3.320 -2.8049 -2.9196 -0.9231
17204TIP3    H273104   5.728   3.313   3.225  1.2915  1.0507  1.1628
17205TIP3   OH273105   1.913   2.909  14.372 -0.3061 -0.1698  0.6636
17205TIP3    H173106   1.866   2.925  14.290 -0.4113  1.1138  0.9592
17205TIP3    H273107   1.844   2.886  14.435 -0.2288 -1.1232  0.4025
17206TIP3   OH273108   3.321   3.202   3.836  0.3093  0.3221 -0.0549
17206TIP3    H173109   3.312   3.217   3.931 -0.1987  1.3948 -0.2679
17206TIP3    H273110   3.378   3.125   3.830 -0.2849 -0.2276  1.1353
17207TIP3   OH273111   6.004   3.683   0.958  0.2210  0.0585 -0.0696
17207TIP3    H173112   5.915   3.718   0.965  0.3792  0.0633  2.3632
17207TIP3    H273113   6.026   3.691   0.866 -2.5579 -0.5399 -0.8235
17208TIP3   OH273114   1.701   4.174  16.778 -0.2207 -0.3044 -0.0639
17208TIP3    H173115   1.671   4.104  16.835  0.2173  0.2880  0.8964
17208TIP3    H273116   1.666   4.254  16.817  0.5300  0.1538 -0.3198
17209TIP3   OH273117   4.794   2.864   4.527 -0.5012 -1.3563  0.3956
17209TIP3    H173118   4.829   2.812   4.454  0.8265  1.6347 -1.1717
17209TIP3    H273119   4.699   2.867   4.511 -0.4644 -2.4064 -0.0719
17210TIP3   OH273120   2.622   2.611   6.223 -0.2347  0.1817  0.2736
17210TIP3    H173121   2.595   2.643   6.309 -3.0971  0.1586 -0.5501
17210TIP3    H273122   2.597   2.518   6.223  1.2061 -0.2259 -0.0415
17211TIP3   OH273123   3.166   2.630   5.469  0.2144 -0.0868  0.3701
17211TIP3    H173124   3.121   2.713   5.481  0.0293 -0.1738  0.2857
17211TIP3    H273125   3.190   2.603   5.558  0.3177  0.0805  0.3923
17212TIP3   OH273126   6.367   6.464   1.604  0.6468 -0.0291  0.4045
17212TIP3    H173127   6.330   6.377   1.589  1.3254 -0.3466  0.5312
17212TIP3    H273128   6.342   6.486   1.694  0.1722  0.0633  0.2522
17213TIP3   OH273129   5.320   6.165   0.715  0.6909 -0.9292  0.1211
17213TIP3    H173130   5.240   6.216   0.702 -0.3403 -2.5805 -0.1538
17213TIP3    H273131   5.355   6.197   0.798 -1.4214 -1.6857  1.3358
17214TIP3   OH273132   3.929   2.646   2.255  0.1629 -0.1443  0.1597
17214TIP3    H173133   3.961   2.557   2.269  0.3994 -0.2249 -0.8493
17214TIP3    H273134   3.847   2.635   2.207  0.3495  0.1942 -0.2393
17215TIP3   OH273135   2.721   5.755   1.252 -0.0839  0.0257 -0.4052
17215TIP3    H173136   2.786   5.746   1.182 -0.6700 -0.2946 -0.9129
17215TIP3    H273137   2.755   5.826   1.307  1.7503 -1.5574  0.5278
17216TIP3   OH273138   5.900   4.468   3.796 -0.5857 -0.0881 -0.1102
17216TIP3    H173139   5.831   4.452   3.733 -0.2938 -1.3437 -0.1256
17216TIP3    H273140   5.981   4.458   3.746 -0.3791  0.7526  0.0475
17217TIP3   OH273141   4.264   5.905   0.676 -0.6528  0.0655  0.5830
17217TIP3    H173142   4.310   5.989   0.679  0.0137 -0.1694 -1.9966
17217TIP3    H273143   4.175   5.928   0.650 -0.4298 -0.0339 -0.2755
17218TIP3   OH273144   3.979   1.890  11.074 -0.1371  0.1221  0.1365
17218TIP3    H173145   3.968   1.984  11.057 -0.5285 -0.3665 -2.4868
17218TIP3    H273146   4.072   1.880  11.093 -0.0921  1.0355  0.4205
17219TIP3   OH273147   3.072   6.695  15.045 -0.6537 -0.1680  0.2037
17219TIP3    H173148   2.991   6.691  14.994 -0.3732  0.2150 -0.2810
17219TIP3    H273149   3.139   6.665  14.984  0.1110  2.8856 -0.5628
17220TIP3   OH273150   0.067   4.863  10.561 -0.1969 -0.1583 -0.3265
17220TIP3    H173151   0.122   4.796  10.601 -0.8892 -0.2278  0.5351
17220TIP3    H273152   0.118   4.895  10.486  2.0198  1.3653  1.7282
17221TIP3   OH273153   2.758   1.290   2.395 -0.5044  0.3008 -0.3325
17221TIP3    H173154   2.828   1.270   2.457 -0.5045 -1.3550 -0.8566
17221TIP3    H273155   2.712   1.207   2.382 -1.2515  0.8953 -1.6241
17222TIP3   OH273156   6.075   5.983   5.181 -0.0467  0.8368  0.0003
17222TIP3    H173157   6.042   5.982   5.091 -0.0486  0.3801  0.0026
17222TIP3    H273158   6.154   6.036   5.177  0.8877 -0.5807 -0.6081
17223TIP3   OH273159   2.111   3.588  10.324 -0.0683 -0.0435 -0.1414
17223TIP3    H173160   2.203   3.611  10.317 -0.2331  0.5890 -0.2459
17223TIP3    H273161   2.095   3.582  10.418 -0.3065  1.4371 -0.0759
17224TIP3   OH273162   5.150   3.430  11.828  0.4971 -0.5595  0.0357
17224TIP3    H173163   5.149   3.342  11.790  0.4404 -0.3428 -0.4804
17224TIP3    H273164   5.116   3.419  11.916 -0.1831 -0.9466 -0.2687
17225TIP3   OH273165   3.054   4.898  11.654 -0.0862  0.2790 -0.2684
17225TIP3    H173166   3.123   4.869  11.712 -0.3313  0.9664  0.3734
17225TIP3    H273167   3.082   4.869  11.567 -0.3239 -1.8660  0.3344
17226TIP3   OH273168   4.792   5.045  15.832 -0.8742 -0.3374 -0.1088
17226TIP3    H173169   4.737   5.088  15.766 -0.4249  0.8407  0.2781
17226TIP3    H273170   4.882   5.062  15.803 -0.6705  0.2396  0.8233
17227TIP3   OH273171   3.552   4.156  14.325  0.3930 -0.5549  0.0973
17227TIP3    H173172   3.478   4.214  14.342  0.4151  0.3989 -2.6958
17227TIP3    H273173   3.523   4.103  14.251  2.7013  0.2808 -1.4644
17228TIP3   OH273174   1.014   0.263   2.408  0.1780  0.1381 -0.3988
17228TIP3    H173175   1.067   0.342   2.413 -0.3389  0.3908  1.4780
17228TIP3    H273176   0.981   0.261   2.318  0.0970  2.1253 -0.4181
17229TIP3   OH273177   5.880   4.068  14.546  0.4397  0.3749 -0.2580
17229TIP3    H173178   5.953   4.121  14.513  1.7998 -1.7705 -0.8105
17229TIP3    H273179   5.898   4.056  14.639  1.7518 -1.6172 -0.7509
17230TIP3   OH273180   3.343   6.119   5.315  0.1751 -0.1323  0.2768
17230TIP3    H173181   3.361   6.208   5.347 -2.6450  0.4599  0.4384
17230TIP3    H273182   3.351   6.064   5.393 -0.6089  0.4066  0.7620
17231TIP3   OH273183   4.803   3.764   3.906  0.1273  0.0852  0.2107
17231TIP3    H173184   4.850   3.691   3.946 -0.3646  0.8439  2.2228
17231TIP3    H273185   4.783   3.734   3.817 -0.6689 -2.5034  1.2201
17232TIP3   OH273186   5.796   1.367   2.258 -0.7154 -0.4114 -0.5298
17232TIP3    H173187   5.717   1.313   2.259 -0.0208 -1.4667 -1.1144
17232TIP3    H273188   5.858   1.320   2.315 -0.4066  0.2347 -0.3277
17233TIP3   OH273189   4.878   0.327  11.097  0.1833 -0.4870 -0.0627
17233TIP3    H173190   4.921   0.314  11.181  1.1480  0.7411 -0.3562
17233TIP3    H273191   4.818   0.253  11.089  1.9084 -1.9853  0.5588
17234TIP3   OH273192   0.104   6.754   3.421 -0.0616 -0.1678 -0.0033
17234TIP3    H173193   0.083   6.839   3.462 -1.2678  0.5415 -2.0149
17234TIP3    H273194   0.191   6.733   3.453  0.4033  2.0208  0.2677
17235TIP3   OH273195   1.175   6.390   2.722 -0.4197 -0.1755  0.0886
17235TIP3    H173196   1.185   6.468   2.667 -0.9410  0.3843  0.7752
17235TIP3    H273197   1.160   6.425   2.810  0.3133 -1.0687  0.5672
17236TIP3   OH273198   0.474   3.389  15.435  0.1627 -1.0653 -0.4183
17236TIP3    H173199   0.540   3.408  15.502  0.8643 -3.0083 -0.5228
17236TIP3    H273200   0.450   3.298  15.451 -0.5207 -1.1793 -2.0734
17237TIP3   OH273201   4.216   4.502   4.626  0.1387  0.3792 -0.1293
17237TIP3    H173202   4.157   4.455   4.567 -0.5429 -0.1547  0.9602
17237TIP3    H273203   4.173   4.586   4.642 -0.6222 -0.2182  1.0901
17238TIP3   OH273204   5.844   0.887   1.672 -0.0601  0.2174 -0.1323
17238TIP3    H173205   5.863   0.955   1.607  0.5246 -0.0650 -0.2617
17238TIP3    H273206   5.907   0.818   1.652 -0.3146 -0.1437  0.3272
17239TIP3   OH273207   5.492   0.460   3.019 -0.2545 -0.0604 -0.5093
17239TIP3    H173208   5.473   0.367   3.008 -1.2174  0.0333  0.2877
17239TIP3    H273209   5.450   0.502   2.944 -1.5700 -0.0599  0.2187
17240TIP3   OH273210   0.482   4.964  16.703  0.2179 -0.1043  0.1501
17240TIP3    H173211   0.401   4.925  16.670  1.7829 -1.0933 -2.6417
17240TIP3    H273212   0.486   4.934  16.794 -3.6235  1.7921  1.0746
17241TIP3   OH273213   6.376   3.418   3.296 -0.1294 -0.4597  0.0850
17241TIP3    H173214   6.429   3.441   3.372 -0.2675  0.7691 -0.1878
17241TIP3    H273215   6.412   3.469   3.224 -2.6192  1.5720  0.2097
17242TIP3   OH273216   5.038   0.150  13.887  0.4330 -0.1790 -0.2734
17242TIP3    H173217   4.989   0.076  13.924 -0.1121 -0.2127 -1.0544
17242TIP3    H273218   5.128   0.118  13.879  0.6913  0.0165  1.5534
17243TIP3   OH273219   2.244   0.272   5.844 -0.3223 -0.5651  0.4417
17243TIP3    H173220   2.216   0.362   5.860  0.0370 -0.4728  0.5504
17243TIP3    H273221   2.292   0.247   5.923 -1.9399 -1.4591  1.1577
17244TIP3   OH273222   6.372   1.638   3.585  0.1830 -0.0521 -0.3094
17244TIP3    H173223   6.421   1.628   3.504  0.7076  0.4950 -0.0579
17244TIP3    H273224   6.407   1.717   3.626 -0.1033 -0.2998  0.4343
17245TIP3   OH273225   6.701   0.290  13.422 -0.1388  0.4176  0.2026
17245TIP3    H173226   6.712   0.372  13.375  0.3773  0.9740  1.2869
17245TIP3    H273227   6.656   0.233  13.360 -2.2177  2.1163  0.0984
17246TIP3   OH273228   3.281   1.906   0.507 -0.5923 -0.0480 -0.5548
17246TIP3    H173229   3.230   1.924   0.428 -0.9284  0.1252 -0.3026
17246TIP3    H273230   3.309   1.815   0.497 -0.8816 -0.1193 -0.7386
17247TIP3   OH273231   0.185   5.526   2.543  0.4831  0.2197 -0.0578
17247TIP3    H173232   0.153   5.452   2.492  0.8991 -0.1669  0.2411
17247TIP3    H273233   0.156   5.603   2.493 -0.6402 -0.1202  0.0380
17248TIP3   OH273234   2.937   4.270   4.405  0.4798 -0.0907 -0.3263
17248TIP3    H173235   2.995   4.196   4.390  0.6108  0.5429 -3.2367
17248TIP3    H273236   2.851   4.239   4.377 -0.2337 -0.3541  2.0458
17249TIP3   OH273237   2.508   1.596   3.745  0.4026 -0.0820 -0.7871
17249TIP3    H173238   2.491   1.687   3.769 -2.1704 -0.9585  0.9497
17249TIP3    H273239   2.462   1.584   3.661 -0.7308 -0.1964 -0.1710
17250TIP3   OH273240   5.439   3.902   5.834  0.2683  0.2800 -0.6054
17250TIP3    H173241   5.427   3.889   5.740 -0.8196 -0.0327 -0.4308
17250TIP3    H273242   5.457   3.814   5.868 -2.7296 -0.1666 -0.0492
17251TIP3   OH273243   1.682   2.484   2.468  0.1810 -0.0687  0.3147
17251TIP3    H173244   1.668   2.578   2.465 -0.0591 -0.0613  1.6421
17251TIP3    H273245   1.710   2.461   2.379  1.2045  1.3994  0.2519
17252TIP3   OH273246   6.057   2.030  13.044 -0.2849  0.6341 -0.4300
17252TIP3    H173247   6.057   2.124  13.061  1.6989  0.6021 -0.0689
17252TIP3    H273248   6.008   2.020  12.963  0.2453  2.0913 -0.9580
17253TIP3   OH273249   0.199   1.937  12.624 -0.0825  0.3742 -0.0418
17253TIP3    H173250   0.116   1.895  12.646 -0.2027 -0.8122 -2.5679
17253TIP3    H273251   0.266   1.874  12.651 -0.1463 -0.0464 -0.8327
17254TIP3   OH273252   5.838   5.418  11.869  0.7100  0.0541 -0.5973
17254TIP3    H173253   5.824   5.385  11.780  1.7489 -0.1824 -0.6739
17254TIP3    H273254   5.876   5.505  11.856 -0.6842  0.7173 -0.3848
17255TIP3   OH273255   3.514   4.744   6.380 -0.5004  0.0800 -0.1268
17255TIP3    H173256   3.491   4.658   6.416 -0.9866  0.3186  0.1496
17255TIP3    H273257   3.433   4.795   6.388  0.7912  1.7516  3.2730
17256TIP3   OH273258   6.687   3.201   0.467  0.0668  0.0347 -0.1943
17256TIP3    H173259   6.752   3.235   0.406  1.2822 -1.9036 -0.0093
17256TIP3    H273260   6.662   3.277   0.520  2.4398  0.7289 -0.0340
17257TIP3   OH273261   0.491   5.217   1.324 -0.2955  0.3107  0.0841
17257TIP3    H173262   0.562   5.189   1.382 -1.2547 -0.5586  0.8508
17257TIP3    H273263   0.534   5.275   1.261  1.0330  0.0829  0.7507
17258TIP3   OH273264   1.086   0.500  14.517 -0.1068 -0.5572 -0.3777
17258TIP3    H173265   1.142   0.441  14.568  0.1416 -1.1012 -1.2589
17258TIP3    H273266   1.123   0.498  14.429 -1.4642 -0.8630 -0.9594
17259TIP3   OH273267   1.811   3.509   3.484  0.2160 -0.6908 -0.0116
17259TIP3    H173268   1.718   3.492   3.493  0.4662 -2.1862 -0.2457
17259TIP3    H273269   1.816   3.594   3.441 -1.0416 -1.3031 -1.3702
17260TIP3   OH273270   5.999   1.915   2.009 -0.8159  0.1300  0.0969
17260TIP3    H173271   6.092   1.935   2.020 -1.1775  1.1217  1.6322
17260TIP3    H273272   5.969   1.894   2.098 -1.7360 -1.6102 -0.6183
17261TIP3   OH273273   0.444   3.735  14.528 -0.3257  0.4107  0.0632
17261TIP3    H173274   0.401   3.673  14.588 -0.1401  0.8705  0.6806
17261TIP3    H273275   0.489   3.796  14.586 -0.1145  0.8424 -0.5560
17262TIP3   OH273276   0.335   3.192  12.494  1.0833 -0.5130  0.3035
17262TIP3    H173277   0.259   3.248  12.481 -0.0011 -1.5823  1.8158
17262TIP3    H273278   0.403   3.229  12.438 -0.5748  0.4100 -1.1400
17263TIP3   OH273279   5.123   4.718  11.449  0.1398 -0.6425 -0.4938
17263TIP3    H173280   5.135   4.627  11.421  3.1741  0.1579 -2.0263
17263TIP3    H273281   5.111   4.713  11.544 -0.2825 -2.6909 -0.6431
17264TIP3   OH273282   3.741   5.317   6.021 -0.1757 -0.5328 -0.0534
17264TIP3    H173283   3.788   5.363   5.951 -0.2318  0.1366  0.3392
17264TIP3    H273284   3.667   5.275   5.977 -0.4662  0.2556 -0.3340
17265TIP3   OH273285   4.425   1.389  11.485 -0.1354 -0.2326  0.5343
17265TIP3    H173286   4.408   1.478  11.452  1.0003 -1.1789 -2.7814
17265TIP3    H273287   4.497   1.400  11.547  0.7158  1.0340 -0.6515
17266TIP3   OH273288   4.578   3.201   4.964  0.1951  0.1793 -0.2998
17266TIP3    H173289   4.608   3.252   5.039  0.1140 -0.4976  0.2039
17266TIP3    H273290   4.531   3.263   4.909 -0.6230  0.4638  0.7141
17267TIP3   OH273291   2.256   1.864   4.421 -0.4470  0.5715 -0.8096
17267TIP3    H173292   2.208   1.832   4.345  0.3179  0.7192 -1.3698
17267TIP3    H273293   2.329   1.915   4.383 -1.3614  2.5821  0.0465
17268TIP3   OH273294   5.769   6.271   3.049  0.0226  0.1509  0.5280
17268TIP3    H173295   5.762   6.353   3.002 -1.1322 -0.4584 -0.3958
17268TIP3    H273296   5.680   6.251   3.077  0.4728 -0.1981  1.7843
17269TIP3   OH273297   0.824   0.860   2.165  0.4293 -0.2211 -0.7892
17269TIP3    H173298   0.777   0.848   2.082  0.7513 -1.1453 -0.8377
17269TIP3    H273299   0.829   0.956   2.175 -2.0560 -0.0940 -0.4197
17270TIP3   OH273300   4.118   5.300   4.607 -0.1139  0.4404 -0.1522
17270TIP3    H173301   4.175   5.223   4.604 -0.5064  0.1124  0.5754
17270TIP3    H273302   4.170   5.370   4.568  0.9503  0.2533  0.9089
17271TIP3   OH273303   0.207   4.947   0.127 -0.1095  0.2134  0.3252
17271TIP3    H173304   0.268   4.875   0.114 -1.4901 -1.0323  0.6310
17271TIP3    H273305   0.189   4.946   0.221 -0.8500  0.3699  0.1846
17272TIP3   OH273306   4.975   6.273   1.492  0.0148  0.0562  0.5006
17272TIP3    H173307   4.925   6.304   1.568  1.3474 -0.2895  1.5370
17272TIP3    H273308   4.908   6.245   1.430 -1.1094  0.4616  1.4929
17273TIP3   OH273309   6.759   5.181  12.650  0.3897 -0.0126 -0.4590
17273TIP3    H173310   6.685   5.196  12.592  0.6968  0.1388 -0.8168
17273TIP3    H273311   6.764   5.085  12.658 -0.5780  0.0024  0.5336
17274TIP3   OH273312   3.981   2.451  12.248 -0.4466 -1.0981 -0.3707
17274TIP3    H173313   3.978   2.468  12.154 -0.2733 -0.2624 -0.2328
17274TIP3    H273314   4.057   2.394  12.260 -0.4170 -1.1306 -0.7284
17275TIP3   OH273315   1.962   0.774   2.429  0.0290  0.7195 -0.3911
17275TIP3    H173316   1.924   0.712   2.366  2.1924  0.4592 -1.4965
17275TIP3    H273317   2.030   0.819   2.379 -0.0104  2.3916  1.0502
17276TIP3   OH273318   0.324   6.310  11.659  0.5406  0.1179  0.0913
17276TIP3    H173319   0.240   6.264  11.649  0.5834  0.4604 -1.9175
17276TIP3    H273320   0.302   6.390  11.705  0.0765 -0.6977  1.3281
17277TIP3   OH273321   1.497   5.646   2.334  0.0968 -0.4674  0.3943
17277TIP3    H173322   1.524   5.721   2.280  0.2314 -1.5186 -1.0296
17277TIP3    H273323   1.568   5.636   2.398  0.6446 -0.0900 -0.1458
17278TIP3   OH273324   3.347   2.728   3.951  0.4730 -0.0731 -0.1161
17278TIP3    H173325   3.416   2.704   3.889 -0.4314 -2.1517 -0.3488
17278TIP3    H273326   3.380   2.698   4.036  0.8985  1.1120  0.1478
17279TIP3   OH273327   3.272   3.790   0.137  0.0731 -0.4202  0.2912
17279TIP3    H173328   3.210   3.774   0.066  1.1634 -0.5224 -0.6386
17279TIP3    H273329   3.326   3.711   0.139  1.6799  0.6479 -0.4451
17280TIP3   OH273330   0.328   6.610  16.043  0.0729 -0.4625  0.4852
17280TIP3    H173331   0.363   6.534  15.995 -0.1497 -1.7718  2.3365
17280TIP3    H273332   0.236   6.615  16.017  0.3272 -0.1878 -0.4044
17281TIP3   OH273333   2.360   4.470  16.251  0.1241  0.6527  0.3099
17281TIP3    H173334   2.335   4.453  16.342  0.6817  1.7808  0.6667
17281TIP3    H273335   2.441   4.520  16.256 -0.0856  1.1232 -0.7967
17282TIP3   OH273336   5.365   6.170   4.878  0.3747 -0.2190 -0.2655
17282TIP3    H173337   5.332   6.086   4.910  0.7242 -0.4677 -0.5545
17282TIP3    H273338   5.426   6.200   4.945  0.7792 -0.5313 -0.4959
17283TIP3   OH273339   6.727   1.407   1.406 -0.4053 -0.1684 -0.3846
17283TIP3    H173340   6.728   1.379   1.497 -2.6783 -0.7477 -0.4969
17283TIP3    H273341   6.779   1.487   1.404 -4.0155  2.4414  2.3327
17284TIP3   OH273342   0.218   5.075  15.875 -0.4294 -0.1396  0.0401
17284TIP3    H173343   0.125   5.081  15.853 -0.0438  0.0642 -1.6011
17284TIP3    H273344   0.260   5.138  15.817  0.9042 -1.3641 -0.3515
17285TIP3   OH273345   2.048   6.389   4.482 -0.4159  0.2983 -0.4789
17285TIP3    H173346   2.100   6.309   4.493 -0.4760  0.2835 -0.3007
17285TIP3    H273347   1.959   6.358   4.466 -0.6697  0.3368  0.7582
17286TIP3   OH273348   3.775   3.129   0.113  0.1273  0.0574  0.3820
17286TIP3    H173349   3.826   3.211   0.108  0.0448  0.0773 -0.1125
17286TIP3    H273350   3.752   3.122   0.205 -0.0758  0.7264  0.3855
17287TIP3   OH273351   3.927   4.352   3.165 -0.0821  0.3076  0.0190
17287TIP3    H173352   3.948   4.288   3.233  0.0732 -0.9735 -1.2200
17287TIP3    H273353   4.011   4.391   3.143 -0.0840  0.4818  0.3110
17288TIP3   OH273354   3.336   2.536  17.049  0.2962 -0.3887 -0.3595
17288TIP3    H173355   3.310   2.445  17.059  0.5583 -0.3580  0.7084
17288TIP3    H273356   3.284   2.583  17.115  0.2596  0.2073 -0.8159
17289TIP3   OH273357   4.280   0.814   1.626 -0.5977 -0.4976  1.0666
17289TIP3    H173358   4.201   0.796   1.575 -0.5229  1.5127  0.2052
17289TIP3    H273359   4.345   0.841   1.561 -0.5232  2.1707  2.1740
17290TIP3   OH273360   6.213   3.336   4.701 -0.1626  0.0356 -0.6803
17290TIP3    H173361   6.252   3.323   4.614  1.0806 -1.8977  0.1390
17290TIP3    H273362   6.175   3.251   4.723 -0.0761  0.3904  0.8660
17291TIP3   OH273363   6.185   4.192   2.069 -0.5482  0.0145 -0.3827
17291TIP3    H173364   6.105   4.169   2.116 -0.9496 -1.4918 -1.7482
17291TIP3    H273365   6.251   4.133   2.105  0.0681  1.5216  1.0200
17292TIP3   OH273366   6.547   1.949   5.291 -0.7492 -0.4591 -0.5850
17292TIP3    H173367   6.508   1.861   5.295 -0.4289 -0.5877 -0.1901
17292TIP3    H273368   6.472   2.008   5.281 -1.2778 -0.5313  2.3218
17293TIP3   OH273369   3.333   3.628  13.209  0.2244 -0.7315 -0.4151
17293TIP3    H173370   3.274   3.553  13.199 -0.8020 -0.3874  2.4173
17293TIP3    H273371   3.420   3.590  13.220 -0.2391 -1.5246  0.6214
17294TIP3   OH273372   3.652   2.195   3.433  0.3840  0.8137 -0.3218
17294TIP3    H173373   3.692   2.205   3.519  1.4470  0.4871 -0.7657
17294TIP3    H273374   3.558   2.204   3.449  0.6500  1.9849  0.6753
17295TIP3   OH273375   4.505   3.266   3.019  0.4440  0.9840  0.1596
17295TIP3    H173376   4.478   3.349   3.059  0.7849  0.5992  1.2170
17295TIP3    H273377   4.504   3.283   2.925 -1.7078  1.5009  0.2532
17296TIP3   OH273378   0.781   6.466   2.205  0.2812 -0.4039  0.3082
17296TIP3    H173379   0.760   6.559   2.199 -0.2002 -0.5921 -0.9754
17296TIP3    H273380   0.830   6.458   2.287 -0.2283  0.8694  0.7443
17297TIP3   OH273381   6.033   5.186   3.618  0.0957 -0.2768  0.9769
17297TIP3    H173382   6.083   5.109   3.591 -0.5226 -0.4182  0.2312
17297TIP3    H273383   6.085   5.225   3.688  1.5116 -0.1507 -0.1224
17298TIP3   OH273384   3.702   0.190   3.221  0.2419 -0.2879 -0.2449
17298TIP3    H173385   3.677   0.282   3.211  2.1509  0.1155 -1.3601
17298TIP3    H273386   3.632   0.142   3.176  0.1308  0.6978 -1.1561
17299TIP3   OH273387   5.340   6.494  12.698  0.1436 -0.4994 -0.0980
17299TIP3    H173388   5.299   6.571  12.657  0.0468 -0.2950  0.3768
17299TIP3    H273389   5.361   6.523  12.787 -0.1003 -1.0902  0.1578
17300TIP3   OH273390   1.637   1.975  11.880 -0.1542 -0.2736 -0.1365
17300TIP3    H173391   1.607   2.066  11.875  1.1386  0.1548 -0.1615
17300TIP3    H273392   1.678   1.958  11.795 -0.6343 -0.9685 -0.2316
17301TIP3   OH273393   5.933   5.988  13.889 -0.2608  0.1024  0.2848
17301TIP3    H173394   5.977   5.957  13.810  1.3039 -0.1888  1.2393
17301TIP3    H273395   5.840   5.983  13.869  0.1143 -0.2323 -1.4324
17302TIP3   OH273396   4.157   1.866   5.450 -0.5895 -0.0865  0.1077
17302TIP3    H173397   4.216   1.940   5.446 -1.7095  0.8289  0.3077
17302TIP3    H273398   4.120   1.869   5.538 -1.4081 -0.2756 -0.2223
17303TIP3   OH273399   3.571   4.049   3.115 -0.2612 -0.6843  0.2536
17303TIP3    H173400   3.508   4.035   3.185 -2.0304  1.9126 -0.7305
17303TIP3    H273401   3.555   3.978   3.053 -0.3993 -1.5519  1.2693
17304TIP3   OH273402   1.947   2.628  13.132 -0.1019 -0.0971 -0.2083
17304TIP3    H173403   1.958   2.649  13.225 -0.8856 -0.4300 -0.0381
17304TIP3    H273404   1.886   2.694  13.100  2.1000  1.5710 -1.0786
17305TIP3   OH273405   4.152   3.205  15.268  0.0352 -0.4891  0.2048
17305TIP3    H173406   4.201   3.184  15.347 -0.8689  0.6156  1.0795
17305TIP3    H273407   4.145   3.301  15.269 -3.3083 -0.6894  0.8184
17306TIP3   OH273408   0.798   0.631   0.654 -0.3665  0.1684 -0.0911
17306TIP3    H173409   0.883   0.654   0.616  1.2391 -0.8279  2.7052
17306TIP3    H273410   0.781   0.542   0.622  0.2905 -0.1307  0.3755
17307TIP3   OH273411   2.547   0.686  15.059  0.0638 -0.2599 -0.5037
17307TIP3    H173412   2.517   0.643  14.979 -1.5299 -1.0399  0.4821
17307TIP3    H273413   2.627   0.731  15.033 -0.7919  0.0886 -2.7117
17308TIP3   OH273414   1.839   6.177   3.257 -0.6548  0.5891  0.6822
17308TIP3    H173415   1.911   6.177   3.321 -1.0842  0.9975  1.1612
17308TIP3    H273416   1.883   6.191   3.173 -0.1936  1.0900  1.0001
17309TIP3   OH273417   2.741   0.152  12.113 -0.4653  0.1321  0.2555
17309TIP3    H173418   2.658   0.149  12.160 -0.4473  0.2855  0.2974
17309TIP3    H273419   2.730   0.090  12.041  0.1220 -1.3721  1.4436
17310TIP3   OH273420   3.520   1.776   1.524 -0.6429 -0.3151  0.1868
17310TIP3    H173421   3.492   1.868   1.520 -0.2429 -0.2293 -0.5098
17310TIP3    H273422   3.439   1.728   1.542 -0.9893  0.0900 -0.2868
17311TIP3   OH273423   3.201   1.577  11.290 -0.1078 -0.6002 -0.0573
17311TIP3    H173424   3.232   1.652  11.341  0.3336  0.0004 -1.1777
17311TIP3    H273425   3.172   1.616  11.207  0.3595 -1.6998 -0.7422
17312TIP3   OH273426   3.047   0.065   3.164  0.0650 -0.0700 -0.0353
17312TIP3    H173427   3.054  -0.030   3.151 -0.6117  0.1348 -1.9431
17312TIP3    H273428   3.102   0.103   3.096  0.6052  0.9195  0.9312
17313TIP3   OH273429   1.511   1.693   4.926 -0.5974  0.3200  0.0929
17313TIP3    H173430   1.581   1.723   4.985  0.2720 -1.3289 -0.0850
17313TIP3    H273431   1.551   1.694   4.839 -0.4949 -1.4518  0.0972
17314TIP3   OH273432   1.798   4.484  11.706 -0.0103 -0.5666  0.7028
17314TIP3    H173433   1.872   4.468  11.766  0.4812 -1.5434 -0.1472
17314TIP3    H273434   1.820   4.567  11.663  1.3124 -1.5374 -0.5664
17315TIP3   OH273435   1.769   3.583   3.073 -0.3361 -0.2675 -0.0929
17315TIP3    H173436   1.773   3.490   3.051  0.3859 -0.3006  0.1415
17315TIP3    H273437   1.784   3.627   2.989 -1.0619 -0.3545 -0.2723
17316TIP3   OH273438   6.270   0.399  11.319  0.4248  0.3186 -0.0737
17316TIP3    H173439   6.279   0.315  11.275  0.7430  0.8831 -1.1012
17316TIP3    H273440   6.339   0.400  11.385 -0.6800 -0.9437  1.1346
17317TIP3   OH273441   0.604   0.913  14.921 -0.0058 -0.9880 -0.1169
17317TIP3    H173442   0.579   0.925  15.012 -1.6673 -0.5662 -0.6008
17317TIP3    H273443   0.524   0.882  14.878  0.1156  0.9923 -1.8642
17318TIP3   OH273444   6.150   4.961  12.576  0.0050  0.3228  0.4234
17318TIP3    H173445   6.091   4.924  12.510 -1.0044  1.0259  0.9276
17318TIP3    H273446   6.208   5.019  12.526 -0.2121  0.2068  0.0347
17319TIP3   OH273447   3.788   2.264  13.108 -0.1865 -0.7503  0.1211
17319TIP3    H173448   3.770   2.331  13.174 -1.9053 -0.8167 -0.2629
17319TIP3    H273449   3.784   2.310  13.025 -0.8098 -1.1979 -0.1085
17320TIP3   OH273450   2.083   6.299  12.739  0.5761 -0.4153 -0.2103
17320TIP3    H173451   2.125   6.354  12.673  0.9208 -1.5470 -0.9503
17320TIP3    H273452   2.047   6.361  12.802  1.6711  0.6267 -0.5897
17321TIP3   OH273453   1.141   3.504   3.348  0.1471  0.0999 -0.4680
17321TIP3    H173454   1.182   3.560   3.415 -3.1039 -1.3793  2.9265
17321TIP3    H273455   1.145   3.416   3.385 -0.2530 -1.0304 -3.0138
17322TIP3   OH273456   5.115   3.831   3.942 -0.0872  0.3231  0.8502
17322TIP3    H173457   5.152   3.898   3.883 -1.5172 -0.0056 -0.4494
17322TIP3    H273458   5.029   3.812   3.906 -0.8152 -0.2289  2.8251
17323TIP3   OH273459   0.201   2.608  15.181 -0.0565  0.0390  0.1974
17323TIP3    H173460   0.233   2.524  15.150 -0.5765 -1.1248  2.7484
17323TIP3    H273461   0.126   2.627  15.124  1.8669  0.2871 -2.3675
17324TIP3   OH273462   3.886   0.785  12.459  0.0244  0.2102 -0.2015
17324TIP3    H173463   3.835   0.806  12.537 -1.4147  0.1778 -1.1094
17324TIP3    H273464   3.882   0.689  12.454  0.1932  0.2068 -0.2607
17325TIP3   OH273465   0.823   0.696   4.230 -0.0130  0.0181  0.3019
17325TIP3    H173466   0.803   0.749   4.153 -0.4811 -3.4593 -2.0720
17325TIP3    H273467   0.785   0.611   4.212  1.4799 -1.4588  3.6087
17326TIP3   OH273468   6.493   1.580  15.548 -0.2689  0.2360  0.2603
17326TIP3    H173469   6.464   1.489  15.553  1.7804 -0.8087 -4.0946
17326TIP3    H273470   6.422   1.626  15.504  0.1751 -0.0914 -0.8315
17327TIP3   OH273471   5.335   3.191   4.089  0.4018  0.9318  0.4257
17327TIP3    H173472   5.419   3.190   4.134 -0.7521 -0.3412  2.6140
17327TIP3    H273473   5.353   3.234   4.005  2.4827  3.7910  2.2632
17328TIP3   OH273474   2.758   3.786  14.074  0.1884 -0.1883 -0.0594
17328TIP3    H173475   2.684   3.846  14.084  0.7426  0.3188  1.1891
17328TIP3    H273476   2.718   3.700  14.059 -0.6196  0.4388 -1.6643
17329TIP3   OH273477   1.749   5.917  12.797  0.6065 -0.2635  0.5865
17329TIP3    H173478   1.690   5.983  12.760 -0.9014 -1.3352  1.0320
17329TIP3    H273479   1.815   5.904  12.729 -0.0295  0.4991 -0.1873
17330TIP3   OH273480   5.387   3.538  11.100 -0.1074 -0.0876  0.7821
17330TIP3    H173481   5.366   3.617  11.050  1.4848  1.3172  2.2344
17330TIP3    H273482   5.482   3.528  11.091 -0.4667 -2.7390 -0.6083
17331TIP3   OH273483   0.175   5.432   1.953 -0.0690 -0.4439 -0.3670
17331TIP3    H173484   0.234   5.451   2.026 -1.9656 -0.3682  1.1975
17331TIP3    H273485   0.211   5.482   1.879  1.0131  0.7158  0.9247
17332TIP3   OH273486   3.736   6.582   5.492 -0.0400 -0.4893 -0.0041
17332TIP3    H173487   3.686   6.648   5.540 -0.3938 -0.2386 -0.7078
17332TIP3    H273488   3.826   6.615   5.492 -0.0693 -0.4155  0.3614
17333TIP3   OH273489   6.525   2.532  13.810  0.2478  0.2835 -0.1711
17333TIP3    H173490   6.536   2.546  13.904  0.3374  0.4506 -0.2055
17333TIP3    H273491   6.459   2.596  13.784  1.2222  1.1809 -0.4720
17334TIP3   OH273492   6.265   5.262   1.330  0.0537 -0.3982  0.5356
17334TIP3    H173493   6.221   5.191   1.377  1.0798  0.1271  2.3714
17334TIP3    H273494   6.337   5.220   1.284  0.0581 -0.7000  0.8162
17335TIP3   OH273495   0.112   3.896  12.550  0.3026 -0.1237  0.9434
17335TIP3    H173496   0.086   3.988  12.557  1.0081  0.0937  0.7086
17335TIP3    H273497   0.030   3.848  12.561 -0.6243  0.6409 -2.0744
17336TIP3   OH273498   0.070   5.790  15.976  0.2572 -0.8034 -0.3750
17336TIP3    H173499   0.039   5.881  15.977 -0.1683 -0.9449  0.9012
17336TIP3    H273500   0.062   5.762  15.885 -0.8371  0.0243 -0.5392
17337TIP3   OH273501   5.139   5.369   4.063 -0.3742 -0.1701 -0.0179
17337TIP3    H173502   5.093   5.358   4.146 -0.8237  0.3236 -0.1980
17337TIP3    H273503   5.087   5.434   4.015 -0.2331 -0.6026 -0.7688
17338TIP3   OH273504   1.770   6.195   4.104  0.3640 -0.0000  0.2289
17338TIP3    H173505   1.699   6.210   4.165  1.5775  1.0087  1.4477
17338TIP3    H273506   1.837   6.148   4.155  0.8914 -0.2231 -0.6533
17339TIP3   OH273507   2.852   3.350   6.638  0.5939  0.2325 -0.2586
17339TIP3    H173508   2.830   3.309   6.722  2.3420  1.7591  0.9997
17339TIP3    H273509   2.769   3.354   6.591 -0.4035 -0.7557  1.3493
17340TIP3   OH273510   3.410   3.176  12.855 -0.0663 -0.2810  0.4899
17340TIP3    H173511   3.361   3.101  12.821 -1.8903  0.5453  1.2026
17340TIP3    H273512   3.420   3.234  12.779 -0.9427 -0.0818  0.5182
17341TIP3   OH273513   4.123   3.957   5.999 -0.4503  0.4580 -0.0282
17341TIP3    H173514   4.178   3.880   5.984  0.9828  1.6208 -0.8593
17341TIP3    H273515   4.125   3.969   6.094 -2.3534 -1.7051  0.3291
17342TIP3   OH273516   1.139   1.873  15.656  0.5429 -0.1259  0.3549
17342TIP3    H173517   1.184   1.942  15.705  0.6208 -1.6559  2.4924
17342TIP3    H273518   1.209   1.813  15.631  0.3511  0.1022 -0.7857
17343TIP3   OH273519   1.658   3.727  16.575 -0.4536  0.0504  0.1329
17343TIP3    H173520   1.689   3.646  16.615  1.3381  0.6074 -0.1085
17343TIP3    H273521   1.589   3.699  16.515 -1.2901 -1.0722  1.5578
17344TIP3   OH273522   4.887   2.026   1.564  0.3372 -0.0411  0.5764
17344TIP3    H173523   4.872   2.040   1.471  1.4304  0.5134  0.4695
17344TIP3    H273524   4.927   1.939   1.569  0.8915  0.2038  0.4571
17345TIP3   OH273525   5.686   4.337  14.374 -0.3548 -0.3327 -0.4782
17345TIP3    H173526   5.608   4.381  14.341 -1.2803 -1.9430 -0.5132
17345TIP3    H273527   5.670   4.244  14.356  1.1379 -0.7792  0.4087
17346TIP3   OH273528   1.435   5.425   0.412 -0.2757 -0.2600  0.5990
17346TIP3    H173529   1.340   5.419   0.401  0.0622 -1.8483 -1.9695
17346TIP3    H273530   1.470   5.404   0.326  2.3942  1.6774  1.1601
17347TIP3   OH273531   5.370   0.016  14.326  0.0782  0.3237 -0.2814
17347TIP3    H173532   5.353   0.088  14.387 -2.1099  2.0919 -2.8700
17347TIP3    H273533   5.296  -0.043  14.336 -0.3336  0.6624 -1.2576
17348TIP3   OH273534   5.406   4.080   0.525 -0.0540  0.3705  0.3489
17348TIP3    H173535   5.441   3.995   0.498 -1.5864  0.0507 -0.7221
17348TIP3    H273536   5.483   4.134   0.542  0.9387 -0.5253 -1.2127
17349TIP3   OH273537   3.132   4.693  16.917  0.1337  0.1490  0.6046
17349TIP3    H173538   3.120   4.650  17.002  1.6061 -1.6897 -0.0625
17349TIP3    H273539   3.079   4.642  16.857  1.2766 -0.2831 -0.0601
17350TIP3   OH273540   3.284   0.988   2.100 -0.4553  0.0392  0.5782
17350TIP3    H173541   3.254   1.017   2.186 -0.9259  0.8324  0.1570
17350TIP3    H273542   3.204   0.971   2.051 -0.1979  0.1561  0.1121
17351TIP3   OH273543   3.519   5.412  12.537 -0.4920  0.3172  0.1668
17351TIP3    H173544   3.572   5.403  12.458 -1.4232 -1.4309 -0.2995
17351TIP3    H273545   3.582   5.428  12.607  0.4544  0.4971 -0.7192
17352TIP3   OH273546   6.324   0.527   0.123  0.6459  0.1357  0.0615
17352TIP3    H173547   6.388   0.521   0.052  0.8179  1.1089  0.1238
17352TIP3    H273548   6.239   0.523   0.078  0.7547  0.6069 -0.1971
17353TIP3   OH273549   6.386   4.483   1.490 -0.3153  0.0190 -0.2750
17353TIP3    H173550   6.416   4.518   1.406  0.7605 -1.0663 -0.3597
17353TIP3    H273551   6.451   4.514   1.554 -1.5047  1.4107  0.2732
17354TIP3   OH273552   1.751   0.298   2.618  0.7984  0.0498 -0.6885
17354TIP3    H173553   1.798   0.380   2.602  0.5821  0.3357  0.1149
17354TIP3    H273554   1.711   0.310   2.704  0.5966 -0.8216 -0.6580
17355TIP3   OH273555   6.325   3.861   1.299  0.0242 -0.3990  0.1758
17355TIP3    H173556   6.269   3.929   1.262 -0.2006 -1.0851 -0.7918
17355TIP3    H273557   6.265   3.805   1.349  0.3681  0.6715  1.8200
17356TIP3   OH273558   0.056   1.016  13.157  0.3085  0.2189  0.0577
17356TIP3    H173559   0.041   0.973  13.242  2.2676  1.3560  1.0032
17356TIP3    H273560   0.104   0.951  13.105 -2.4444 -1.1581 -0.8551
17357TIP3   OH273561   3.486   0.965  15.407 -0.2654  0.4534 -0.1449
17357TIP3    H173562   3.468   0.932  15.319 -0.1049  1.5708 -0.5938
17357TIP3    H273563   3.404   0.949  15.455 -0.1622 -0.6814 -0.3244
17358TIP3   OH273564   0.657   0.680  10.600 -0.0189  0.2129  0.3752
17358TIP3    H173565   0.624   0.635  10.679 -1.4890 -0.0705 -0.3677
17358TIP3    H273566   0.663   0.772  10.626 -0.0778  0.0590  0.9538
17359TIP3   OH273567   6.484   5.955   3.687 -0.0380 -0.1094  0.3144
17359TIP3    H173568   6.499   6.043   3.722 -0.6413  0.5148 -0.9701
17359TIP3    H273569   6.572   5.920   3.673  0.2032 -0.1125  1.8158
17360TIP3   OH273570   3.057   1.299  11.144  0.2982  0.6057  0.2009
17360TIP3    H173571   2.975   1.290  11.192  0.0812  0.9198 -0.1072
17360TIP3    H273572   3.049   1.238  11.071  1.2712 -1.0347  1.4203
17361TIP3   OH273573   6.513   4.907   3.426  0.0957 -0.6565  0.2335
17361TIP3    H173574   6.544   4.964   3.356  0.5418 -0.6038  0.4706
17361TIP3    H273575   6.592   4.864   3.458 -0.2545 -1.5277 -0.0492
17362TIP3   OH273576   1.065   6.386  13.013  0.1592 -0.3484 -0.0951
17362TIP3    H173577   1.127   6.338  12.958  0.7589  1.2748 -0.8531
17362TIP3    H273578   1.120   6.442  13.067 -0.6451  0.9516 -0.6212
17363TIP3   OH273579   0.348   0.604   5.047  0.3061  0.1721  0.5229
17363TIP3    H173580   0.310   0.572   5.129  0.9435 -0.6103  0.5143
17363TIP3    H273581   0.442   0.591   5.057  0.3865  0.0550 -0.3407
17364TIP3   OH273582   5.670   1.182  11.511  0.4787 -0.0003 -0.8264
17364TIP3    H173583   5.642   1.184  11.602  0.1681  2.0099 -0.9535
17364TIP3    H273584   5.646   1.094  11.480 -2.4195  0.4557  0.0673
17365TIP3   OH273585   1.039   2.754   5.552  0.1663  0.1773  0.5930
17365TIP3    H173586   1.073   2.824   5.608 -0.5459  0.9151  0.1131
17365TIP3    H273587   0.947   2.778   5.538  0.7841  0.9906 -2.3877
17366TIP3   OH273588   4.446   6.016  15.199  0.0679  0.5721  0.3838
17366TIP3    H173589   4.362   5.972  15.185 -0.1964  1.1413  0.1985
17366TIP3    H273590   4.430   6.107  15.176  0.8413  0.6029 -0.0423
17367TIP3   OH273591   4.645   2.070   4.333 -0.4524  0.1623 -0.1007
17367TIP3    H173592   4.713   2.137   4.335 -0.9058  0.6157  2.4533
17367TIP3    H273593   4.675   2.005   4.270  1.5123  1.2153 -0.2529
17368TIP3   OH273594   2.244   5.809   2.490  0.6817 -0.0836 -0.2399
17368TIP3    H173595   2.260   5.878   2.554  0.8650 -1.1286  0.8437
17368TIP3    H273596   2.308   5.826   2.421 -0.1415  1.5999 -0.6088
17369TIP3   OH273597   2.332   5.997  11.831  0.3793 -0.1768 -0.4171
17369TIP3    H173598   2.395   6.068  11.847  1.0664 -1.5799  3.8637
17369TIP3    H273599   2.249   6.032  11.863 -0.4463  0.5902 -3.3055
17370TIP3   OH273600   6.230   3.480  13.066 -0.3160  0.1380  0.2901
17370TIP3    H173601   6.170   3.452  13.135 -1.3392  1.7643  0.0998
17370TIP3    H273602   6.200   3.569  13.044  1.4443  0.5199 -0.6166
17371TIP3   OH273603   2.135   4.436  13.924 -0.5068  0.3915  0.5227
17371TIP3    H173604   2.078   4.478  13.988  0.0652  0.1170  1.2250
17371TIP3    H273605   2.201   4.391  13.977  0.2483  0.5513 -0.2761
17372TIP3   OH273606   0.547   1.316   1.755  0.4472  0.3348  0.2532
17372TIP3    H173607   0.466   1.363   1.776 -1.4702 -2.0564 -1.5277
17372TIP3    H273608   0.543   1.236   1.808  1.4315  0.0201 -0.1373
17373TIP3   OH273609   3.871   0.352   5.527 -0.5296 -0.0873  0.3546
17373TIP3    H173610   3.944   0.293   5.546 -0.7219 -0.3867  0.1682
17373TIP3    H273611   3.796   0.294   5.514 -0.9901  0.2619  1.3932
17374TIP3   OH273612   2.722   1.291   3.670  0.6297 -0.0536  0.1130
17374TIP3    H173613   2.758   1.208   3.639  0.6493 -0.1361  0.3579
17374TIP3    H273614   2.797   1.339   3.704  0.6835  0.2411 -0.4300
17375TIP3   OH273615   2.758   2.990   4.597 -0.0183 -0.3440  0.1746
17375TIP3    H173616   2.763   3.065   4.538  1.8548 -0.3108  0.3282
17375TIP3    H273617   2.768   2.914   4.539  1.8410 -0.3108  0.4086
17376TIP3   OH273618   5.954   1.367  12.334 -0.5736 -0.2871  0.1054
17376TIP3    H173619   6.032   1.355  12.389 -0.8090 -0.1007  0.4856
17376TIP3    H273620   5.961   1.457  12.303 -0.8722 -0.1220  0.5137
17377TIP3   OH273621   1.593   2.495   0.526  0.3149  0.0573  0.0520
17377TIP3    H173622   1.646   2.428   0.569  0.5047 -0.6425 -1.2497
17377TIP3    H273623   1.510   2.452   0.507  0.7334 -0.1073 -1.5510
17378TIP3   OH273624   5.104   0.214  15.989 -0.3578 -0.8407 -0.0926
17378TIP3    H173625   5.199   0.225  15.985 -0.3119 -1.5198 -1.0859
17378TIP3    H273626   5.091   0.140  16.049 -0.4181  1.0376  2.3116
17379TIP3   OH273627   0.503   3.008  12.244 -0.4771  0.2055  0.6279
17379TIP3    H173628   0.574   2.956  12.283 -1.8792 -2.4998 -0.2814
17379TIP3    H273629   0.520   3.097  12.273  2.6654 -0.5569  1.3525
17380TIP3   OH273630   5.363   0.607  17.289  0.4396 -0.0420 -0.1326
17380TIP3    H173631   5.405   0.580  17.207  1.6838 -1.1115  0.8310
17380TIP3    H273632   5.370   0.702  17.289  2.9505 -0.1933  0.0199
17381TIP3   OH273633   5.254   5.004  14.403  0.1926  0.0496 -0.9688
17381TIP3    H173634   5.194   4.930  14.400  0.6614 -0.4476  1.3007
17381TIP3    H273635   5.207   5.071  14.454  1.3175 -0.1362  0.3296
17382TIP3   OH273636   5.550   1.388  15.406  0.3394 -0.3178  0.1083
17382TIP3    H173637   5.584   1.360  15.321  1.2074  2.6025 -0.5814
17382TIP3    H273638   5.455   1.394  15.393  0.4634  0.0652 -0.6459
17383TIP3   OH273639   1.230   5.636  11.762  0.6530 -0.6000  0.5138
17383TIP3    H173640   1.242   5.700  11.692  1.8738 -1.6671 -0.2787
17383TIP3    H273641   1.301   5.654  11.823  0.4828 -0.6521  0.7300
17384TIP3   OH273642   4.988   0.734   2.737  0.6545 -0.4016  0.2237
17384TIP3    H173643   5.062   0.782   2.698  1.2272 -0.2890  1.4355
17384TIP3    H273644   5.012   0.642   2.727  0.5142 -0.3917 -0.2335
17385TIP3   OH273645   5.777   6.721   5.442 -0.3915  0.4495  0.2185
17385TIP3    H173646   5.683   6.709   5.454 -0.3617  0.1096  0.1072
17385TIP3    H273647   5.789   6.726   5.347 -0.0045 -1.9198  0.1125
17386TIP3   OH273648   6.498   0.375  11.497 -0.3379 -0.4858  0.1304
17386TIP3    H173649   6.584   0.399  11.463 -0.3980  0.7376  0.7818
17386TIP3    H273650   6.517   0.323  11.575 -0.1542  0.5900  0.8286
17387TIP3   OH273651   0.625   4.100  17.160 -0.4182  0.0258 -0.0381
17387TIP3    H173652   0.580   4.163  17.216 -0.4487  0.3302 -0.3994
17387TIP3    H273653   0.556   4.041  17.130 -0.5997  0.5834 -0.7126
17388TIP3   OH273654   1.453   1.996   0.952 -0.3063 -0.4123  0.0836
17388TIP3    H173655   1.461   1.944   1.033 -2.6523  1.6207  1.6912
17388TIP3    H273656   1.536   1.982   0.907  1.1631 -1.4350  2.9453
17389TIP3   OH273657   0.529   4.372   0.747 -0.4161 -0.0811 -0.6370
17389TIP3    H173658   0.440   4.339   0.743 -1.0460  1.6555 -1.5497
17389TIP3    H273659   0.573   4.333   0.672 -0.1558 -1.5982  0.2876
17390TIP3   OH273660   6.283   4.219   4.215  0.2286 -0.0979  0.2437
17390TIP3    H173661   6.249   4.285   4.276 -1.5591 -0.1057 -0.7103
17390TIP3    H273662   6.269   4.136   4.259 -0.5767 -0.0649  0.0593
17391TIP3   OH273663   1.933   0.328  14.229  0.4293  0.0728 -0.0764
17391TIP3    H173664   1.991   0.262  14.266  0.3301 -0.8669 -1.5595
17391TIP3    H273665   1.845   0.294  14.246  0.3845 -0.3953 -1.2020
17392TIP3   OH273666   2.760   2.795  13.073 -0.0111  0.4402  0.3672
17392TIP3    H173667   2.855   2.808  13.081  0.6960 -2.8805 -1.6200
17392TIP3    H273668   2.725   2.824  13.157  2.8062  1.1510  1.3664
17393TIP3   OH273669   1.298   2.914   2.168  0.3308 -0.1628 -0.1933
17393TIP3    H173670   1.313   2.901   2.262 -2.5855 -0.6861  0.2381
17393TIP3    H273671   1.203   2.915   2.159  0.5763  0.8195 -3.0381
17394TIP3   OH273672   6.267   4.465   5.243 -0.1301  0.3661  0.0792
17394TIP3    H173673   6.235   4.378   5.218  1.5065 -0.9114  2.2049
17394TIP3    H273674   6.259   4.466   5.339  0.8730  2.1394  0.1601
17395TIP3   OH273675   2.102   6.672   0.777  0.6381  0.8113 -0.0875
17395TIP3    H173676   2.134   6.746   0.828  2.7023  0.1385 -0.3868
17395TIP3    H273677   2.177   6.643   0.725  0.1699 -2.1267  0.7705
17396TIP3   OH273678   2.732   2.097  14.204 -0.2200 -0.6312 -0.7425
17396TIP3    H173679   2.703   2.028  14.263 -1.7991 -0.3576 -1.1548
17396TIP3    H273680   2.686   2.176  14.235  2.6658  0.5806  0.6103
17397TIP3   OH273681   1.903   6.695   5.573 -0.1820 -0.1920 -0.2551
17397TIP3    H173682   1.881   6.602   5.576  0.7605 -0.3947  0.6713
17397TIP3    H273683   1.997   6.698   5.587 -0.4125  0.9966  1.1625
17398TIP3   OH273684   2.801   1.561   3.500 -0.1432  0.0235  0.5902
17398TIP3    H173685   2.727   1.509   3.531 -0.0792  0.3374  1.2663
17398TIP3    H273686   2.877   1.524   3.545  0.1988 -0.6779 -0.5382
17399TIP3   OH273687   0.447   4.163   0.077 -0.3940 -0.2432  0.4002
17399TIP3    H173688   0.490   4.114   0.147  0.7590  1.0893  0.6583
17399TIP3    H273689   0.354   4.143   0.086 -0.0854 -1.2364  1.3911
17400TIP3   OH273690   4.278   5.459  14.034  0.1708 -0.6091  0.6291
17400TIP3    H173691   4.316   5.460  14.122  0.6108  0.2171  0.4308
17400TIP3    H273692   4.348   5.488  13.976 -1.5478  3.8903  0.6137
17401TIP3   OH273693   6.326   0.067  16.544  0.1611  0.3564 -0.3483
17401TIP3    H173694   6.400   0.116  16.509  0.1470  0.2945 -0.4636
17401TIP3    H273695   6.347   0.053  16.636 -0.7586  2.3843  0.2150
17402TIP3   OH273696   0.989   2.773  17.064  0.1158  0.2600 -0.1281
17402TIP3    H173697   0.989   2.826  17.144  1.4947 -1.0850  0.7862
17402TIP3    H273698   1.067   2.800  17.016  1.3165 -1.5224  0.7641
17403TIP3   OH273699   2.665   0.204  15.695 -0.1678 -0.3439  0.7643
17403TIP3    H173700   2.695   0.295  15.696 -0.4575 -0.2073 -1.1659
17403TIP3    H273701   2.732   0.158  15.645 -0.1304 -1.1672  1.5684
17404TIP3   OH273702   4.134   3.398  12.071 -0.3630 -0.2375  0.0958
17404TIP3    H173703   4.064   3.442  12.023  0.5029  1.4752  0.3523
17404TIP3    H273704   4.194   3.368  12.003 -0.5906 -0.3759 -0.0449
17405TIP3   OH273705   2.675   0.221  16.611  0.1763 -0.0766 -0.4438
17405TIP3    H173706   2.715   0.290  16.663  0.4258 -1.2511  0.9283
17405TIP3    H273707   2.585   0.215  16.644  0.6366 -1.5289  0.5878
17406TIP3   OH273708   3.546   6.458  11.324  0.3774 -0.2762  0.1382
17406TIP3    H173709   3.592   6.508  11.391 -0.8178  2.1147 -0.7715
17406TIP3    H273710   3.467   6.425  11.369  0.4913 -0.2193  0.3815
17407TIP3   OH273711   2.189   1.902  13.712  0.1596  0.3269 -0.4405
17407TIP3    H173712   2.141   1.973  13.754 -1.2431 -0.6028 -0.4524
17407TIP3    H273713   2.129   1.827  13.714  1.5235 -0.8056 -0.6321
17408TIP3   OH273714   4.184   4.246  15.409 -0.0809  0.3426  0.3192
17408TIP3    H173715   4.121   4.277  15.344 -1.1926  0.0398  1.2583
17408TIP3    H273716   4.134   4.191  15.468  0.6596  1.6907  2.2448
17409TIP3   OH273717   0.279   2.535   3.769 -0.1637  0.1701  0.6137
17409TIP3    H173718   0.190   2.531   3.803  0.1887  3.4619  2.1425
17409TIP3    H273719   0.325   2.463   3.811 -1.5952 -0.3091  1.3702
17410TIP3   OH273720   1.737   2.113   0.896  0.0227  0.3388 -0.0323
17410TIP3    H173721   1.826   2.121   0.860  0.1586 -0.0926  0.2065
17410TIP3    H273722   1.720   2.197   0.937  1.5769 -0.6494  2.7806
17411TIP3   OH273723   1.331   5.473   1.036 -1.2132  0.9403 -0.5295
17411TIP3    H173724   1.359   5.496   1.124  0.4054 -3.0518  0.1179
17411TIP3    H273725   1.377   5.534   0.979  0.8821  1.0157  1.1841
17412TIP3   OH273726   6.111   5.972   1.574 -0.1774 -0.4212 -0.2459
17412TIP3    H173727   6.036   5.954   1.631 -0.9357  2.2976 -0.3187
17412TIP3    H273728   6.073   5.976   1.486 -0.3499  2.9931 -0.0679
17413TIP3   OH273729   3.655   6.579  13.639 -1.2844 -0.4400  0.0144
17413TIP3    H173730   3.676   6.509  13.577 -2.1874 -0.5671 -0.1515
17413TIP3    H273731   3.661   6.659  13.588 -0.2848 -0.3916  0.1949
17414TIP3   OH273732   0.248   2.029   3.499  0.1863 -0.2460  0.4273
17414TIP3    H173733   0.185   2.021   3.428  1.4213 -1.2654 -0.5698
17414TIP3    H273734   0.295   2.110   3.481  1.6124 -1.3256 -0.8619
17415TIP3   OH273735   6.078   2.678   0.162 -0.6121 -0.0775  0.5525
17415TIP3    H173736   6.027   2.677   0.243  0.8169  0.5871  1.4829
17415TIP3    H273737   6.161   2.720   0.187  0.9181 -2.3142 -0.5964
17416TIP3   OH273738   0.985   2.072   1.497 -0.1538  0.1108  0.0817
17416TIP3    H173739   1.053   2.101   1.436 -1.4150 -0.0637 -1.4366
17416TIP3    H273740   0.992   2.131   1.572  1.1478  0.5827 -0.4080
17417TIP3   OH273741   0.313   2.904  14.249  0.0204  0.5914 -0.4771
17417TIP3    H173742   0.318   2.821  14.201  0.6624  1.0274 -1.1813
17417TIP3    H273743   0.403   2.924  14.273 -0.3864 -0.0219  1.6397
17418TIP3   OH273744   2.757   5.165   0.529  0.1203  0.8506  0.3183
17418TIP3    H173745   2.665   5.176   0.554  0.0430 -0.1644  0.4908
17418TIP3    H273746   2.806   5.210   0.598 -0.2857  2.3549 -0.3646
17419TIP3   OH273747   3.311   4.112  14.789 -0.3208 -0.0392  0.4541
17419TIP3    H173748   3.278   4.191  14.747 -0.1603 -0.9595 -1.4221
17419TIP3    H273749   3.334   4.054  14.717 -1.4922 -2.2366  1.7968
17420TIP3   OH273750   3.168   6.278   4.878 -0.1084 -0.4072 -0.2547
17420TIP3    H173751   3.156   6.201   4.823  1.5357 -0.3175 -0.7519
17420TIP3    H273752   3.255   6.311   4.856 -0.0570  0.5466  1.2583
17421TIP3   OH273753   3.339   0.469   0.609 -0.3231 -0.1584  0.5165
17421TIP3    H173754   3.255   0.483   0.653 -0.6979  2.8840 -1.0114
17421TIP3    H273755   3.403   0.517   0.663 -0.1520  0.3287 -0.1081
17422TIP3   OH273756   4.688   4.937   5.283 -0.1864 -0.4206 -0.0838
17422TIP3    H173757   4.700   4.885   5.362 -0.2606  0.2204  0.3535
17422TIP3    H273758   4.723   5.023   5.305 -0.1406 -0.2599 -0.7747
17423TIP3   OH273759   5.374   5.569  12.442  0.8148  0.2079  0.4296
17423TIP3    H173760   5.386   5.547  12.535  0.1017  0.9055  0.6955
17423TIP3    H273761   5.371   5.664  12.440  0.9322  0.1982 -0.3293
17424TIP3   OH273762   1.356   6.712  15.242 -0.2373 -0.3335 -0.1422
17424TIP3    H173763   1.323   6.684  15.328  1.7397  3.9682  2.1681
17424TIP3    H273764   1.282   6.760  15.204  0.5103  2.2462  1.5031
17425TIP3   OH273765   2.486   3.063  16.771  0.1273 -0.4547  0.3850
17425TIP3    H173766   2.485   2.987  16.829  3.5254 -1.4685 -0.7664
17425TIP3    H273767   2.553   3.120  16.807 -1.2776  1.2707  0.3122
17426TIP3   OH273768   4.785   2.100  10.741 -0.4402 -0.5773 -0.5529
17426TIP3    H173769   4.855   2.047  10.703  0.4904  0.9304 -1.0207
17426TIP3    H273770   4.791   2.184  10.694 -2.5116 -0.4000 -0.5426
17427TIP3   OH273771   0.409   5.763   6.307 -0.2347 -0.3177  0.0399
17427TIP3    H173772   0.488   5.751   6.361 -0.9664  0.6200  1.3574
17427TIP3    H273773   0.340   5.782   6.371 -0.5315  3.9166 -1.3739
17428TIP3   OH273774   2.273   5.225   6.594 -0.0683  0.6622  0.3044
17428TIP3    H173775   2.206   5.219   6.526 -1.3966  1.0778  1.5426
17428TIP3    H273776   2.274   5.317   6.619 -1.0033  0.1820  2.2011
17429TIP3   OH273777   1.684   0.136   1.941  0.3191 -0.2834 -0.0692
17429TIP3    H173778   1.596   0.173   1.952  0.9958  1.4433 -0.1815
17429TIP3    H273779   1.696   0.078   2.016 -1.1494 -1.0322 -0.3966
17430TIP3   OH273780   6.324   2.682   4.837 -0.5336  0.0846  0.0867
17430TIP3    H173781   6.335   2.591   4.810 -1.4375 -0.6153  1.9359
17430TIP3    H273782   6.352   2.683   4.929 -1.8592  1.3504  0.4980
17431TIP3   OH273783   0.077   1.423  11.593  0.0350 -0.2593 -0.1728
17431TIP3    H173784   0.105   1.348  11.645  0.2146 -0.7360 -0.9419
17431TIP3    H273785  -0.009   1.398  11.560  0.4507 -0.4772 -1.1082
17432TIP3   OH273786   2.729   5.172  12.040 -0.2954 -0.1572  0.8482
17432TIP3    H173787   2.654   5.150  11.985  0.8670 -2.7665  0.2144
17432TIP3    H273788   2.760   5.256  12.007 -0.8879 -0.6877 -1.1005
17433TIP3   OH273789   4.888   5.745  14.041 -0.1926 -0.2391  0.5396
17433TIP3    H173790   4.878   5.684  13.967  0.3843  0.0288  0.2438
17433TIP3    H273791   4.982   5.747  14.058 -0.1389  1.1037  0.0984
17434TIP3   OH273792   3.501   5.554   6.264 -0.0209  0.1408 -0.0183
17434TIP3    H173793   3.447   5.568   6.342  0.4121 -0.1589  0.3417
17434TIP3    H273794   3.455   5.486   6.214  0.3918 -0.6468  0.6506
17435TIP3   OH273795   4.149   5.777   3.668 -0.2320 -0.1518 -0.0830
17435TIP3    H173796   4.209   5.819   3.730  1.4954 -1.4600 -0.7951
17435TIP3    H273797   4.146   5.837   3.593  1.4105 -0.7545 -0.6676
17436TIP3   OH273798   5.966   6.180  12.500  0.4075 -0.4750  0.3183
17436TIP3    H173799   6.006   6.100  12.467  0.8642 -1.4530  3.0821
17436TIP3    H273800   5.872   6.161  12.502  0.1616  0.3444 -2.3015
17437TIP3   OH273801   2.212   6.150   0.015 -0.2693  0.1450  0.0909
17437TIP3    H173802   2.241   6.060  -0.003 -1.3405 -0.5524  1.7771
17437TIP3    H273803   2.251   6.202  -0.056  0.9081 -1.5393 -0.5292
17438TIP3   OH273804   3.622   2.229   2.705 -0.5368  0.5302 -0.0456
17438TIP3    H173805   3.595   2.209   2.616  1.7238 -0.3010 -0.5868
17438TIP3    H273806   3.647   2.321   2.703 -0.1638  0.4218 -0.3555
17439TIP3   OH273807   3.951   2.786  15.517 -0.1107  0.2849  0.1551
17439TIP3    H173808   3.901   2.861  15.485 -1.1398 -0.1000  0.8411
17439TIP3    H273809   3.983   2.743  15.438 -0.2931  0.9208 -0.2700
17440TIP3   OH273810   3.572   1.229   5.267  0.3013 -0.2767 -0.5266
17440TIP3    H173811   3.566   1.188   5.181  0.0494 -2.2856  0.4148
17440TIP3    H273812   3.622   1.166   5.320 -0.0706  0.6444  0.9620
17441TIP3   OH273813   5.493   5.551   5.905 -0.2082 -0.5155  0.3557
17441TIP3    H173814   5.470   5.458   5.900  0.4536 -0.6532 -0.1419
17441TIP3    H273815   5.578   5.553   5.948  0.1207 -0.1891 -0.3076
17442TIP3   OH273816   2.937   5.615   1.447 -0.1069  0.6350 -0.0719
17442TIP3    H173817   2.885   5.590   1.371  0.6238 -2.8243  0.4664
17442TIP3    H273818   3.025   5.632   1.412  0.4592 -1.8383  0.0395
17443TIP3   OH273819   4.705   4.814   3.338  0.1013 -0.1725 -0.1420
17443TIP3    H173820   4.667   4.803   3.250 -0.0870  0.6352 -0.1595
17443TIP3    H273821   4.630   4.804   3.397  0.1251 -0.1038 -0.1010
17444TIP3   OH273822   0.803   3.438   2.418 -0.3944 -0.0070 -0.2426
17444TIP3    H173823   0.747   3.435   2.496  1.8306  0.1856  1.4001
17444TIP3    H273824   0.825   3.346   2.402  1.9276  0.2126  1.4549
17445TIP3   OH273825   1.876   2.242  15.645 -0.1014  0.5704 -0.4047
17445TIP3    H173826   1.825   2.194  15.710  1.6885  0.3682  0.8982
17445TIP3    H273827   1.915   2.173  15.590  0.4329  0.6156 -0.0928
17446TIP3   OH273828   0.766   0.223  11.083  0.0853 -0.6858 -0.2791
17446TIP3    H173829   0.702   0.188  11.021  0.9667 -1.6542 -0.6679
17446TIP3    H273830   0.816   0.287  11.034 -1.0369  0.5790  0.2222
17447TIP3   OH273831   6.191   5.589   5.528  0.4432  0.7740  0.2110
17447TIP3    H173832   6.112   5.554   5.571  0.7932  0.3082  0.4756
17447TIP3    H273833   6.157   5.645   5.459 -0.1355 -0.7684 -0.7949
17448TIP3   OH273834   3.500   0.363   5.931 -0.2943 -0.3140  0.2650
17448TIP3    H173835   3.406   0.372   5.916 -0.6469 -0.7055  2.2165
17448TIP3    H273836   3.515   0.399   6.018  1.2233 -1.0881  0.3479
17449TIP3   OH273837   6.432   5.625   2.777 -0.1285 -0.7322  0.3150
17449TIP3    H173838   6.479   5.650   2.857 -0.8953 -0.0622  0.5531
17449TIP3    H273839   6.383   5.703   2.752 -1.2761 -1.4858  0.1779
17450TIP3   OH273840   3.195   2.595  11.949  0.0451  0.2560 -0.3267
17450TIP3    H173841   3.180   2.579  12.042 -0.8156  0.8475 -0.3598
17450TIP3    H273842   3.111   2.576  11.908  0.5889 -0.5806 -1.0613
17451TIP3   OH273843   2.286   3.906  13.747  0.2715 -0.2243 -0.0510
17451TIP3    H173844   2.335   3.836  13.703 -0.9480 -1.6406  0.8088
17451TIP3    H273845   2.346   3.980  13.748  1.8847 -1.4983 -0.2971
17452TIP3   OH273846   4.397   1.438  16.033  0.1855  0.6216  0.1682
17452TIP3    H173847   4.448   1.496  16.089 -0.3022  0.7817  0.4495
17452TIP3    H273848   4.306   1.450  16.062  0.0718 -0.2207  0.1758
17453TIP3   OH273849   3.696   5.146   0.392  0.2263 -0.2079  0.0560
17453TIP3    H173850   3.636   5.134   0.466  0.4281  0.2930  0.3032
17453TIP3    H273851   3.705   5.241   0.384  1.5810 -0.2926  0.5106
17454TIP3   OH273852   5.853   1.445   4.888  0.2390 -0.1049  0.4659
17454TIP3    H173853   5.939   1.483   4.872 -0.2631 -0.1539 -2.7555
17454TIP3    H273854   5.871   1.360   4.929  1.6712  0.5025  1.0892
17455TIP3   OH273855   4.946   4.156  11.879  0.0654  0.1294  0.1678
17455TIP3    H173856   4.875   4.095  11.860 -1.2430  2.4376 -2.5590
17455TIP3    H273857   4.919   4.201  11.960 -1.2982  0.5722 -0.5304
17456TIP3   OH273858   0.130   2.759  11.502 -0.0662  0.0497 -0.5030
17456TIP3    H173859   0.167   2.757  11.590 -1.0299 -1.6731 -0.1080
17456TIP3    H273860   0.041   2.793  11.514 -0.5463 -1.1121 -0.6487
17457TIP3   OH273861   1.457   3.856  16.081  0.0707  0.3320  0.3085
17457TIP3    H173862   1.545   3.833  16.112 -0.0500 -1.8178 -0.7929
17457TIP3    H273863   1.472   3.919  16.010  0.9481 -1.8994 -1.5796
17458TIP3   OH273864   4.141   0.941  13.042 -0.3173 -0.5802 -0.2781
17458TIP3    H173865   4.210   0.874  13.045 -0.2444 -0.5250 -0.7249
17458TIP3    H273866   4.099   0.935  13.128 -0.7339 -1.6493 -0.5454
17459TIP3   OH273867   0.193   0.022  15.437  0.1189 -0.2526 -0.0305
17459TIP3    H173868   0.155  -0.007  15.353  0.3110  0.6710 -0.4393
17459TIP3    H273869   0.182  -0.054  15.495  0.1616 -0.9732 -0.9426
17460TIP3   OH273870   1.139   0.773   5.574 -0.1486 -0.7297 -0.5858
17460TIP3    H173871   1.077   0.703   5.556 -1.0884  0.1427 -0.7756
17460TIP3    H273872   1.225   0.732   5.564 -0.6812 -2.1935  0.6773
17461TIP3   OH273873   0.706   2.429  17.219  0.1118 -0.0425  0.5302
17461TIP3    H173874   0.760   2.440  17.297  1.2358  1.1889 -0.3678
17461TIP3    H273875   0.765   2.454  17.147 -0.5777 -2.1065 -0.7960
17462TIP3   OH273876   0.525   2.831  11.715 -0.0305 -0.1121  0.4643
17462TIP3    H173877   0.578   2.859  11.790  0.0475  0.7924  0.0745
17462TIP3    H273878   0.588   2.820  11.644 -0.5412  2.3849 -0.3935
17463TIP3   OH273879   1.727   1.497  14.833  0.2934 -0.5558  0.4380
17463TIP3    H173880   1.700   1.405  14.832 -1.9697  0.0754  0.9619
17463TIP3    H273881   1.725   1.522  14.926  1.3530 -0.0989  0.3480
17464TIP3   OH273882   1.861   5.226   2.676  0.5889  0.5807 -0.4830
17464TIP3    H173883   1.799   5.283   2.722  0.7472  0.7425 -0.4720
17464TIP3    H273884   1.810   5.189   2.604  0.0310 -0.4986  0.4422
17465TIP3   OH273885   5.090   1.735   0.303 -0.0094 -0.0887 -0.6165
17465TIP3    H173886   5.124   1.803   0.361 -2.4068  1.6560 -1.1982
17465TIP3    H273887   5.167   1.704   0.255  1.4834  0.6212  1.2312
17466TIP3   OH273888   4.583   2.654  12.251  0.2178  0.5044 -0.0155
17466TIP3    H173889   4.610   2.736  12.292  2.8872  0.0159 -0.6965
17466TIP3    H273890   4.505   2.677  12.201  1.8279  3.0662 -1.5011
17467TIP3   OH273891   5.266   6.645  16.849  0.1472 -0.5732  0.1148
17467TIP3    H173892   5.219   6.587  16.789  1.7782 -1.3188 -0.4913
17467TIP3    H273893   5.358   6.631  16.827  0.5524  3.8273 -1.5494
17468TIP3   OH273894   0.098   6.369   3.306 -0.4203  0.1634  0.0573
17468TIP3    H173895   0.178   6.387   3.258  0.1167  1.7623  1.5162
17468TIP3    H273896   0.121   6.296   3.364 -0.2425  0.1095 -0.0804
17469TIP3   OH273897   5.956   6.635   4.060 -0.1495 -0.0256 -0.0914
17469TIP3    H173898   5.994   6.721   4.077 -1.7966  0.9792 -1.2459
17469TIP3    H273899   6.031   6.577   4.048  0.9801  1.1052  1.3831
17470TIP3   OH273900   0.423   0.493   1.386  0.2025 -0.2986 -0.5999
17470TIP3    H173901   0.437   0.406   1.425  2.4086  0.6517  0.8584
17470TIP3    H273902   0.496   0.502   1.324  1.5377  1.5084  1.1550
17471TIP3   OH273903   1.662   4.534  11.339 -0.0233 -0.2154  0.1978
17471TIP3    H173904   1.597   4.502  11.401  0.3683 -0.1706  0.6294
17471TIP3    H273905   1.735   4.473  11.345 -0.0273 -0.2784 -0.3033
17472TIP3   OH273906   2.245   5.584  14.269 -0.1218  0.1714  0.0374
17472TIP3    H173907   2.285   5.669  14.249  0.5390 -0.2130 -0.2860
17472TIP3    H273908   2.265   5.570  14.362  1.8912 -0.7464 -0.5030
17473TIP3   OH273909   2.078   3.622  11.479  0.4834 -0.0475  0.0079
17473TIP3    H173910   2.066   3.716  11.496  1.2472  0.6054 -2.8105
17473TIP3    H273911   2.170   3.606  11.503  1.0434  0.4721 -1.7430
17474TIP3   OH273912   5.067   3.656   6.072 -0.5145  0.5584 -0.2205
17474TIP3    H173913   5.113   3.615   5.998 -0.2894  1.3746 -0.5409
17474TIP3    H273914   5.059   3.586   6.137 -0.6103 -0.1390 -0.9708
17475TIP3   OH273915   2.086   5.462   3.562 -0.7104  0.0011 -0.0991
17475TIP3    H173916   2.177   5.462   3.534 -0.2015  0.9496  1.4560
17475TIP3    H273917   2.035   5.453   3.482  0.7361  0.2171 -1.0498
17476TIP3   OH273918   1.140   2.956   0.523  0.1947 -0.5098 -0.2638
17476TIP3    H173919   1.178   3.041   0.546  1.2017 -0.5132 -1.8465
17476TIP3    H273920   1.214   2.897   0.514 -0.3562 -1.1190 -0.9326
17477TIP3   OH273921   0.389   2.926  13.518 -0.0740  0.6779 -0.0130
17477TIP3    H173922   0.469   2.963  13.480 -0.1493  0.5589 -0.2895
17477TIP3    H273923   0.415   2.897  13.605  0.4055 -0.1725 -0.4363
17478TIP3   OH273924   4.531   0.408  13.911 -0.0221 -0.1154  0.2063
17478TIP3    H173925   4.467   0.445  13.851  0.3468  1.4845  0.7693
17478TIP3    H273926   4.615   0.417  13.865  0.0696 -0.2400  0.3489
17479TIP3   OH273927   2.538   5.883   1.616 -0.6179 -0.4161 -0.3946
17479TIP3    H173928   2.624   5.916   1.640 -0.7748  0.1981 -0.6736
17479TIP3    H273929   2.504   5.946   1.553 -1.1761 -0.7779 -0.4630
17480TIP3   OH273930   5.203   5.174   3.779  0.3462  0.7534 -0.3528
17480TIP3    H173931   5.228   5.101   3.836  2.4488  2.1663  0.5881
17480TIP3    H273932   5.114   5.196   3.806 -1.4034 -3.1568 -2.4802
17481TIP3   OH273933   3.615   4.410   5.495 -0.1209  0.0133  0.0184
17481TIP3    H173934   3.669   4.345   5.540 -0.2111 -0.6093 -0.7718
17481TIP3    H273935   3.646   4.408   5.404  0.8589  2.0898  0.2706
17482TIP3   OH273936   3.442   4.170  11.506 -0.4736 -0.1585 -0.1085
17482TIP3    H173937   3.442   4.109  11.433 -0.8000 -0.8426  0.4519
17482TIP3    H273938   3.353   4.166  11.542 -0.9133  1.7374 -0.9475
17483TIP3   OH273939   5.718   4.703   4.594 -0.5428  0.0710 -0.3001
17483TIP3    H173940   5.637   4.659   4.569 -1.5209  1.3543  0.5168
17483TIP3    H273941   5.737   4.763   4.522 -0.8073  0.4098 -0.0882
17484TIP3   OH273942   2.020   0.090  16.321 -0.4234  0.1102  0.2200
17484TIP3    H173943   2.071   0.027  16.271  0.9085  0.7796  0.7062
17484TIP3    H273944   2.045   0.074  16.412  0.8836  2.1329  0.2553
17485TIP3   OH273945   3.084   3.103   0.275 -0.5616 -0.4847  0.0421
17485TIP3    H173946   3.066   3.044   0.202  0.4119 -0.1929 -0.4487
17485TIP3    H273947   2.998   3.135   0.302 -0.8968 -0.2421 -1.2868
17486TIP3   OH273948   4.821   2.686  15.103 -0.2091  0.1618 -0.2660
17486TIP3    H173949   4.784   2.606  15.067 -1.5898  0.6367  0.0525
17486TIP3    H273950   4.897   2.656  15.154 -1.5545 -1.1067  1.0410
17487TIP3   OH273951   5.249   3.988   1.685  0.1144 -0.4377  0.2666
17487TIP3    H173952   5.184   4.001   1.755 -0.0101 -1.4402  0.3533
17487TIP3    H273953   5.332   4.016   1.723 -0.1050 -0.1117  0.5034
17488TIP3   OH273954   2.369   1.648  14.569 -0.0914  0.4837  0.4101
17488TIP3    H173955   2.446   1.620  14.619  0.2715 -0.8372 -0.8714
17488TIP3    H273956   2.295   1.627  14.626  0.4855  2.3896  1.9458
17489TIP3   OH273957   5.730   5.943   0.620 -0.0651  0.0729  0.2972
17489TIP3    H173958   5.716   5.995   0.540 -1.2405  0.2044  0.5901
17489TIP3    H273959   5.756   5.857   0.587  2.2703  0.9203 -0.1893
17490TIP3   OH273960   1.210   3.080   0.208 -0.0108 -0.2395  0.1409
17490TIP3    H173961   1.272   3.030   0.260  0.0662  0.2192  0.4883
17490TIP3    H273962   1.124   3.058   0.245  0.1523  1.2532  1.4589
17491TIP3   OH273963   6.018   1.175  12.146 -0.3624 -0.1804  0.3214
17491TIP3    H173964   5.985   1.254  12.189  0.0733  0.6328 -0.7955
17491TIP3    H273965   6.013   1.107  12.212 -2.2104  0.4349  0.8277
17492TIP3   OH273966   5.293   3.205  12.247 -0.2459  0.2727  0.0246
17492TIP3    H173967   5.337   3.290  12.241  1.4305 -0.4347  1.4790
17492TIP3    H273968   5.358   3.148  12.289 -2.4044 -0.9528  1.8178
17493TIP3   OH273969   2.428   0.060  12.816  0.4149 -0.3036 -0.5260
17493TIP3    H173970   2.352   0.105  12.853  0.7672 -0.1842  0.0552
17493TIP3    H273971   2.485   0.131  12.785  0.7123 -0.3644 -0.1207
17494TIP3   OH273972   5.672   0.191  12.273 -0.3626  0.3330 -0.6134
17494TIP3    H173973   5.729   0.261  12.304 -1.1973  1.4348 -1.5148
17494TIP3    H273974   5.633   0.226  12.193 -1.3069 -0.9077 -0.7096
17495TIP3   OH273975   3.359   6.411  16.852  0.0201 -0.0358 -0.2009
17495TIP3    H173976   3.368   6.486  16.793 -0.5454 -0.3275 -0.6621
17495TIP3    H273977   3.323   6.341  16.797 -1.4214 -0.0267  0.7109
17496TIP3   OH273978   3.426   1.696   1.161  0.2437 -0.8095 -0.1746
17496TIP3    H173979   3.504   1.702   1.217 -0.3413 -2.9287  0.9481
17496TIP3    H273980   3.459   1.656   1.080  0.9678  1.6504 -1.1389
17497TIP3   OH273981   2.029   3.722   3.718 -0.6440 -0.1988  0.0831
17497TIP3    H173982   1.951   3.777   3.726 -1.1303 -0.9232  0.2611
17497TIP3    H273983   2.082   3.767   3.651 -2.5375 -1.2850 -2.2435
17498TIP3   OH273984   1.516   5.320  11.422 -0.3378 -0.0271  0.1075
17498TIP3    H173985   1.444   5.323  11.358  0.3493 -0.7077 -0.7234
17498TIP3    H273986   1.577   5.255  11.386 -0.3478 -1.0627  1.9025
17499TIP3   OH273987   3.459   6.773  11.696  0.2076  0.5350  0.5219
17499TIP3    H173988   3.415   6.784  11.780  1.4829 -1.8537  1.5679
17499TIP3    H273989   3.409   6.704  11.651  1.4718 -0.5546  0.7498
17500TIP3   OH273990   3.840   1.974   6.152 -0.5681 -0.1950 -0.3218
17500TIP3    H173991   3.779   1.993   6.223  0.3516  2.2849 -0.1424
17500TIP3    H273992   3.900   1.909   6.189  0.1451  1.3616  1.3801
17501TIP3   OH273993   0.941   2.476  14.278 -0.0582  0.1682 -0.1119
17501TIP3    H173994   1.035   2.494  14.286 -0.0254 -0.9957  2.5891
17501TIP3    H273995   0.899   2.547  14.328 -0.5180 -0.2288  0.0733
17502TIP3   OH273996   2.989   4.432   6.004 -0.2721 -0.2423  0.2949
17502TIP3    H173997   3.042   4.360   6.040 -0.2671  0.0765  0.9340
17502TIP3    H273998   2.913   4.437   6.062 -1.5544 -1.3952 -1.2393
17503TIP3   OH273999   0.201   2.829   5.519  0.0569  0.0134  0.5821
17503TIP3    H174000   0.271   2.891   5.497 -2.2578  2.1792 -1.0174
17503TIP3    H274001   0.190   2.838   5.614  1.2955  0.3775  0.6948
17504TIP3   OH274002   4.208   2.038  11.181 -0.2020 -0.5225  0.0871
17504TIP3    H174003   4.124   2.070  11.149 -1.0448  0.4772  3.1568
17504TIP3    H274004   4.254   2.117  11.212 -0.1176 -1.5896  2.8067
17505TIP3   OH274005   2.686   5.911   2.468 -0.2775 -0.7865  0.0053
17505TIP3    H174006   2.646   5.935   2.385  0.6282 -0.5345 -0.3733
17505TIP3    H274007   2.776   5.943   2.461 -0.8726  1.4712  2.0683
17506TIP3   OH274008   4.558   3.722  14.178 -0.2409 -0.8608  0.0596
17506TIP3    H174009   4.635   3.721  14.234 -0.1593  1.1239  0.0340
17506TIP3    H274010   4.584   3.673  14.100  0.3102 -1.9107  0.8988
17507TIP3   OH274011   5.087   6.356   2.123 -0.2815 -1.0865 -0.2238
17507TIP3    H174012   5.164   6.328   2.172  0.0095 -1.0278 -0.6433
17507TIP3    H274013   5.118   6.429   2.069 -0.8288 -0.5156  0.2294
17508TIP3   OH274014   5.542   5.229   2.160 -0.1688  0.2156  0.1093
17508TIP3    H174015   5.602   5.166   2.200 -1.5624 -1.6458 -0.6478
17508TIP3    H274016   5.577   5.242   2.072 -0.4297 -0.2600 -0.0657
17509TIP3   OH274017   0.224   4.437   3.056  0.1714  0.1834  0.7205
17509TIP3    H174018   0.294   4.395   3.007  2.2865  2.8264  1.3672
17509TIP3    H274019   0.144   4.395   3.024  2.0452 -3.1595  0.2611
17510TIP3   OH274020   2.112   2.068  12.457 -0.1285 -0.1136 -0.4603
17510TIP3    H174021   2.061   2.098  12.532 -2.2672 -0.1717 -1.8594
17510TIP3    H274022   2.069   1.987  12.429 -0.1778  0.5988 -2.5504
17511TIP3   OH274023   5.740   2.865  13.472  0.0389  0.3654 -0.3155
17511TIP3    H174024   5.706   2.931  13.411 -0.7560  0.7393  0.5066
17511TIP3    H274025   5.828   2.845  13.441  1.1248  3.3630  0.6024
17512TIP3   OH274026   1.566   0.317  14.610  0.2029 -0.0557 -0.3300
17512TIP3    H174027   1.595   0.313  14.701  0.3090  0.5845 -0.3403
17512TIP3    H274028   1.646   0.310  14.558  0.0992 -0.9135 -0.3827
17513TIP3   OH274029   0.178   3.966  16.113 -0.3278  0.4361 -0.3822
17513TIP3    H174030   0.138   4.053  16.122 -1.2022 -0.2051  2.3275
17513TIP3    H274031   0.105   3.905  16.121  0.6029 -0.6307  0.0162
17514TIP3   OH274032   2.251   6.614   3.392 -0.0786 -0.2371 -0.4506
17514TIP3    H174033   2.183   6.615   3.325  0.3393  1.0070 -0.8747
17514TIP3    H274034   2.317   6.553   3.359  0.3327  0.7065 -1.3962
17515TIP3   OH274035   2.514   3.843  14.321 -0.1799  0.1786  0.2555
17515TIP3    H174036   2.512   3.754  14.355  1.0105 -0.0420 -0.1998
17515TIP3    H274037   2.560   3.894  14.388  0.5418  0.1178 -0.1863
17516TIP3   OH274038   2.305   0.621  16.953  0.3886  0.4540 -0.4161
17516TIP3    H174039   2.297   0.598  16.860  0.5242  1.5405 -0.7024
17516TIP3    H274040   2.217   0.651  16.977  0.3747  0.2484 -0.2125
17517TIP3   OH274041   1.203   0.472  13.596  0.4616 -0.5325 -0.7729
17517TIP3    H174042   1.167   0.523  13.669  1.0213 -0.4481 -0.5554
17517TIP3    H274043   1.263   0.411  13.638  1.4781  0.1318 -1.2544
17518TIP3   OH274044   4.609   3.408   4.001  0.1285  0.1122  0.5102
17518TIP3    H174045   4.550   3.370   4.066  0.8986 -1.1847  0.4741
17518TIP3    H274046   4.612   3.343   3.931  0.1417  1.0123 -0.3233
17519TIP3   OH274047   0.723   0.221  15.471  0.6372  0.5420 -0.0327
17519TIP3    H174048   0.636   0.258  15.456  0.3508 -0.3343 -0.5793
17519TIP3    H274049   0.720   0.135  15.429  1.8079  0.5549 -0.1659
17520TIP3   OH274050   3.411   1.937  14.881 -0.0903  0.2068  1.4791
17520TIP3    H174051   3.505   1.954  14.889  0.3997 -0.3935 -2.1270
17520TIP3    H274052   3.376   2.014  14.836 -0.7999 -0.7548  0.3373
17521TIP3   OH274053   6.563   6.425  16.459 -0.3797 -0.2073 -0.1821
17521TIP3    H174054   6.555   6.473  16.542  2.4286 -2.1260  1.2824
17521TIP3    H274055   6.518   6.342  16.475 -0.8281 -0.1304 -1.0068
17522TIP3   OH274056   4.596   0.509   5.530  0.3102 -0.1975 -0.6383
17522TIP3    H174057   4.602   0.595   5.488  1.6903 -0.8350 -1.7999
17522TIP3    H274058   4.553   0.454   5.465  1.9256 -1.0539 -0.9999
17523TIP3   OH274059   0.894   1.418   0.494  0.1154  0.1797 -0.4175
17523TIP3    H174060   0.905   1.496   0.439  0.5274  0.1639 -0.3614
17523TIP3    H274061   0.872   1.453   0.581  1.2583  0.2798 -0.1535
17524TIP3   OH274062   5.074   3.213  11.580 -0.5355  0.4679 -0.1190
17524TIP3    H174063   5.161   3.177  11.564 -0.9374 -0.3753 -0.4431
17524TIP3    H274064   5.021   3.137  11.605 -1.4220  0.8200 -0.9065
17525TIP3   OH274065   0.767   1.895  15.868 -0.2158  0.3197  0.1945
17525TIP3    H174066   0.685   1.845  15.860  0.6239 -0.9404 -0.7886
17525TIP3    H274067   0.801   1.899  15.778  0.0145  2.2017  0.3512
17526TIP3   OH274068   6.669   2.990   6.751  0.6512 -0.0634 -0.3169
17526TIP3    H174069   6.619   2.918   6.712 -0.3455  0.6970 -0.4712
17526TIP3    H274070   6.635   3.069   6.709 -0.4754  0.7910  2.0636
17527TIP3   OH274071   0.994   4.565  10.945  0.9459  0.0418 -0.2037
17527TIP3    H174072   1.087   4.563  10.923  1.2796 -0.3375  1.2015
17527TIP3    H274073   0.962   4.647  10.907  1.9274  0.3427 -0.3863
17528TIP3   OH274074   1.500   5.569  16.716  0.1241 -0.4185  0.0024
17528TIP3    H174075   1.407   5.547  16.722 -0.7564  1.8319 -3.7930
17528TIP3    H274076   1.502   5.664  16.713  2.6745 -0.3965  0.8220
17529TIP3   OH274077   6.226   3.951  12.696  0.0908  0.3838 -0.0097
17529TIP3    H174078   6.163   3.883  12.720  1.5623 -0.0584  2.7551
17529TIP3    H274079   6.195   4.029  12.741  0.6135  0.5798  0.0058
17530TIP3   OH274080   3.847   5.915  15.929 -0.4631 -0.0815 -0.1895
17530TIP3    H174081   3.765   5.916  15.977 -1.0648  0.6928 -1.2196
17530TIP3    H274082   3.901   5.981  15.972 -0.9381  0.4960 -0.4853
17531TIP3   OH274083   1.053   3.338  15.120  0.2208  0.3315  0.0206
17531TIP3    H174084   1.110   3.414  15.114 -0.4763  0.8026 -0.8982
17531TIP3    H274085   1.048   3.319  15.213  3.1367 -0.7053  0.0158
17532TIP3   OH274086   4.212   0.196   0.874 -0.0715 -0.1714 -0.2347
17532TIP3    H174087   4.253   0.277   0.903 -0.9350  0.5163 -0.9095
17532TIP3    H274088   4.143   0.179   0.937 -0.0880 -0.2244 -0.2662
17533TIP3   OH274089   0.611   5.182   2.066 -0.9046 -0.5541 -0.6354
17533TIP3    H174090   0.581   5.112   2.125  1.0658 -1.0379 -0.1573
17533TIP3    H274091   0.656   5.135   1.996  2.4967  0.3056  0.8957
17534TIP3   OH274092   6.603   2.102   5.710  0.0504  0.4951  0.9414
17534TIP3    H174093   6.698   2.093   5.702  0.2270  0.8506  2.5911
17534TIP3    H274094   6.576   2.031   5.769 -0.9439 -0.6362 -0.8020
17535TIP3   OH274095   3.631   6.028   5.222 -0.7853  0.3231  0.0753
17535TIP3    H174096   3.600   5.941   5.248  0.4421 -0.5031 -1.1559
17535TIP3    H274097   3.648   6.073   5.305  0.2040 -1.2063  0.7262
17536TIP3   OH274098   0.568   1.055   1.053 -0.4468 -0.2407  0.2322
17536TIP3    H174099   0.625   1.057   0.976 -0.1539  1.1388  0.4648
17536TIP3    H274100   0.525   0.970   1.049  1.0831 -1.0031 -0.3503
17537TIP3   OH274101   0.789   4.550  11.818 -0.0485  0.1483 -0.3427
17537TIP3    H174102   0.813   4.460  11.796 -0.5288 -0.2410  0.6813
17537TIP3    H274103   0.872   4.592  11.840  0.2838  0.2054 -1.6904
17538TIP3   OH274104   4.855   4.160   0.202  0.3883  0.2772  0.1298
17538TIP3    H174105   4.945   4.128   0.209  0.2376  0.2774  2.2733
17538TIP3    H274106   4.807   4.112   0.270 -1.4217 -0.3020 -1.5015
17539TIP3   OH274107   5.179   6.672   3.017 -0.2722  0.5667  0.3122
17539TIP3    H174108   5.212   6.671   3.107  1.5391  1.2459 -0.3130
17539TIP3    H274109   5.122   6.596   3.011 -0.5794  0.6348  2.0936
17540TIP3   OH274110   1.628   5.511  14.395 -0.4604  0.1911 -0.7809
17540TIP3    H174111   1.671   5.592  14.423  1.1993 -0.4652 -1.3809
17540TIP3    H274112   1.698   5.446  14.392 -2.0506 -1.7207  1.3506
17541TIP3   OH274113   0.423   0.062  11.176  0.0094 -0.5806  0.0076
17541TIP3    H174114   0.346   0.017  11.212 -0.9523  1.1068  0.1246
17541TIP3    H274115   0.409   0.062  11.081 -0.8920  1.0029  0.1176
17542TIP3   OH274116   3.683   1.824   0.856 -0.5286  0.5085 -0.3531
17542TIP3    H174117   3.757   1.859   0.807  1.0950 -1.2210  0.7762
17542TIP3    H274118   3.698   1.853   0.946 -0.2856 -1.2964  0.2062
17543TIP3   OH274119   1.581   4.699  15.556  1.0982  0.0285  0.1870
17543TIP3    H174120   1.608   4.633  15.620 -0.7229  0.5832  1.5969
17543TIP3    H274121   1.523   4.757  15.605 -0.0785  0.6742 -1.8878
17544TIP3   OH274122   4.294   4.409  12.290 -0.5461  0.6592  0.2251
17544TIP3    H174123   4.313   4.491  12.335  1.7800 -0.2173  0.9051
17544TIP3    H274124   4.299   4.342  12.358  1.7792 -0.5283 -1.0553
17545TIP3   OH274125   4.041   2.744   0.234  0.6322 -0.2265  1.2878
17545TIP3    H174126   3.993   2.741   0.151 -0.8044 -0.2071  2.1013
17545TIP3    H274127   4.056   2.652   0.257 -0.2162 -0.2637  1.7073
17546TIP3   OH274128   0.430   6.385   0.449  0.4057  0.5547 -1.0483
17546TIP3    H174129   0.440   6.394   0.355 -0.7270  1.6626 -1.0834
17546TIP3    H274130   0.461   6.468   0.485  1.9468 -0.3147 -0.3513
17547TIP3   OH274131   4.173   0.216   3.248 -0.5033  0.1217 -0.2760
17547TIP3    H174132   4.181   0.230   3.154 -0.2994  1.1900 -0.1164
17547TIP3    H274133   4.231   0.142   3.267 -1.8065 -1.1634 -1.2270
17548TIP3   OH274134   4.523   5.611   3.172  0.1327  0.0720  0.1900
17548TIP3    H174135   4.437   5.605   3.130  0.5832 -3.2051 -0.4709
17548TIP3    H274136   4.521   5.544   3.241  1.4629  1.3310  1.4767
17549TIP3   OH274137   0.283   2.897   3.864  0.0798 -0.4194 -0.3204
17549TIP3    H174138   0.325   2.947   3.934  1.5089 -0.5833 -1.0350
17549TIP3    H274139   0.246   2.821   3.908  0.0768 -0.0065  0.4084
17550TIP3   OH274140   2.031   0.508   6.022  0.5990 -0.3697 -0.2173
17550TIP3    H174141   2.100   0.543   6.079  0.6418 -0.6911 -0.0727
17550TIP3    H274142   2.048   0.548   5.937 -0.8219  1.9196  0.5271
17551TIP3   OH274143   4.174   0.318  12.002 -0.0313  1.0174  0.6807
17551TIP3    H174144   4.177   0.365  11.919  0.1651  0.7181  0.5172
17551TIP3    H274145   4.152   0.228  11.978  2.6003  0.3335  0.7007
17552TIP3   OH274146   5.522   5.749  12.674  0.0413 -0.2359 -0.5894
17552TIP3    H174147   5.569   5.677  12.632  0.9317  2.0074 -3.5685
17552TIP3    H274148   5.590   5.799  12.718 -0.5025 -0.7827  0.9261
17553TIP3   OH274149   4.202   4.230  17.161 -0.3916  0.6577  0.1715
17553TIP3    H174150   4.130   4.271  17.114 -0.9741 -1.5677 -0.9650
17553TIP3    H274151   4.281   4.265  17.119 -0.8695  0.8734 -0.5571
17554TIP3   OH274152   4.939   5.300  11.574  0.0824  0.1710  0.7934
17554TIP3    H174153   4.928   5.220  11.625 -0.3186 -0.8525 -0.8664
17554TIP3    H274154   5.028   5.293  11.539  0.7052  1.3232  2.0702
17555TIP3   OH274155   1.032   4.712  12.032 -0.2034  0.3784  0.1133
17555TIP3    H174156   1.009   4.767  12.107 -0.5503  0.2949  0.0656
17555TIP3    H274157   0.956   4.718  11.974  0.2341  0.7854 -0.4295
17556TIP3   OH274158   4.984   4.224   5.378 -0.1280  0.6387 -0.4294
17556TIP3    H174159   5.065   4.213   5.428 -0.3834 -0.1015 -0.1809
17556TIP3    H274160   4.972   4.142   5.332 -2.7686 -0.7361  2.5533
17557TIP3   OH274161   6.095   2.614   2.694 -0.3915  0.3068 -0.6856
17557TIP3    H174162   6.021   2.637   2.749  0.3543 -0.3523  0.6152
17557TIP3    H274163   6.135   2.698   2.671 -1.8710  0.7003 -1.8915
17558TIP3   OH274164   2.485   1.042   3.856  0.5991  0.0013  0.0631
17558TIP3    H174165   2.578   1.058   3.876  0.2565  0.1000  1.6532
17558TIP3    H274166   2.471   0.951   3.883  0.2911 -0.0880 -0.4033
17559TIP3   OH274167   5.885   3.057   4.594 -0.2293  0.2120 -0.3197
17559TIP3    H174168   5.826   3.054   4.519 -0.0837 -2.6246 -0.3677
17559TIP3    H274169   5.973   3.060   4.556 -0.1186 -2.0527 -0.3229
17560TIP3   OH274170   2.602   5.197  16.222 -0.4104 -0.1545  0.0728
17560TIP3    H174171   2.585   5.271  16.281 -1.0881 -1.4392  1.5354
17560TIP3    H274172   2.540   5.209  16.150  0.5792  1.5582 -0.5066
17561TIP3   OH274173   0.756   4.428  16.646 -0.0570  0.2584  1.0600
17561TIP3    H174174   0.716   4.349  16.683  0.1045 -0.2179  0.2341
17561TIP3    H274175   0.718   4.500  16.696 -0.5996 -0.3101  1.4713
17562TIP3   OH274176   3.483   4.544   4.108 -0.0131 -0.1962 -0.4536
17562TIP3    H174177   3.389   4.532   4.102 -0.2871  1.4255  0.3353
17562TIP3    H274178   3.518   4.508   4.026 -1.3548 -0.3293 -0.9689
17563TIP3   OH274179   1.577   4.992  12.736  0.3017  0.5147 -0.0166
17563TIP3    H174180   1.660   4.947  12.719 -0.8355 -1.0644 -1.6772
17563TIP3    H274181   1.554   5.032  12.652 -1.2001 -0.0926  0.0953
17564TIP3   OH274182   3.342   4.981   6.691 -0.3329 -0.1270 -0.8148
17564TIP3    H174183   3.250   4.961   6.673  0.1513 -0.5498 -2.9938
17564TIP3    H274184   3.358   5.061   6.642  0.6746 -0.4892 -1.0761
17565TIP3   OH274185   2.292   1.771  15.883  0.3429  0.0320  0.1500
17565TIP3    H174186   2.354   1.728  15.941 -0.3392 -0.1388  0.7584
17565TIP3    H274187   2.324   1.861  15.875  1.2419 -0.3308 -0.3749
17566TIP3   OH274188   4.570   4.478  12.158 -0.3027  0.2153 -0.0550
17566TIP3    H174189   4.482   4.516  12.161 -0.0045  0.8286  1.0410
17566TIP3    H274190   4.566   4.414  12.087 -1.7663 -0.0891  0.2909
17567TIP3   OH274191   6.429   2.248   5.551  0.0820  0.7318 -0.5067
17567TIP3    H174192   6.468   2.204   5.626 -0.9351  0.4920 -0.1204
17567TIP3    H274193   6.359   2.302   5.587  0.0958  1.2163 -1.1893
17568TIP3   OH274194   1.649   5.357   1.214 -0.2465  0.4667  0.2431
17568TIP3    H174195   1.626   5.271   1.249 -0.7745  0.1745 -0.7956
17568TIP3    H274196   1.568   5.407   1.219 -0.2551  0.5102 -0.2818
17569TIP3   OH274197   5.224   4.047   5.898 -0.1123  0.4383 -0.2278
17569TIP3    H174198   5.151   3.988   5.878 -0.3841  0.7719 -0.2036
17569TIP3    H274199   5.301   3.990   5.894 -0.2158  0.3890 -1.7220
17570TIP3   OH274200   3.278   6.501   0.688 -0.1442 -0.1719  0.0520
17570TIP3    H174201   3.205   6.548   0.728  0.8964  1.0730  0.5276
17570TIP3    H274202   3.331   6.472   0.762  0.0418 -0.7480 -0.3017
17571TIP3   OH274203   2.382   3.491   5.847 -0.2394 -0.1817 -0.5000
17571TIP3    H174204   2.336   3.575   5.850 -0.6708 -0.4155 -0.6775
17571TIP3    H274205   2.434   3.495   5.767 -0.7399 -0.3410 -0.8289
17572TIP3   OH274206   0.766   1.723  11.461  0.2951  0.4192  0.1278
17572TIP3    H174207   0.823   1.657  11.422  0.2808  1.8325 -2.3598
17572TIP3    H274208   0.744   1.782  11.389 -0.8900  2.3112  1.9782
17573TIP3   OH274209   1.700   4.223   3.554 -0.0713  0.0142  0.2230
17573TIP3    H174210   1.790   4.251   3.572 -0.5533  0.0442  2.6968
17573TIP3    H274211   1.660   4.299   3.512  0.2972  0.9977  1.6109
17574TIP3   OH274212   1.780   2.097   5.377 -0.7126 -0.1296  0.2862
17574TIP3    H174213   1.686   2.113   5.388 -0.7444  0.5105 -0.8138
17574TIP3    H274214   1.789   2.068   5.286  0.1118 -0.4866  0.4804
17575TIP3   OH274215   5.434   0.941   1.770 -0.2911  0.5133 -0.0348
17575TIP3    H174216   5.345   0.940   1.807 -0.0044  0.5406  0.6661
17575TIP3    H274217   5.445   1.030   1.737 -0.3775  0.6332  0.2557
17576TIP3   OH274218   2.492   0.246   4.971 -0.0830 -0.0230  0.2766
17576TIP3    H174219   2.491   0.241   4.875  0.2401 -1.2210  0.3287
17576TIP3    H274220   2.408   0.286   4.993  0.0942  0.8300 -0.5263
17577TIP3   OH274221   0.183   6.245  14.465  0.5167  0.2726 -0.2885
17577TIP3    H174222   0.158   6.240  14.373 -0.8465  1.1141  0.0331
17577TIP3    H274223   0.214   6.335  14.477  2.6064 -0.4070 -0.3940
17578TIP3   OH274224   0.857   6.652  14.657  0.3330  0.5953 -0.4630
17578TIP3    H174225   0.927   6.656  14.722 -0.7630 -2.4830  1.0084
17578TIP3    H274226   0.801   6.727  14.677  0.7774  0.4825  1.2726
17579TIP3   OH274227   0.512   2.512   5.054  0.3185  0.3677  0.3431
17579TIP3    H174228   0.568   2.558   4.991  2.9294 -1.8064  0.9470
17579TIP3    H274229   0.536   2.550   5.139 -3.0058  3.1096  0.1534
17580TIP3   OH274230   4.710   2.035  13.585 -0.7589  0.0406  0.3447
17580TIP3    H174231   4.757   2.022  13.667 -0.2346 -1.3435 -0.1501
17580TIP3    H274232   4.618   2.040  13.611 -0.5192  0.5621  1.1056
17581TIP3   OH274233   1.164   4.098   3.153  0.1675  0.3590 -0.3673
17581TIP3    H174234   1.226   4.027   3.170  0.0918  0.4230  0.1732
17581TIP3    H274235   1.177   4.159   3.226 -1.4244 -0.2481  0.4358
17582TIP3   OH274236   0.002   6.306  13.356 -0.0989 -0.0798  0.1406
17582TIP3    H174237   0.017   6.213  13.368 -1.9118 -0.7152 -2.0858
17582TIP3    H274238  -0.083   6.311  13.312  0.0303  2.6111  0.1242
17583TIP3   OH274239   4.053   0.544   5.604 -0.1507  0.9346  0.6629
17583TIP3    H174240   3.986   0.519   5.541 -0.5423 -0.6043  1.6806
17583TIP3    H274241   4.132   0.559   5.552 -0.2810 -1.0612 -0.1084
17584TIP3   OH274242   1.217   2.967   5.714  0.5519 -0.2680  0.1351
17584TIP3    H174243   1.301   2.963   5.759 -0.6051  0.9482  2.4350
17584TIP3    H274244   1.161   2.907   5.763 -0.1183 -0.6313 -1.0514
17585TIP3   OH274245   0.761   2.834   0.052  0.4449  0.3011  0.8427
17585TIP3    H174246   0.679   2.787   0.040  0.2360  0.8017  0.2362
17585TIP3    H274247   0.776   2.877  -0.033  1.0712  0.6156  1.1106
17586TIP3   OH274248   5.538   0.604   6.003  0.3591  0.5878  0.0131
17586TIP3    H174249   5.617   0.580   6.052  0.0013  0.9304  0.7642
17586TIP3    H274250   5.466   0.590   6.065 -0.3357 -1.3096 -1.1887
17587TIP3   OH274251   5.668   5.160  17.261 -0.0414  0.0533 -0.2548
17587TIP3    H174252   5.615   5.239  17.272  0.7215  0.5083  0.2426
17587TIP3    H274253   5.640   5.102  17.332  1.2771  0.9573  1.0386
17588TIP3   OH274254   5.342   3.768   1.521 -0.4421  0.2424 -0.2565
17588TIP3    H174255   5.359   3.804   1.608  1.3211  1.0923 -0.9360
17588TIP3    H274256   5.257   3.806   1.495 -0.5766  0.6342  0.7378
17589TIP3   OH274257   4.206   3.881   3.894  0.7302 -0.1374  0.0680
17589TIP3    H174258   4.249   3.796   3.901  1.2728  0.1660  0.4256
17589TIP3    H274259   4.248   3.935   3.960  0.8752  0.6217 -0.6356
17590TIP3   OH274260   3.669   5.651   4.227 -0.2486  0.1800  0.0311
17590TIP3    H174261   3.640   5.653   4.318 -1.9187 -0.8638 -0.4575
17590TIP3    H274262   3.764   5.645   4.232 -0.3936 -0.8467  1.7092
17591TIP3   OH274263   5.841   4.837   1.441  0.0484  0.0152 -0.5322
17591TIP3    H174264   5.876   4.881   1.519 -2.2898 -0.0099  0.5562
17591TIP3    H274265   5.794   4.905   1.394 -2.3658 -0.9636  0.4220
17592TIP3   OH274266   3.715   2.914  13.645  0.1345  0.8599  0.2738
17592TIP3    H174267   3.807   2.902  13.622 -0.3482 -1.4406 -0.6306
17592TIP3    H274268   3.688   2.830  13.681 -0.9842  2.2883  2.9375
17593TIP3   OH274269   4.319   6.254   0.118 -0.2261  0.1900  0.4600
17593TIP3    H174270   4.309   6.322   0.051 -0.2729  0.2741  0.5539
17593TIP3    H274271   4.239   6.202   0.113  0.1144 -0.2948 -0.1062
17594TIP3   OH274272   0.810   2.113   2.985  0.3549 -0.6191 -0.1008
17594TIP3    H174273   0.762   2.031   2.997  1.4837 -1.2708  0.0340
17594TIP3    H274274   0.779   2.148   2.902 -1.2011 -0.4407  0.5499
17595TIP3   OH274275   3.053   6.555  11.621  0.0356 -0.3389  0.2266
17595TIP3    H174276   3.036   6.643  11.588 -0.6674 -0.3623  0.5290
17595TIP3    H274277   2.985   6.500  11.581 -0.0022 -0.6046  0.6509
17596TIP3   OH274278   2.981   0.916  14.778  0.1124 -0.3746  0.4744
17596TIP3    H174279   2.892   0.944  14.797 -0.0507 -1.0372  0.7094
17596TIP3    H274280   2.971   0.842  14.718  0.6600  2.2297 -2.9625
17597TIP3   OH274281   5.633   2.593   0.416 -0.7564  0.1334 -0.1020
17597TIP3    H174282   5.622   2.657   0.345  2.9753  2.0277  0.8896
17597TIP3    H274283   5.582   2.627   0.489  0.9260  1.8598  0.2999
17598TIP3   OH274284   5.100   5.559   3.574  0.3570 -0.2088 -0.7973
17598TIP3    H174285   5.031   5.530   3.633  1.2616  1.1287  0.9704
17598TIP3    H274286   5.158   5.482   3.566  0.8371 -0.0641  1.0026
17599TIP3   OH274287   3.745   3.367  12.848 -0.1510 -0.5871 -0.3683
17599TIP3    H174288   3.671   3.417  12.812 -0.3583 -0.7464 -0.1683
17599TIP3    H274289   3.818   3.388  12.791  0.3672  1.8244  1.0663
17600TIP3   OH274290   6.301   0.247  13.437 -0.2287  0.6001 -0.5766
17600TIP3    H174291   6.226   0.189  13.425  0.6289 -0.4473 -1.0044
17600TIP3    H274292   6.371   0.189  13.468  0.3677  1.5852 -0.0629
17601TIP3   OH274293   4.931   0.015   6.687 -0.2371 -0.3122 -0.6866
17601TIP3    H174294   4.873   0.086   6.659 -0.4504  0.5189  1.7441
17601TIP3    H274295   4.881  -0.065   6.673 -0.8960  0.1955 -1.2386
17602TIP3   OH274296   4.147   6.477   1.816  0.2507  0.2659  0.1323
17602TIP3    H174297   4.157   6.530   1.737  2.3022 -0.0518  0.1362
17602TIP3    H274298   4.136   6.388   1.785 -0.0632  0.2878  0.1816
17603TIP3   OH274299   6.484   1.929  16.196  0.3057  0.7825 -0.7568
17603TIP3    H174300   6.501   1.956  16.287  0.2533 -2.3477  0.2429
17603TIP3    H274301   6.571   1.920  16.157  0.4859 -1.5792  0.1503
17604TIP3   OH274302   4.124   3.537  14.026 -0.2827 -0.5951 -0.8353
17604TIP3    H174303   4.099   3.476  13.957  1.7785  0.2805 -2.3765
17604TIP3    H274304   4.111   3.624  13.988 -1.5616 -0.0355  0.7709
17605TIP3   OH274305   4.602   1.043  15.307  0.2306  0.3849 -0.3760
17605TIP3    H174306   4.672   0.991  15.266 -0.2216 -1.1971  0.8371
17605TIP3    H274307   4.523   1.019  15.259  0.2740  1.1641 -0.8549
17606TIP3   OH274308   4.287   1.201   4.688  0.2319  0.5936  0.8312
17606TIP3    H174309   4.378   1.177   4.707  0.9608  1.7123 -1.1343
17606TIP3    H274310   4.275   1.285   4.733  0.3688  0.7734  0.5280
17607TIP3   OH274311   4.156   5.980   5.302  0.6097  0.0712 -0.3175
17607TIP3    H174312   4.074   5.979   5.351  0.4548  0.9462 -0.5483
17607TIP3    H274313   4.158   6.066   5.259  2.2422  0.5666  0.6953
17608TIP3   OH274314   0.564   4.152   3.360 -0.1255 -0.0493 -0.0741
17608TIP3    H174315   0.561   4.216   3.289 -0.4684 -0.8311 -0.7749
17608TIP3    H274316   0.521   4.196   3.434  0.0897  0.7059 -0.3980
17609TIP3   OH274317   1.571   4.637   4.710 -0.1862 -0.6415 -0.1709
17609TIP3    H174318   1.539   4.713   4.759 -0.0240  0.1440 -1.2503
17609TIP3    H274319   1.532   4.561   4.754  1.3852 -0.0947  2.2637
17610TIP3   OH274320   1.439   2.253  15.506 -0.5047 -0.5058 -0.0295
17610TIP3    H174321   1.473   2.178  15.458  1.1931  0.0038  0.3342
17610TIP3    H274322   1.436   2.223  15.597 -1.6252 -0.7525 -0.1479
17611TIP3   OH274323   3.821   5.077   2.590  0.1187 -0.2684 -0.1344
17611TIP3    H174324   3.793   5.079   2.499 -2.4164  1.5023  0.6144
17611TIP3    H274325   3.783   4.997   2.625 -1.5460  0.5974  0.1027
17612TIP3   OH274326   0.379   3.881   4.726 -0.4360  0.4343 -0.0517
17612TIP3    H174327   0.472   3.859   4.731 -0.6704 -0.4651  0.5682
17612TIP3    H274328   0.341   3.811   4.674 -1.0387 -0.1123  1.1108
17613TIP3   OH274329   3.877   0.819  14.269  0.2844  0.3442 -0.2678
17613TIP3    H174330   3.929   0.766  14.330  0.0851  0.7719  0.2777
17613TIP3    H274331   3.941   0.877  14.227  0.6114 -0.7685 -1.3590
17614TIP3   OH274332   6.286   3.946   3.567  0.1331 -0.1461 -0.4904
17614TIP3    H174333   6.373   3.955   3.605  0.6481 -1.8448 -1.1933
17614TIP3    H274334   6.294   3.981   3.478  0.3388 -1.0658 -0.8454
17615TIP3   OH274335   0.014   2.655   2.868 -0.1066  0.5131 -0.5393
17615TIP3    H174336   0.107   2.656   2.846  0.0034  1.8099 -0.0422
17615TIP3    H274337  -0.029   2.619   2.791  0.8800 -0.9026 -0.4548
17616TIP3   OH274338   0.539   1.841   1.616 -0.0163  1.1981 -0.4395
17616TIP3    H174339   0.610   1.896   1.583  2.1996 -1.9636 -1.2166
17616TIP3    H274340   0.504   1.798   1.538 -0.8766  0.5704  0.2847
17617TIP3   OH274341   4.393   4.815   5.997 -1.2222 -0.1285  0.3086
17617TIP3    H174342   4.374   4.764   6.076 -1.0777  0.1257  0.5077
17617TIP3    H274343   4.456   4.881   6.026  1.0386 -1.7971 -0.6021
17618TIP3   OH274344   4.290   2.450   6.176  0.2310 -0.1620  0.0206
17618TIP3    H174345   4.342   2.523   6.140 -0.7969  1.0393  0.9315
17618TIP3    H274346   4.349   2.405   6.236  0.7316  0.2044 -0.1955
17619TIP3   OH274347   1.585   3.843   4.231  0.4685 -0.1113 -0.1327
17619TIP3    H174348   1.500   3.810   4.203  0.3348  0.8984 -0.9289
17619TIP3    H274349   1.584   3.936   4.208  2.4328 -0.4563 -1.7100
17620TIP3   OH274350   1.232   5.371  16.137 -0.6166  0.1912  0.6976
17620TIP3    H174351   1.285   5.295  16.111 -0.1014 -0.2296  2.8729
17620TIP3    H274352   1.146   5.334  16.157 -0.8122  0.4198  0.2957
17621TIP3   OH274353   3.402   2.299   5.764 -0.2024  0.0652  0.6193
17621TIP3    H174354   3.463   2.245   5.815  0.3433 -1.4613 -1.5956
17621TIP3    H274355   3.458   2.361   5.717 -0.5140 -0.0029  0.1569
17622TIP3   OH274356   1.401   3.552  13.978  0.6142  0.1713 -0.0808
17622TIP3    H174357   1.398   3.647  13.968  1.7428  0.1051 -1.3043
17622TIP3    H274358   1.449   3.522  13.901 -1.6096 -1.5859 -0.8398
17623TIP3   OH274359   4.451   3.121   3.266  0.6749 -0.0061 -0.4954
17623TIP3    H174360   4.394   3.187   3.225  1.8881  0.7830 -0.9430
17623TIP3    H274361   4.521   3.172   3.306  1.7543 -1.0582 -1.0427
17624TIP3   OH274362   1.398   6.661   0.488  0.0775 -0.2164  0.8760
17624TIP3    H174363   1.401   6.689   0.580 -1.4734 -0.4453  1.0162
17624TIP3    H274364   1.351   6.578   0.490 -3.2657  1.5466 -0.4891
17625TIP3   OH274365   0.045   1.365  15.011 -0.6272  0.7227 -0.2482
17625TIP3    H174366   0.070   1.447  15.054  1.0593 -0.0985  0.3365
17625TIP3    H274367   0.078   1.374  14.922 -0.4084  0.6592 -0.1738
17626TIP3   OH274368   5.605   5.846  14.414  0.3089 -0.4515 -0.3358
17626TIP3    H174369   5.688   5.892  14.425 -1.1418  1.9974  1.0660
17626TIP3    H274370   5.595   5.795  14.495 -0.3568  0.6943  0.3289
17627TIP3   OH274371   5.934   4.470   2.216  0.4534 -0.3518  0.5873
17627TIP3    H174372   5.968   4.530   2.284  2.4378 -1.7505  0.8738
17627TIP3    H274373   6.010   4.453   2.160 -0.6536 -0.8936 -0.7513
17628TIP3   OH274374   4.465   6.214   1.578 -0.5089  0.0985 -0.2981
17628TIP3    H174375   4.429   6.247   1.496  2.8453  2.0389 -1.1096
17628TIP3    H274376   4.524   6.283   1.607 -0.1738 -1.3955  2.7784
17629TIP3   OH274377   3.110   6.637   4.046 -0.2420  0.0785 -0.3000
17629TIP3    H174378   3.082   6.709   3.990  1.9533  2.5449  1.6865
17629TIP3    H274379   3.197   6.614   4.015 -0.5310 -1.1008 -0.2869
17630TIP3   OH274380   6.641   3.843  11.997 -0.2140 -0.5023 -0.4071
17630TIP3    H174381   6.680   3.760  12.021  1.3301  0.2600 -0.1836
17630TIP3    H274382   6.643   3.895  12.077  1.3641  0.6757 -1.1688
17631TIP3   OH274383   0.734   4.001   4.935 -0.4846  0.6975 -0.0001
17631TIP3    H174384   0.683   3.961   4.865  2.1318 -0.9185 -1.0321
17631TIP3    H274385   0.735   4.094   4.913 -1.3529  0.4710 -1.0429
17632TIP3   OH274386   2.859   6.106   4.379  0.7811 -0.0899 -0.2100
17632TIP3    H174387   2.929   6.048   4.350  0.6012 -0.1596 -0.5057
17632TIP3    H274388   2.903   6.177   4.424  1.0436 -0.0962 -0.4618
17633TIP3   OH274389   5.556   3.459   0.874  0.2315  0.1397 -0.4359
17633TIP3    H174390   5.497   3.533   0.891  0.2077  0.3594 -1.4226
17633TIP3    H274391   5.498   3.389   0.845  0.2048 -0.4264  0.9709
17634TIP3   OH274392   2.064   3.797  16.353 -0.0298  0.1685 -0.1712
17634TIP3    H174393   2.116   3.866  16.311  0.3503 -0.1699 -0.2647
17634TIP3    H274394   2.122   3.721  16.354 -0.2007  0.0424  0.5617
17635TIP3   OH274395   2.436   1.929   0.003 -0.4563  0.0758  0.0817
17635TIP3    H174396   2.400   1.843  -0.020  3.6862 -1.3419 -1.5604
17635TIP3    H274397   2.466   1.919   0.093 -1.3550  0.3215  0.4174
17636TIP3   OH274398   5.775   5.981  16.425 -0.2249 -0.0923  0.0457
17636TIP3    H174399   5.735   6.068  16.431  0.3451  0.2125 -0.5521
17636TIP3    H274400   5.702   5.921  16.443 -0.3887  0.5247  1.5899
17637TIP3   OH274401   4.947   5.703   2.540 -0.2984  0.0579 -0.0471
17637TIP3    H174402   4.915   5.620   2.574 -1.6083 -0.4248 -2.3649
17637TIP3    H274403   4.997   5.679   2.462  0.4953  1.3414  0.0503
17638TIP3   OH274404   0.836   1.752   4.241  0.3994  0.1219 -0.0404
17638TIP3    H174405   0.829   1.658   4.257  0.6997  0.0476 -0.3373
17638TIP3    H274406   0.866   1.759   4.151 -1.6759  0.5473 -0.7289
17639TIP3   OH274407   6.473   0.564   4.188 -0.2286 -0.1944  0.3873
17639TIP3    H174408   6.441   0.615   4.114 -1.0159 -0.9939  0.1705
17639TIP3    H274409   6.397   0.514   4.218 -0.4292  1.5266  2.9533
17640TIP3   OH274410   3.329   0.269   2.371 -0.3707 -0.0274 -0.1216
17640TIP3    H174411   3.339   0.287   2.464  1.7750 -0.2427 -0.2773
17640TIP3    H274412   3.321   0.174   2.365  0.9625 -0.1500 -0.2370
17641TIP3   OH274413   5.136   4.587  17.021  0.1365 -0.2319  0.5367
17641TIP3    H174414   5.212   4.601  16.964  2.1481 -0.6919  2.9679
17641TIP3    H274415   5.144   4.496  17.049 -1.6441 -0.4417  0.4148
17642TIP3   OH274416   1.071   0.627   3.566 -0.4666 -0.4553 -0.0433
17642TIP3    H174417   1.139   0.675   3.520  1.1565 -2.2258  0.4485
17642TIP3    H274418   1.081   0.653   3.658 -0.9727 -0.1275 -0.0778
17643TIP3   OH274419   5.251   0.129   0.357  0.1364 -0.1165 -0.5353
17643TIP3    H174420   5.261   0.042   0.318 -0.1335  0.0509 -0.9857
17643TIP3    H274421   5.210   0.113   0.441 -1.3833 -0.2932 -1.3029
17644TIP3   OH274422   5.304   3.196   1.114 -0.2326 -0.0940  0.0769
17644TIP3    H174423   5.337   3.136   1.181  1.3278  0.6092 -0.0378
17644TIP3    H274424   5.334   3.282   1.142 -0.5700  0.3523 -0.9192
17645TIP3   OH274425   2.527   4.289  12.800  0.1412 -0.3182 -0.5276
17645TIP3    H174426   2.433   4.277  12.807  0.1744 -0.2287  0.1312
17645TIP3    H274427   2.549   4.256  12.713 -0.4575 -0.6026 -0.5751
17646TIP3   OH274428   2.447   3.045   6.109 -0.4055  0.1392  0.3779
17646TIP3    H174429   2.522   3.051   6.051  0.1274  0.1753  1.0620
17646TIP3    H274430   2.434   2.951   6.123 -3.2164 -0.1249 -3.2138
17647TIP3   OH274431   5.607   1.520  10.915 -0.6061 -0.1284 -0.1374
17647TIP3    H174432   5.538   1.456  10.896 -0.9373  0.2593 -0.2487
17647TIP3    H274433   5.569   1.604  10.889 -0.0111  0.0583 -0.3996
17648TIP3   OH274434   1.823   0.140  12.826 -0.1684  1.0795  0.3170
17648TIP3    H174435   1.874   0.196  12.884  1.1081  0.3648 -0.0913
17648TIP3    H274436   1.810   0.059  12.876 -0.8845  1.2496  0.4089
17649TIP3   OH274437   3.956   6.638   2.651 -0.0704  0.0312  0.6559
17649TIP3    H174438   3.885   6.701   2.665 -0.1984  0.0937 -0.2348
17649TIP3    H274439   3.917   6.569   2.597  0.6065  0.2006 -0.0589
17650TIP3   OH274440   0.324   2.044  14.560  0.1674 -0.2104 -0.1989
17650TIP3    H174441   0.418   2.062  14.561  0.0857  0.3129 -1.3596
17650TIP3    H274442   0.311   1.992  14.481 -0.2421 -1.8842  0.9455
17651TIP3   OH274443   3.157   6.266   0.549 -0.0300 -0.7406  0.0966
17651TIP3    H174444   3.184   6.339   0.605 -0.1101  1.0270 -2.0723
17651TIP3    H274445   3.061   6.264   0.557 -0.2310  0.8970 -1.5685
17652TIP3   OH274446   1.471   3.608  11.031 -0.6179  0.3694  0.0359
17652TIP3    H174447   1.448   3.642  10.945  1.4156  0.7885 -0.3772
17652TIP3    H274448   1.452   3.515  11.027 -0.9351  0.4662 -0.7109
17653TIP3   OH274449   5.133   4.421   1.748  0.1246 -0.6055  0.5185
17653TIP3    H174450   5.062   4.459   1.798  0.3517 -0.5319  0.7854
17653TIP3    H274451   5.193   4.385   1.814 -0.0083 -1.2829  0.2809
17654TIP3   OH274452   4.448   3.320   4.205 -0.0010 -0.3526 -0.6732
17654TIP3    H174453   4.445   3.227   4.225 -1.8148 -0.0540  0.5517
17654TIP3    H274454   4.363   3.354   4.234 -0.0884  1.3393 -2.8156
17655TIP3   OH274455   2.771   2.052  16.695 -0.0567  0.7169 -0.0416
17655TIP3    H174456   2.852   2.103  16.690 -0.7285  1.8194  0.0681
17655TIP3    H274457   2.744   2.041  16.604  0.6392 -0.3484 -0.1206
17656TIP3   OH274458   2.164   0.586  11.392 -0.3596 -0.4708 -0.1851
17656TIP3    H174459   2.258   0.602  11.391 -0.2253 -1.1807  0.8592
17656TIP3    H274460   2.126   0.671  11.412  0.1650 -0.5684  1.3175
17657TIP3   OH274461   0.945   4.386  16.033 -0.7404 -0.3276 -0.1071
17657TIP3    H174462   0.964   4.441  16.109  1.4641 -1.4404  0.1949
17657TIP3    H274463   0.864   4.341  16.056 -2.0159  1.9709  0.0733
17658TIP3   OH274464   3.157   1.638  12.708  0.4063 -0.8042  0.0913
17658TIP3    H174465   3.246   1.622  12.739  0.1380 -0.7412  0.9068
17658TIP3    H274466   3.101   1.599  12.775 -0.2318  2.2332  1.4143
17659TIP3   OH274467   6.389   5.803  10.272 -0.6997 -0.3324 -0.4635
17659TIP3    H174468   6.425   5.876  10.322 -2.0647  0.0365  0.0107
17659TIP3    H274469   6.423   5.725  10.315  0.3080  0.0147 -0.6217
17660TIP3   OH274470   5.617   2.901   3.117  0.2597 -0.5627 -0.1118
17660TIP3    H174471   5.588   2.990   3.140 -0.5985 -1.3599  1.9798
17660TIP3    H274472   5.692   2.885   3.174  0.1656 -1.3387 -0.1990
17661TIP3   OH274473   1.347   0.766  10.727  0.4342  0.2102 -0.1234
17661TIP3    H174474   1.301   0.691  10.766  1.9641 -0.0272  1.2521
17661TIP3    H274475   1.346   0.833  10.795 -0.4943  1.2925 -1.1811
17662TIP3   OH274476   6.775   3.730  11.041 -0.4218 -0.5228 -0.1740
17662TIP3    H174477   6.743   3.643  11.063 -0.4443 -0.3284  0.5504
17662TIP3    H274478   6.869   3.720  11.033 -0.4713 -0.7125 -0.5707
17663TIP3   OH274479   5.967   3.071  15.524 -0.0773 -0.6763 -0.8208
17663TIP3    H174480   5.894   3.044  15.579 -1.8858  1.3283 -2.1655
17663TIP3    H274481   5.991   3.158  15.556 -0.8211  0.2942 -2.7756
17664TIP3   OH274482   1.413   0.671   2.664  0.2135  0.1930  0.0054
17664TIP3    H174483   1.460   0.608   2.609 -2.3723 -1.4391 -0.4377
17664TIP3    H274484   1.358   0.720   2.603 -0.9423 -0.0318  0.8501
17665TIP3   OH274485   6.160   1.539   2.762  0.7637 -0.2832 -0.1785
17665TIP3    H174486   6.083   1.554   2.817  1.1055 -0.8105  0.4501
17665TIP3    H274487   6.127   1.546   2.673 -0.2014 -1.3202  0.0744
17666TIP3   OH274488   2.602   1.162  14.956  0.4486  0.4158 -0.6486
17666TIP3    H174489   2.670   1.132  14.895  0.1332  1.6161 -1.6032
17666TIP3    H274490   2.591   1.255  14.935  0.1648  0.7739  1.0851
17667TIP3   OH274491   6.154   4.909  16.980 -0.1525  0.3303 -0.0273
17667TIP3    H174492   6.191   4.981  17.031 -0.5813  0.7810 -0.3450
17667TIP3    H274493   6.071   4.889  17.024 -0.8490  1.1752 -0.9414
17668TIP3   OH274494   4.485   6.417   3.698  0.1779 -0.0642 -0.1062
17668TIP3    H174495   4.568   6.455   3.670  0.5685 -0.6500  0.2635
17668TIP3    H274496   4.419   6.467   3.649  0.5747  2.2558  1.6728
17669TIP3   OH274497   5.218   2.145  15.658  0.4850  0.7783  0.6134
17669TIP3    H174498   5.173   2.085  15.718  2.4691 -1.0221  0.3653
17669TIP3    H274499   5.299   2.168  15.703  0.3952  2.1886  0.0892
17670TIP3   OH274500   0.240   0.013  11.618  0.0932  0.2254 -0.3376
17670TIP3    H174501   0.294  -0.060  11.587  1.5645  1.0964  0.1200
17670TIP3    H274502   0.298   0.062  11.677 -0.8552  1.8199 -0.7066
17671TIP3   OH274503   4.906   1.632   0.491 -0.1457 -0.0002 -0.0322
17671TIP3    H174504   4.861   1.690   0.552  1.9260  1.0708  0.5381
17671TIP3    H274505   4.969   1.689   0.446  1.2751 -1.6230 -0.1478
17672TIP3   OH274506   4.740   6.539   2.877  0.5971 -0.3645 -0.4871
17672TIP3    H174507   4.731   6.499   2.790 -0.3787  1.0817 -1.0683
17672TIP3    H274508   4.674   6.495   2.930  1.0167 -1.0688 -0.5437
17673TIP3   OH274509   1.513   4.621   1.561 -0.1382  0.0328 -0.2560
17673TIP3    H174510   1.598   4.658   1.585 -1.0310  1.7331  0.3580
17673TIP3    H274511   1.455   4.647   1.633 -1.6126  0.5008 -1.5963
17674TIP3   OH274512   1.812   6.010  16.968  1.2124 -0.0597  0.4069
17674TIP3    H174513   1.825   5.972  16.881  0.3421 -1.1290  0.7216
17674TIP3    H274514   1.721   6.041  16.966  1.9699  2.1806  0.0967
17675TIP3   OH274515   0.702   4.001  11.717  0.1415 -0.3617  0.2066
17675TIP3    H174516   0.730   4.017  11.807 -1.2113 -1.6594  0.8816
17675TIP3    H274517   0.683   3.908  11.713  0.5027 -0.3912 -1.5328
17676TIP3   OH274518   1.124   2.959  14.526  0.2528  0.3793  0.3019
17676TIP3    H174519   1.089   3.017  14.593  0.8179  0.0722  0.8765
17676TIP3    H274520   1.111   2.871  14.561 -1.1268  0.1279 -0.8201
17677TIP3   OH274521   2.821   5.285  14.068  0.4280 -0.3166  0.1613
17677TIP3    H174522   2.828   5.377  14.043  2.6513 -0.3070  0.6677
17677TIP3    H274523   2.728   5.269  14.078 -0.0242  1.6846 -0.6643
17678TIP3   OH274524   1.185   0.479   5.092 -0.1821 -0.0349  0.1290
17678TIP3    H174525   1.154   0.412   5.031  1.6911 -0.8967  0.0644
17678TIP3    H274526   1.121   0.480   5.162  0.5544 -3.0683  0.9233
17679TIP3   OH274527   3.193   2.008   5.877  0.3096  0.4766 -0.7050
17679TIP3    H174528   3.138   2.086   5.877  1.5856  1.4083 -2.3131
17679TIP3    H274529   3.281   2.040   5.896  0.3538 -0.9803  1.7102
17680TIP3   OH274530   6.388   0.047   4.045 -0.9094 -0.1433 -0.1062
17680TIP3    H174531   6.357  -0.031   4.091 -1.1224  0.0540  0.0874
17680TIP3    H274532   6.338   0.119   4.084 -0.0633  0.2077  0.3466
17681TIP3   OH274533   3.326   5.103   3.442 -0.0400 -0.1649  0.2053
17681TIP3    H174534   3.381   5.108   3.520  1.1930  0.0857 -0.6529
17681TIP3    H274535   3.366   5.035   3.388 -0.6137 -0.0275 -0.4076
17682TIP3   OH274536   3.005   5.390   3.255 -0.0022 -0.2587 -0.5855
17682TIP3    H174537   2.935   5.326   3.270  0.1252  0.1231  1.8096
17682TIP3    H274538   3.077   5.360   3.310 -0.5521  2.8932  1.9349
17683TIP3   OH274539   3.363   5.250   5.735 -0.0807 -0.2220  0.0247
17683TIP3    H174540   3.413   5.242   5.816 -0.5525  1.4051  0.5081
17683TIP3    H274541   3.272   5.235   5.761 -0.1669 -0.2466 -0.2946
17684TIP3   OH274542   3.984   1.923   1.052  0.5787  0.1876  0.2499
17684TIP3    H174543   4.022   1.934   1.139  1.5730  0.4289 -0.2102
17684TIP3    H274544   3.894   1.894   1.068  1.5472 -2.3033  1.3124
17685TIP3   OH274545   2.592   0.436  12.478 -0.6500 -0.6174  0.5380
17685TIP3    H174546   2.630   0.521  12.499  0.6685 -1.4848  1.7632
17685TIP3    H274547   2.601   0.428  12.383  1.4570 -0.4289  0.7017
17686TIP3   OH274548   6.338   6.220  16.757  0.1622 -0.4109  0.3520
17686TIP3    H174549   6.266   6.164  16.788 -0.3864 -1.4349 -2.6165
17686TIP3    H274550   6.328   6.301  16.806 -3.3464 -0.3694 -0.3053
17687TIP3   OH274551   6.698   1.987   0.725 -0.3094 -0.3077 -0.0320
17687TIP3    H174552   6.653   1.991   0.641  1.5918  0.5675 -1.0504
17687TIP3    H274553   6.732   1.898   0.730 -2.2367 -1.0177  0.8121
17688TIP3   OH274554   4.059   0.708  14.010  0.6107  0.1357  0.3706
17688TIP3    H174555   4.081   0.659  13.931  0.3207 -0.5818  0.7230
17688TIP3    H274556   3.966   0.690  14.024  1.3060 -2.0666  2.4650
17689TIP3   OH274557   6.228   1.054  17.271  0.5094  0.2044 -0.1062
17689TIP3    H174558   6.160   1.114  17.303  1.0005  1.0651 -0.6599
17689TIP3    H274559   6.242   1.079  17.180  0.8758 -0.6150 -0.2810
17690TIP3   OH274560   2.611   5.208  15.508 -0.1108  0.2051 -0.1794
17690TIP3    H174561   2.660   5.177  15.432 -0.4416 -1.0866  0.1309
17690TIP3    H274562   2.547   5.139  15.525 -2.5334  2.1785 -1.0312
17691TIP3   OH274563   4.139   6.620   1.571 -0.1777  0.1425 -0.1523
17691TIP3    H174564   4.217   6.573   1.541  0.9543  1.5619  0.4782
17691TIP3    H274565   4.107   6.666   1.493  1.0613  1.5032  0.1158
17692TIP3   OH274566   3.328   3.259  16.526 -0.1104 -0.0259  0.4593
17692TIP3    H174567   3.261   3.191  16.528  0.1500 -0.2953  0.1063
17692TIP3    H274568   3.398   3.226  16.583 -1.2184  1.2522  2.6168
17693TIP3   OH274569   1.581   6.466  17.176 -0.3899 -0.3350  0.0833
17693TIP3    H174570   1.647   6.405  17.144  0.2932 -1.2187  2.9566
17693TIP3    H274571   1.497   6.424  17.157 -0.0350 -0.5227 -1.0710
17694TIP3   OH274572   4.370   4.649   5.221 -1.0324 -0.4865  0.2377
17694TIP3    H174573   4.288   4.621   5.262 -1.0127 -0.7964  0.0714
17694TIP3    H274574   4.381   4.740   5.249 -1.1670 -0.6040  0.6798
17695TIP3   OH274575   3.552   2.866   2.964  0.2946 -0.3520  0.0944
17695TIP3    H174576   3.528   2.780   2.999 -1.3748  1.0170  2.4114
17695TIP3    H274577   3.603   2.907   3.033 -0.2654  1.1378 -0.3655
17696TIP3   OH274578   1.867   3.852  15.720  0.0242 -0.4044  0.1164
17696TIP3    H174579   1.835   3.764  15.738 -0.7640 -0.5404 -1.7843
17696TIP3    H274580   1.894   3.886  15.805  1.3269 -2.8631  0.7166
17697TIP3   OH274581   4.175   0.404   3.455  0.9199 -0.0519 -0.4939
17697TIP3    H174582   4.167   0.339   3.385  2.0773 -0.0908 -0.5973
17697TIP3    H274583   4.084   0.429   3.475  0.3948 -2.3934  0.1994
17698TIP3   OH274584   1.232   2.314   3.950 -0.1227  0.3500  0.3730
17698TIP3    H174585   1.252   2.244   3.888  2.1694 -1.4590  3.0155
17698TIP3    H274586   1.185   2.271   4.021  0.5506  1.6192  1.6277
17699TIP3   OH274587   1.723   0.091   2.888 -0.0666  0.0098  0.4592
17699TIP3    H174588   1.684   0.178   2.879 -0.7364 -0.3679 -0.3386
17699TIP3    H274589   1.814   0.102   2.861  0.1936  0.7300  1.5870
17700TIP3   OH274590   5.237   3.488   3.888 -0.4397  0.2542 -0.0395
17700TIP3    H174591   5.200   3.542   3.817 -0.6930  1.2970  0.8680
17700TIP3    H274592   5.312   3.539   3.919  0.7698 -1.0685 -0.7609
17701TIP3   OH274593   4.361   4.056   0.534  0.0496 -1.2151  0.0722
17701TIP3    H174594   4.312   4.113   0.594  0.0215 -0.4170 -0.6964
17701TIP3    H274595   4.450   4.054   0.571  1.2783  3.0439 -2.3310
17702TIP3   OH274596   3.420   5.958  15.772  0.0073  0.6198  0.0110
17702TIP3    H174597   3.328   5.952  15.747 -0.1167  1.3519  0.2628
17702TIP3    H274598   3.433   5.887  15.836 -0.6565  1.1853  0.7796
17703TIP3   OH274599   1.634   2.444  16.818 -0.1591 -0.0902 -0.1666
17703TIP3    H174600   1.635   2.405  16.906  0.2200 -0.2638 -0.2464
17703TIP3    H274601   1.704   2.398  16.771 -1.9026 -1.6586 -1.2941
17704TIP3   OH274602   0.594   6.233   5.120  0.1104 -0.3389  0.1240
17704TIP3    H174603   0.553   6.226   5.034  0.7127 -1.5756 -0.0734
17704TIP3    H274604   0.580   6.148   5.160 -0.1041  0.2087  1.2283
17705TIP3   OH274605   1.806   5.127   0.877  0.2269  0.0762  0.0666
17705TIP3    H174606   1.793   5.222   0.867 -1.4228 -0.0349  0.9351
17705TIP3    H274607   1.800   5.093   0.787 -2.2887  0.4619  0.0537
17706TIP3   OH274608   0.876   4.334   1.895  0.2310 -0.0873 -0.2307
17706TIP3    H174609   0.874   4.238   1.891 -0.6858  0.0329 -3.5282
17706TIP3    H274610   0.786   4.359   1.917  0.8347  0.0265  2.3432
17707TIP3   OH274611   2.657   6.341   0.469  0.0458  0.6272  0.5093
17707TIP3    H174612   2.634   6.266   0.414 -1.4612  1.3887  0.0669
17707TIP3    H274613   2.643   6.311   0.558 -0.1287  0.2444  0.3561
17708TIP3   OH274614   3.151   0.395   5.442  0.4901  0.7275 -0.5381
17708TIP3    H174615   3.173   0.382   5.350  0.0724 -1.3751 -0.3576
17708TIP3    H274616   3.101   0.476   5.443  1.2287  1.2252 -2.0427
17709TIP3   OH274617   3.170   2.923  15.207  0.3063 -0.7930  0.0446
17709TIP3    H174618   3.097   2.980  15.184  0.4468 -0.1939  1.0771
17709TIP3    H274619   3.195   2.950  15.295  2.6503 -0.0974 -0.8206
17710TIP3   OH274620   1.267   4.868   4.644 -0.2878  0.4253  0.1602
17710TIP3    H174621   1.236   4.784   4.677  0.9789 -0.3951 -0.6885
17710TIP3    H274622   1.246   4.865   4.550 -3.4486  2.5302  0.7205
17711TIP3   OH274623   0.182   6.352   0.884 -0.3432 -0.3926  0.3023
17711TIP3    H174624   0.129   6.327   0.808  0.0728  0.5409 -0.2957
17711TIP3    H274625   0.232   6.272   0.905  1.0253 -0.0849 -1.6470
17712TIP3   OH274626   2.145   2.259  16.376  0.2979  0.2797 -0.0383
17712TIP3    H174627   2.117   2.235  16.464  0.9891  0.7645  0.3184
17712TIP3    H274628   2.239   2.274  16.385  0.4727 -0.2441 -0.9806
17713TIP3   OH274629   1.573   2.179  14.325 -0.1372  0.1278 -0.2838
17713TIP3    H174630   1.533   2.093  14.343  0.8263  0.1246  2.0326
17713TIP3    H274631   1.651   2.158  14.273 -0.6337 -0.2623 -0.8895
17714TIP3   OH274632   2.674   4.184   2.710 -0.0155 -0.3427  0.0404
17714TIP3    H174633   2.690   4.277   2.724 -1.5796  0.3063 -2.1689
17714TIP3    H274634   2.757   4.142   2.733  0.9883  1.6763  0.2298
17715TIP3   OH274635   3.799   6.690   4.222 -0.2676  0.7003  0.2814
17715TIP3    H174636   3.823   6.703   4.131 -1.0940  0.1009 -0.0373
17715TIP3    H274637   3.779   6.596   4.228  0.8870  0.5082  1.3468
17716TIP3   OH274638   5.243   2.210  13.663  0.2136  0.2784 -0.3513
17716TIP3    H174639   5.150   2.204  13.683 -0.1696  1.3557 -1.7440
17716TIP3    H274640   5.271   2.292  13.703  1.1166 -1.1389  2.0622
17717TIP3   OH274641   3.068   4.907  10.595  0.0656  0.0957 -0.9346
17717TIP3    H174642   3.065   4.814  10.618 -1.3802  0.9300  2.5595
17717TIP3    H274643   2.976   4.932  10.586  0.1766  2.2476  3.0094
17718TIP3   OH274644   2.905   4.820   2.889 -0.0211  0.3954 -0.5176
17718TIP3    H174645   2.981   4.814   2.947  0.1544  0.2924 -0.7550
17718TIP3    H274646   2.842   4.759   2.927 -0.2320  0.9596  0.0439
17719TIP3   OH274647   1.478   2.973  11.247 -0.2984 -0.3718 -0.5528
17719TIP3    H174648   1.390   2.944  11.222 -1.0038  0.4575  0.8770
17719TIP3    H274649   1.486   3.060  11.209  0.1850 -0.7362 -1.2886
17720TIP3   OH274650   0.824   3.966  10.321 -0.4879  0.0551  0.0813
17720TIP3    H174651   0.757   3.927  10.378 -1.6608  1.1004 -0.5428
17720TIP3    H274652   0.783   3.966  10.234  0.3345  0.7134 -0.3023
17721TIP3   OH274653   3.277   5.117  15.769 -0.0583 -0.2342 -0.0448
17721TIP3    H174654   3.224   5.111  15.849 -2.3731 -0.1435 -1.5297
17721TIP3    H274655   3.354   5.168  15.795 -0.4269 -0.7828  2.2843
17722TIP3   OH274656   2.998   4.222   1.623  0.6254 -0.2709 -0.0400
17722TIP3    H174657   3.076   4.202   1.675 -1.0316  0.6363  2.9179
17722TIP3    H274658   2.926   4.223   1.686 -1.7998 -0.8553 -2.6412
17723TIP3   OH274659   3.919   4.010   2.478  0.1074 -0.3224 -0.8487
17723TIP3    H174660   3.902   3.955   2.402 -0.9111 -0.3380 -0.6180
17723TIP3    H274661   3.839   4.004   2.530  1.0280 -0.8118  0.5366
17724TIP3   OH274662   5.195   5.795   3.005  0.4275  0.3156 -0.0089
17724TIP3    H174663   5.144   5.841   2.939  2.3826  1.2160 -0.9280
17724TIP3    H274664   5.144   5.716   3.024 -0.6205  0.5155 -1.9016
17725TIP3   OH274665   5.302   3.137   6.345 -0.0399 -0.2381 -0.2518
17725TIP3    H174666   5.328   3.226   6.321  0.5169 -0.9373 -2.3637
17725TIP3    H274667   5.210   3.146   6.372  0.3351  1.1401  0.6460
17726TIP3   OH274668   2.919   6.203   5.693  0.1123  0.0148  0.1556
17726TIP3    H174669   2.870   6.131   5.652  2.5970 -2.0479  0.6459
17726TIP3    H274670   3.007   6.167   5.705  1.0841  2.7688  1.5294
17727TIP3   OH274671   5.252   2.611   1.829 -0.2083  0.7480 -0.4874
17727TIP3    H174672   5.169   2.584   1.789 -0.0393 -0.3852 -0.0740
17727TIP3    H274673   5.279   2.687   1.778  0.0453 -0.7139 -2.5657
17728TIP3   OH274674   2.062   1.914   0.151  0.1115 -0.0564 -0.2837
17728TIP3    H174675   2.109   1.873   0.224  0.2751 -0.9828 -0.9115
17728TIP3    H274676   2.086   2.007   0.157 -0.4625  0.0040  1.2867
17729TIP3   OH274677   2.328   5.075  15.833  0.1320 -0.4265  0.3971
17729TIP3    H174678   2.400   5.025  15.873  0.6331 -1.2066 -1.4084
17729TIP3    H274679   2.327   5.046  15.742 -0.4917  1.8541 -0.3528
17730TIP3   OH274680   2.273   5.819   1.314  0.6161 -0.2825 -0.2750
17730TIP3    H174681   2.214   5.806   1.241 -0.4156 -0.7662  0.6308
17730TIP3    H274682   2.332   5.744   1.313  0.8816 -0.0685 -0.8570
17731TIP3   OH274683   0.855   2.331   6.308  0.1564 -0.1790  0.7440
17731TIP3    H174684   0.786   2.283   6.354 -0.0314 -1.2499 -0.6193
17731TIP3    H274685   0.875   2.277   6.232  3.1151 -0.3303  1.5642
17732TIP3   OH274686   6.751   4.059  16.411  0.2872 -0.3105  0.2426
17732TIP3    H174687   6.703   4.109  16.479  3.4173  0.7598  1.7561
17732TIP3    H274688   6.721   3.969  16.422 -0.4746  0.1322  1.9774
17733TIP3   OH274689   6.427   3.135  12.678  0.2893 -0.0086 -0.6022
17733TIP3    H174690   6.452   3.228  12.680 -2.4685  0.7907 -1.6419
17733TIP3    H274691   6.390   3.118  12.765 -0.3168  0.1873 -0.8219
17734TIP3   OH274692   5.552   5.072  11.899 -0.3712 -0.0932 -0.1469
17734TIP3    H174693   5.570   4.978  11.900 -0.7615 -0.1531  1.4263
17734TIP3    H274694   5.487   5.086  11.968 -0.6790  1.2674 -0.6798
17735TIP3   OH274695   0.676   0.830   1.938 -0.5603  0.2066 -0.0710
17735TIP3    H174696   0.709   0.889   1.870 -1.5222 -0.2586 -0.9445
17735TIP3    H274697   0.583   0.822   1.921 -0.6164 -0.7954  0.6377
17736TIP3   OH274698   6.053   0.736  16.740 -0.3707  0.1443  0.3805
17736TIP3    H174699   6.122   0.742  16.806  0.8890 -0.5001 -0.8613
17736TIP3    H274700   6.082   0.794  16.670 -1.2801  0.1476 -0.0017
17737TIP3   OH274701   2.351   3.397  11.764 -0.5681 -0.4668 -0.0998
17737TIP3    H174702   2.367   3.336  11.692  0.3814  1.4670 -1.5669
17737TIP3    H274703   2.258   3.417  11.759 -0.9747 -2.0788  0.6517
17738TIP3   OH274704   3.441   6.800   2.760 -0.3975 -0.1740 -0.4006
17738TIP3    H174705   3.352   6.764   2.756 -1.3827  2.2297 -1.0469
17738TIP3    H274706   3.453   6.824   2.852 -0.7905  0.4021 -0.4990
17739TIP3   OH274707   1.367   3.854   3.800  0.1319  0.2677 -0.2205
17739TIP3    H174708   1.280   3.849   3.759  0.2986 -0.6300 -0.4770
17739TIP3    H274709   1.409   3.928   3.757 -0.1620  0.1214 -0.7708
17740TIP3   OH274710   4.414   1.069  13.657  0.6489 -0.0438 -0.0502
17740TIP3    H174711   4.367   0.987  13.671  0.5020  0.0584  0.0628
17740TIP3    H274712   4.403   1.088  13.564 -0.0368  0.2808  0.0908
17741TIP3   OH274713   6.562   0.932   4.658 -0.1135 -0.2335 -0.2963
17741TIP3    H174714   6.617   0.924   4.736  0.5473  0.9960 -0.6178
17741TIP3    H274715   6.528   0.843   4.643  0.8894 -0.7716  0.5527
17742TIP3   OH274716   5.580   1.460   5.591  0.0620 -0.1186  0.2275
17742TIP3    H174717   5.516   1.460   5.663  2.0719 -1.4867  2.0920
17742TIP3    H274718   5.581   1.369   5.560 -0.3364  0.3309 -1.1341
17743TIP3   OH274719   1.489   1.648   2.763 -0.1363 -0.4170  0.0373
17743TIP3    H174720   1.433   1.654   2.840  1.1491 -0.6592  0.9993
17743TIP3    H274721   1.571   1.613   2.795  0.8784  0.7399 -1.2220
17744TIP3   OH274722   6.692   3.256   3.446 -0.2485 -0.0456 -0.7501
17744TIP3    H174723   6.667   3.325   3.507  1.0300 -1.0068  0.9165
17744TIP3    H274724   6.730   3.303   3.372  1.3052  1.0751  0.6833
17745TIP3   OH274725   0.574   2.282  16.472 -0.3437 -0.3132 -0.1882
17745TIP3    H174726   0.479   2.269  16.469 -0.4813  0.5835 -0.0314
17745TIP3    H274727   0.597   2.309  16.384  0.1377 -2.8154 -0.8649
17746TIP3   OH274728   4.609   2.550   4.464 -0.1890 -0.1270 -0.0028
17746TIP3    H174729   4.535   2.539   4.523  0.0078 -0.3018  0.2153
17746TIP3    H274730   4.686   2.550   4.522  0.0554 -1.0248 -0.3196
17747TIP3   OH274731   1.952   5.963  15.022  0.1537  0.1316 -0.3023
17747TIP3    H174732   1.975   6.049  15.057  1.1482 -0.2211 -0.0841
17747TIP3    H274733   2.035   5.925  14.993 -0.1653 -1.0600  0.3107
17748TIP3   OH274734   2.664   5.724   4.986  0.4078 -0.2120  0.1055
17748TIP3    H174735   2.638   5.799   4.932  0.6039 -1.1807 -1.3496
17748TIP3    H274736   2.622   5.740   5.071 -1.4739  0.3711 -0.9092
17749TIP3   OH274737   6.689   4.088  11.280 -0.9354  0.3019 -0.2572
17749TIP3    H174738   6.691   4.057  11.189 -0.4956  2.3532 -0.9884
17749TIP3    H274739   6.745   4.027  11.327 -0.3244 -0.1879 -1.5765
17750TIP3   OH274740   1.107   2.710   1.827 -0.0129  0.1827 -0.4527
17750TIP3    H174741   1.054   2.678   1.754  0.1760 -0.8558 -0.1439
17750TIP3    H274742   1.091   2.647   1.898  0.8312  0.4342 -0.0244
17751TIP3   OH274743   1.794   2.462   3.884 -0.0821 -0.4040 -0.3647
17751TIP3    H174744   1.788   2.373   3.851  2.5796 -0.6253 -0.3563
17751TIP3    H274745   1.827   2.452   3.973  0.0181  0.5809 -0.2854
17752TIP3   OH274746   4.971   2.420  16.170  1.0148 -0.0357  0.5467
17752TIP3    H174747   5.003   2.500  16.129  1.2788 -0.5612 -0.2879
17752TIP3    H274748   5.044   2.390  16.225  1.8539 -1.0371 -1.0685
17753TIP3   OH274749   5.493   2.056  14.178 -0.2889  0.1922 -0.4164
17753TIP3    H174750   5.407   2.063  14.137 -0.7016  0.5148  0.4888
17753TIP3    H274751   5.523   2.147  14.184 -0.7120  0.2411  0.9951
17754TIP3   OH274752   2.240   3.125  15.420  0.1695  0.0320  0.3819
17754TIP3    H174753   2.284   3.162  15.497  1.8455  0.8493 -0.9228
17754TIP3    H274754   2.226   3.201  15.363 -1.6539 -0.4678  0.1470
17755TIP3   OH274755   2.779   6.748   3.684  0.2536 -0.3265  0.3894
17755TIP3    H174756   2.697   6.715   3.649  0.7537 -0.1263 -1.0161
17755TIP3    H274757   2.783   6.839   3.654  0.5173 -0.0316  1.2917
17756TIP3   OH274758   4.804   1.954  15.892  0.2295  0.1784  0.3577
17756TIP3    H174759   4.741   1.882  15.891  2.7584 -2.1337  0.0813
17756TIP3    H274760   4.805   1.985  15.982 -1.0063 -0.0120  0.4433
17757TIP3   OH274761   6.358   2.859   2.681 -0.5265  0.6397  0.0162
17757TIP3    H174762   6.402   2.795   2.738 -1.7112  0.7821  1.1037
17757TIP3    H274763   6.430   2.911   2.644  0.4206 -1.0014 -0.5150
17758TIP3   OH274764   4.887   4.653   3.657  0.0924 -0.2050  0.6912
17758TIP3    H174765   4.973   4.665   3.697 -0.5342 -0.2809  2.0891
17758TIP3    H274766   4.892   4.699   3.573  1.5428 -0.3557  0.6945
17759TIP3   OH274767   6.476   2.663   2.826  0.0939  0.8103  0.2882
17759TIP3    H174768   6.458   2.608   2.902  1.2701 -0.9938 -0.6967
17759TIP3    H274769   6.486   2.751   2.862 -1.9203  0.4149  1.8905
17760TIP3   OH274770   2.452   2.949  14.549  0.2755 -0.3989 -0.1632
17760TIP3    H174771   2.539   2.942  14.508 -0.5963 -0.3127 -2.0671
17760TIP3    H274772   2.469   2.990  14.633  1.9077  1.1135 -1.1923
17761TIP3   OH274773   5.212   1.622  15.684  0.3127 -0.2791  0.0023
17761TIP3    H174774   5.177   1.684  15.620 -1.3266 -1.0017  0.1757
17761TIP3    H274775   5.145   1.617  15.752 -0.3104 -3.3705 -0.7500
17762TIP3   OH274776   3.871   6.095  15.084 -0.6390  0.2404 -0.1845
17762TIP3    H174777   3.880   6.026  15.149  0.4756 -0.3852 -0.9678
17762TIP3    H274778   3.902   6.174  15.128 -0.5998 -0.0328  0.2812
17763TIP3   OH274779   3.301   1.590  16.495 -0.2384  0.1501 -0.2947
17763TIP3    H174780   3.393   1.615  16.505 -0.2746 -0.2788  1.3286
17763TIP3    H274781   3.252   1.662  16.534 -0.4113 -1.4300  2.5439
17764TIP3   OH274782   1.613   1.416  12.446 -0.0384  0.1548 -0.3177
17764TIP3    H174783   1.610   1.509  12.427  1.8052  0.5429  1.1244
17764TIP3    H274784   1.700   1.388  12.419 -0.1396 -0.8935  0.3876
17765TIP3   OH274785   4.295   6.592  14.072  0.7232 -0.4305  0.1635
17765TIP3    H174786   4.351   6.632  14.138  2.3590 -0.4813 -1.1472
17765TIP3    H274787   4.266   6.665  14.017  0.2862 -0.5332  0.2517
17766TIP3   OH274788   0.822   1.096  15.974  0.2628  0.5630 -0.0830
17766TIP3    H174789   0.828   1.016  15.921  1.5418  0.8028 -0.3038
17766TIP3    H274790   0.808   1.065  16.063  2.0382  0.0521  0.0330
17767TIP3   OH274791   0.311   3.038  16.252 -0.1107 -0.1702  0.0506
17767TIP3    H174792   0.308   2.983  16.174  0.3711  1.6201 -1.2517
17767TIP3    H274793   0.404   3.054  16.267 -0.1038 -1.7205  1.8983
17768TIP3   OH274794   5.542   4.386  10.980 -0.7222 -0.1857  0.0382
17768TIP3    H174795   5.466   4.347  11.024 -0.9277  0.6851  0.4785
17768TIP3    H274796   5.615   4.371  11.039 -0.5686 -0.9508 -0.3458
17769TIP3   OH274797   4.321   3.689   5.432 -0.1524  0.2936 -0.2641
17769TIP3    H174798   4.343   3.672   5.340 -0.5070 -1.0774 -0.1121
17769TIP3    H274799   4.320   3.784   5.439  0.1832  0.4133 -1.6086
17770TIP3   OH274800   6.338   0.709  16.357  1.2080  0.6052  0.2341
17770TIP3    H174801   6.272   0.672  16.299 -0.7584  1.6331  1.7785
17770TIP3    H274802   6.351   0.642  16.424  1.6785  0.4631  0.0119
17771TIP3   OH274803   5.266   5.329   5.658  0.3541  0.3681  0.2876
17771TIP3    H174804   5.324   5.381   5.603  0.6055 -0.1703  0.0457
17771TIP3    H274805   5.314   5.317   5.740  0.3891  0.3271  0.2611
17772TIP3   OH274806   2.712   0.623   4.877 -0.4362  0.3464 -0.3710
17772TIP3    H174807   2.744   0.711   4.899  0.2689  0.2281 -0.9002
17772TIP3    H274808   2.618   0.627   4.891 -0.6754  1.7610 -2.2511
17773TIP3   OH274809   4.168   3.987   5.401  0.4006  0.0393  0.0469
17773TIP3    H174810   4.220   4.066   5.418 -0.7401  0.9191 -0.4913
17773TIP3    H274811   4.194   3.961   5.313 -0.6979  0.9879 -0.5706
17774TIP3   OH274812   2.875   5.825  15.181 -0.0808  0.4261 -0.1078
17774TIP3    H174813   2.961   5.856  15.152  0.2476 -0.3694 -0.0054
17774TIP3    H274814   2.818   5.839  15.107  0.3651  0.0457 -0.5283
17775TIP3   OH274815   0.535   4.948   3.384 -0.0769 -0.5361 -0.0654
17775TIP3    H174816   0.566   5.026   3.338  0.4192 -0.2276  0.7846
17775TIP3    H274817   0.446   4.970   3.413 -0.5037 -0.8424 -1.1340
17776TIP3   OH274818   3.436   2.026   1.580  0.1698 -0.1766 -0.2536
17776TIP3    H174819   3.353   2.068   1.602  0.9999  0.9280  0.8213
17776TIP3    H274820   3.490   2.034   1.659  0.4660 -3.0279 -0.1152
17777TIP3   OH274821   1.134   4.637   4.725  0.3803 -0.7082  0.3948
17777TIP3    H174822   1.121   4.547   4.695 -0.9077 -0.4448  0.1638
17777TIP3    H274823   1.056   4.657   4.777  0.3272  0.5354 -0.1546
17778TIP3   OH274824   2.482   1.050   1.218  0.3427  0.3961 -0.4788
17778TIP3    H174825   2.492   1.004   1.135 -3.1000  0.5953 -1.0761
17778TIP3    H274826   2.451   0.982   1.279  3.1177  0.1869  0.7491
17779TIP3   OH274827   0.426   0.826   0.126  0.5087 -0.2315 -0.6970
17779TIP3    H174828   0.471   0.792   0.049 -0.4792 -0.2079 -1.2941
17779TIP3    H274829   0.341   0.782   0.125  1.3344 -1.9607  1.6551
17780TIP3   OH274830   6.621   1.919   5.904  0.6284 -0.1021  0.3577
17780TIP3    H174831   6.647   1.963   5.984  0.4943 -0.1553  0.4298
17780TIP3    H274832   6.545   1.867   5.928  1.2630 -1.0056  0.4663
17781TIP3   OH274833   4.613   3.882   1.768 -0.1502  0.0247  0.8208
17781TIP3    H174834   4.541   3.833   1.808 -0.6371  0.3956  0.4180
17781TIP3    H274835   4.664   3.915   1.842 -1.2748  1.0594  1.1608
17782TIP3   OH274836   0.821   5.322  15.299 -0.1009  0.8887  0.3402
17782TIP3    H174837   0.910   5.292  15.279 -1.1867 -2.3629  0.0939
17782TIP3    H274838   0.821   5.337  15.394  0.5381  0.3347  0.4240
17783TIP3   OH274839   4.226   2.139   2.458  0.2576  0.1045 -0.1124
17783TIP3    H174840   4.204   2.136   2.551  1.6088  1.5345  0.2704
17783TIP3    H274841   4.284   2.214   2.449  0.6320 -0.3761 -2.0178
17784TIP3   OH274842   6.748   5.078   3.543  0.6958  0.6425 -0.0128
17784TIP3    H174843   6.809   5.097   3.614 -0.1896  0.1320  0.9033
17784TIP3    H274844   6.678   5.026   3.584 -0.7104  1.8024 -0.8799
17785TIP3   OH274845   5.334   1.424   3.983 -0.0618 -0.1009  0.6250
17785TIP3    H174846   5.303   1.336   3.961 -2.9919  1.0768 -0.1178
17785TIP3    H274847   5.288   1.445   4.064  1.5529  0.3173  1.4558
17786TIP3   OH274848   5.703   1.599   1.912  0.1521 -0.2719 -0.3206
17786TIP3    H174849   5.619   1.553   1.910 -0.4057  0.7086  0.1299
17786TIP3    H274850   5.679   1.692   1.909  1.2164  0.0144  0.0265
17787TIP3   OH274851   5.108   4.061   1.949  0.2360 -0.4718  0.4982
17787TIP3    H174852   5.081   4.076   2.039  1.3772  0.9914  0.6163
17787TIP3    H274853   5.115   3.966   1.941 -0.3307 -0.6302  1.8058
17788TIP3   OH274854   6.507   1.339  17.212 -0.4131 -0.3950 -0.3576
17788TIP3    H174855   6.442   1.409  17.206 -0.4065 -0.1552  1.7405
17788TIP3    H274856   6.507   1.298  17.126 -1.2001  1.4970 -1.2957
17789TIP3   OH274857   2.423   0.774   1.999  0.4085  0.5269 -0.5660
17789TIP3    H174858   2.390   0.856   1.963 -1.5785  0.0588  0.1652
17789TIP3    H274859   2.345   0.722   2.019  1.6177 -2.4676 -3.1003
17790TIP3   OH274860   2.068   4.701  15.648 -0.1471 -0.1043 -0.1827
17790TIP3    H174861   2.040   4.716  15.739  1.2557  0.0008  0.2381
17790TIP3    H274862   2.012   4.759  15.596 -0.3869  0.4686  0.6953
17791TIP3   OH274863   2.081   0.107  13.240  0.1926  0.8070  0.2771
17791TIP3    H174864   2.038   0.155  13.169 -0.3217 -0.7242 -0.4725
17791TIP3    H274865   2.161   0.072  13.200 -1.2745 -2.0976 -0.2885
17792TIP3   OH274866   4.959   4.469  14.361  0.1754 -0.1894  0.1173
17792TIP3    H174867   4.889   4.484  14.297 -0.8585 -1.7258  0.8607
17792TIP3    H274868   5.031   4.525  14.331 -1.5742  1.9023 -0.3214
17793TIP3   OH274869   0.849   6.651   2.998  0.4862 -0.6865 -0.5466
17793TIP3    H174870   0.872   6.731   3.045  0.8590  0.0988 -2.0349
17793TIP3    H274871   0.818   6.592   3.066  2.8687 -0.2840  0.9636
17794TIP3   OH274872   6.639   6.777   3.593  0.3280  0.7454  0.2357
17794TIP3    H174873   6.672   6.844   3.652  0.6805  0.6888  0.1011
17794TIP3    H274874   6.609   6.706   3.650  0.0129  0.9908  0.3754
17795TIP3   OH274875   4.662   2.287   5.282 -0.3355 -0.0527 -0.2170
17795TIP3    H174876   4.653   2.252   5.193  3.6322 -0.8043 -0.3769
17795TIP3    H274877   4.620   2.221   5.338 -0.8331 -0.6811 -1.3159
17796TIP3   OH274878   3.859   6.212  14.271 -0.0826  0.0129  0.0083
17796TIP3    H174879   3.902   6.247  14.349 -1.1519 -0.7297  0.9532
17796TIP3    H274880   3.834   6.290  14.221  1.3842  0.4671 -0.0201
17797TIP3   OH274881   0.821   5.911  14.419  0.0328 -0.7044  0.3969
17797TIP3    H174882   0.906   5.947  14.445 -0.5788  0.3891  0.8910
17797TIP3    H274883   0.759   5.983  14.432 -0.9962 -1.5429  0.1836
17798TIP3   OH274884   4.854   5.929   1.392  0.2573  0.2671 -0.0435
17798TIP3    H174885   4.790   5.904   1.458 -0.9999 -1.1650 -1.7367
17798TIP3    H274886   4.830   6.019   1.368 -1.1120 -0.2228 -0.5954
17799TIP3   OH274887   5.701   5.764  13.533 -0.6204 -0.0601  0.1218
17799TIP3    H174888   5.635   5.814  13.485  0.1644  1.1392  0.2774
17799TIP3    H274889   5.745   5.711  13.466 -0.1170  0.9535 -0.3545
17800TIP3   OH274890   0.568   3.408   3.938 -0.2081 -0.0804  0.1013
17800TIP3    H174891   0.570   3.504   3.934  0.6393  0.0047  1.9100
17800TIP3    H274892   0.537   3.381   3.852  1.0082  1.7686 -0.9507
17801TIP3   OH274893   3.027   2.751   0.500  0.1003 -0.3172 -0.1233
17801TIP3    H174894   3.011   2.667   0.458 -2.1035  0.3295 -0.6350
17801TIP3    H274895   2.969   2.751   0.577 -0.0675  0.8101 -0.2431
17802TIP3   OH274896   3.836   6.098   1.054  0.2480  0.0421 -0.3239
17802TIP3    H174897   3.861   6.180   1.013  0.8248  0.4841  0.8963
17802TIP3    H274898   3.749   6.115   1.091  0.4152  0.1499  0.0269
17803TIP3   OH274899   6.438   1.210   4.789 -0.4711  0.7581 -0.1420
17803TIP3    H174900   6.396   1.135   4.833 -0.8952  1.0038 -0.1245
17803TIP3    H274901   6.497   1.170   4.726  0.0539  0.4018  0.5705
17804TIP3   OH274902   0.296   4.890  13.361 -0.8029 -0.0842 -0.0354
17804TIP3    H174903   0.341   4.968  13.328  0.4265 -0.3423  0.9889
17804TIP3    H274904   0.362   4.821  13.355 -0.9705 -0.4145  1.7359
17805TIP3   OH274905   0.643   5.271  16.128  0.0811 -0.2869  0.4276
17805TIP3    H174906   0.683   5.268  16.214  1.8671 -0.7034 -0.4018
17805TIP3    H274907   0.589   5.351  16.130  0.1065 -0.2897  1.9061
17806TIP3   OH274908   5.189   2.050  14.581  0.4006 -0.5452 -0.1839
17806TIP3    H174909   5.222   2.011  14.500  1.3576  0.1405 -0.1397
17806TIP3    H274910   5.143   2.129  14.553 -0.7951 -1.2424 -0.2013
17807TIP3   OH274911   1.168   5.757  12.902 -0.5222 -0.0946  0.0314
17807TIP3    H174912   1.190   5.690  12.966 -0.6639 -0.9428 -0.7963
17807TIP3    H274913   1.217   5.834  12.930 -0.3673 -0.5355  0.9945
17808TIP3   OH274914   6.143   4.187   5.452 -0.1248  0.7090 -0.4428
17808TIP3    H174915   6.228   4.191   5.408  0.1377  1.0584  0.0970
17808TIP3    H274916   6.095   4.263   5.419  0.4494  1.5519  0.6499
17809TIP3   OH274917   6.487   5.887  11.556  0.2167  0.1177  0.2989
17809TIP3    H174918   6.504   5.877  11.649  0.2189  0.8584  0.3807
17809TIP3    H274919   6.548   5.826  11.513  0.7704  0.3597  0.7385
17810TIP3   OH274920   4.326   2.836   2.702 -0.1259  0.6582 -0.2325
17810TIP3    H174921   4.358   2.754   2.738  0.2346  1.2158  0.7291
17810TIP3    H274922   4.330   2.898   2.775  1.0635  1.9298 -1.3437
17811TIP3   OH274923   5.609   6.614  13.557  0.2979  0.0993 -0.1851
17811TIP3    H174924   5.650   6.681  13.611 -1.7441  0.4647  0.9590
17811TIP3    H274925   5.626   6.532  13.604  0.5849  0.1155 -0.2575
17812TIP3   OH274926   1.412   6.477   2.986  0.2136 -0.2011  0.2007
17812TIP3    H174927   1.492   6.427   2.994 -0.0623 -0.5388  0.9100
17812TIP3    H274928   1.439   6.568   2.994  0.5774 -0.2892 -0.0307
17813TIP3   OH274929   0.864   0.190  10.368 -0.2790 -0.5046 -0.1155
17813TIP3    H174930   0.952   0.175  10.403 -1.0010 -0.8023  1.6294
17813TIP3    H274931   0.816   0.228  10.441 -2.0477 -1.8926 -0.5275
17814TIP3   OH274932   2.758   5.006  16.125  0.4926 -0.2479  0.1548
17814TIP3    H174933   2.741   5.032  16.034 -3.0023 -1.6215  0.3424
17814TIP3    H274934   2.719   5.077  16.177  0.9932 -0.2990  0.5937
17815TIP3   OH274935   4.047   3.558   1.291  0.3858  0.2924 -0.3179
17815TIP3    H174936   4.043   3.612   1.370  3.0614 -0.1315  0.1899
17815TIP3    H274937   3.973   3.498   1.299 -1.5369  2.6390  0.0209
17816TIP3   OH274938   3.391   3.229  11.247  0.1445 -0.7790  0.2351
17816TIP3    H174939   3.369   3.181  11.168 -1.7851 -0.6498  0.6835
17816TIP3    H274940   3.315   3.284  11.265  1.5871  1.1101  0.7404
17817TIP3   OH274941   3.260   2.978  14.929  0.3863 -0.2564 -0.5168
17817TIP3    H174942   3.271   2.994  15.022  0.3489  1.3695 -0.7843
17817TIP3    H274943   3.316   2.902  14.911  1.0371 -0.0608  0.6594
17818TIP3   OH274944   6.163   5.660   3.589  0.3722 -0.2094 -0.3405
17818TIP3    H174945   6.187   5.752   3.577 -1.4488  0.3404  0.0500
17818TIP3    H274946   6.217   5.630   3.663 -1.6873  1.6418  2.0247
17819TIP3   OH274947   1.171   1.134  13.706  0.2063 -0.3763  0.3844
17819TIP3    H174948   1.228   1.107  13.778  0.2242 -0.5774  0.2952
17819TIP3    H274949   1.100   1.070  13.707 -0.3581  0.2587  0.9083
17820TIP3   OH274950   2.472   5.257   3.178  0.2492 -0.4934 -0.8071
17820TIP3    H174951   2.378   5.250   3.160  0.1656  0.4980 -0.7810
17820TIP3    H274952   2.494   5.175   3.222 -0.6143 -0.7073 -0.7571
17821TIP3   OH274953   6.031   3.339  15.587 -0.3734  0.1894 -0.1576
17821TIP3    H174954   6.095   3.409  15.578  0.7185 -0.7056  0.4906
17821TIP3    H274955   5.950   3.383  15.612  0.7117  1.0864  1.8991
17822TIP3   OH274956   1.047   1.429  11.894  0.2211  0.0404  0.0598
17822TIP3    H174957   1.039   1.516  11.934 -0.0616 -0.4082  0.9978
17822TIP3    H274958   1.099   1.379  11.956 -1.6208 -1.1513  0.6632
17823TIP3   OH274959   6.517   5.703   3.823  0.2868  0.0125  0.3848
17823TIP3    H174960   6.479   5.620   3.796 -1.4855  0.8407  0.2250
17823TIP3    H274961   6.471   5.769   3.771  1.4350  1.1228  0.7326
17824TIP3   OH274962   0.918   5.884   0.732 -0.5356  0.1619 -0.2592
17824TIP3    H174963   0.997   5.883   0.786  0.3127  0.0726 -1.4570
17824TIP3    H274964   0.950   5.861   0.644 -1.7417  1.0718 -0.9492
17825TIP3   OH274965   4.516   6.288  13.715 -0.3111  0.1646  0.0645
17825TIP3    H174966   4.610   6.271  13.703  0.3310  0.9525  3.4796
17825TIP3    H274967   4.512   6.380  13.742 -2.0822  0.0881  0.1159
17826TIP3   OH274968   6.128   4.958   2.643  0.3011  0.1731 -0.4166
17826TIP3    H174969   6.039   4.955   2.608 -0.6545  1.0625  1.8493
17826TIP3    H274970   6.144   4.870   2.677  0.4010 -0.0617 -1.0658
17827TIP3   OH274971   0.891   1.371  15.479  1.0097 -0.6588 -0.1853
17827TIP3    H174972   0.898   1.295  15.536  0.6764 -0.9985 -0.5897
17827TIP3    H274973   0.922   1.339  15.394  0.9257 -0.3227 -0.3420
17828TIP3   OH274974   4.975   1.449  11.422 -0.5793  0.3848  0.0394
17828TIP3    H174975   4.945   1.384  11.358  2.3369 -0.5970 -0.4250
17828TIP3    H274976   4.962   1.407  11.507  1.5059 -0.9683 -0.2693
17829TIP3   OH274977   0.094   5.520   1.180 -0.5739 -0.0801  0.5678
17829TIP3    H174978   0.141   5.436   1.181 -2.4159 -1.1218  2.5040
17829TIP3    H274979   0.022   5.508   1.241 -1.3610  2.6667  0.2334
17830TIP3   OH274980   3.943   2.761  12.375 -0.4349  0.0817 -0.3133
17830TIP3    H174981   3.921   2.668  12.375 -2.2533  0.4972  0.1043
17830TIP3    H274982   3.900   2.795  12.453 -1.8698  1.7619 -1.8083
17831TIP3   OH274983   2.002   3.502  16.170  0.3291 -0.0227 -0.1155
17831TIP3    H174984   1.933   3.524  16.108  0.7345 -1.8562 -1.2414
17831TIP3    H274985   1.970   3.536  16.254  0.2715  3.5094 -1.4484
17832TIP3   OH274986   4.463   5.837  13.467 -0.2449  0.2816 -0.3699
17832TIP3    H174987   4.489   5.928  13.475 -1.9347  0.8270 -0.9055
17832TIP3    H274988   4.518   5.802  13.397  1.1511  0.5991  0.5633
17833TIP3   OH274989   2.354   6.125   3.991 -0.0805  0.0992  0.0056
17833TIP3    H174990   2.349   6.042   4.037 -0.1113  0.0011 -0.1723
17833TIP3    H274991   2.409   6.181   4.046  0.5484 -0.2781 -0.2363
17834TIP3   OH274992   4.211   2.903  16.152  0.3215  0.5025 -0.4240
17834TIP3    H174993   4.265   2.825  16.139 -0.6870  0.1552 -2.7409
17834TIP3    H274994   4.208   2.945  16.066 -2.6200  0.8038 -0.2227
17835TIP3   OH274995   3.215   5.855  16.653 -0.1002  0.1499  0.3050
17835TIP3    H174996   3.296   5.805  16.654 -0.5128 -0.5382 -0.0344
17835TIP3    H274997   3.170   5.831  16.734 -0.1258  0.2578  0.3218
17836TIP3   OH274998   5.104   3.224  14.047 -0.5617 -0.3355 -0.3978
17836TIP3    H174999   5.159   3.262  13.978  3.0324 -1.6937  1.5550
17836TIP3    H275000   5.064   3.147  14.007  0.7360 -0.5753 -1.2664
17837TIP3   OH275001   6.647   6.369  14.650  0.6896 -0.5186  0.7448
17837TIP3    H175002   6.612   6.298  14.704  1.4669 -0.2384  1.6217
17837TIP3    H275003   6.657   6.443  14.710  2.7274 -0.5799  0.5146
17838TIP3   OH275004   4.084   3.019  15.676 -0.3520  0.3627 -0.5624
17838TIP3    H175005   4.000   3.055  15.703  0.2942  1.4378  0.0244
17838TIP3    H275006   4.061   2.950  15.614 -1.7028 -0.0365  0.3603
17839TIP3   OH275007   2.189   4.420  12.061  0.6960  0.2525 -0.4102
17839TIP3    H175008   2.207   4.512  12.080  1.1205  0.2129 -0.6294
17839TIP3    H275009   2.201   4.375  12.144  0.9977  0.3149 -0.4230
17840TIP3   OH275010   5.872   6.000   3.412 -0.1268 -0.3585 -0.4302
17840TIP3    H175011   5.807   6.066   3.434  0.3597 -0.2754  0.7820
17840TIP3    H275012   5.864   5.989   3.317 -2.4785 -0.9834 -0.1789
17841TIP3   OH275013   4.098   5.482   4.349 -0.4321 -0.4259 -0.7070
17841TIP3    H175014   4.031   5.537   4.388  0.0908 -0.3366  0.0620
17841TIP3    H275015   4.071   5.393   4.369 -0.7495 -0.4142 -1.0914
17842TIP3   OH275016   4.420   3.272  16.544  0.3456 -0.5642  0.2360
17842TIP3    H175017   4.368   3.221  16.482  0.3803  1.0709 -1.1434
17842TIP3    H275018   4.492   3.308  16.493  0.8406  0.1149  1.3857
17843TIP3   OH275019   3.222   1.439  16.919  0.3349 -0.2109  0.4469
17843TIP3    H175020   3.155   1.423  16.852  0.1130  0.0890  0.5930
17843TIP3    H275021   3.289   1.490  16.874 -0.3284  0.9429  0.7245
17844TIP3   OH275022   0.162   2.853  12.823  0.4807  0.0196  0.4652
17844TIP3    H175023   0.133   2.811  12.742  0.5544  0.7261  0.0709
17844TIP3    H275024   0.241   2.901  12.799 -0.1593  1.1990  0.6810
17845TIP3   OH275025   1.686   6.754  17.254  0.5205  0.1407  0.1963
17845TIP3    H175026   1.615   6.818  17.250  2.5983  2.7527  2.8032
17845TIP3    H275027   1.642   6.669  17.253 -2.5195  1.6582 -0.2324
17846TIP3   OH275028   6.249   6.485  15.658  0.3112 -0.1176  0.6971
17846TIP3    H175029   6.278   6.407  15.706 -0.5398 -0.2406  1.0128
17846TIP3    H275030   6.222   6.451  15.572  2.5490  0.2001 -0.1622
17847TIP3   OH275031   0.211   2.484  10.887  0.7542 -0.3214  0.1910
17847TIP3    H175032   0.268   2.540  10.835  0.4709 -1.5876 -1.5053
17847TIP3    H275033   0.269   2.418  10.925  0.7275 -0.3556  0.1728
17848TIP3   OH275034   6.595   2.480   0.924 -0.1511  0.0289  0.1721
17848TIP3    H175035   6.554   2.551   0.874  3.4043  2.3141  0.3238
17848TIP3    H275036   6.577   2.401   0.873  0.9381  1.8943 -3.2329
17849TIP3   OH275037   0.573   4.481   0.108 -0.1116 -0.3231 -0.5573
17849TIP3    H175038   0.567   4.399   0.060 -1.6328 -0.7418  0.3017
17849TIP3    H275039   0.521   4.467   0.187 -0.0002  1.3052 -0.1618
17850TIP3   OH275040   2.672   3.465   1.070  0.0747  0.3875  0.0433
17850TIP3    H175041   2.647   3.554   1.092  0.6321  0.6376 -0.3391
17850TIP3    H275042   2.594   3.413   1.091  0.4031  0.6823  2.0999
17851TIP3   OH275043   3.053   4.371   3.297  0.7812  0.2374  0.0074
17851TIP3    H175044   3.020   4.291   3.256  2.1651  0.1382 -0.9181
17851TIP3    H275045   3.138   4.347   3.333  1.1656  1.2739 -0.1900
17852TIP3   OH275046   4.876   4.487  14.831 -0.4544  0.1509  0.3281
17852TIP3    H175047   4.783   4.470  14.814 -0.8114 -0.6173  2.8189
17852TIP3    H275048   4.877   4.574  14.873  0.0686  0.6211 -0.6398
17853TIP3   OH275049   6.028   5.228  12.427  0.6714  0.3200  0.2467
17853TIP3    H175050   5.968   5.181  12.485  1.4355 -0.2274  0.5952
17853TIP3    H275051   6.062   5.299  12.481  1.2013 -0.0468  0.3910
17854TIP3   OH275052   3.189   0.919   4.061 -0.1271  0.0187  0.0959
17854TIP3    H175053   3.113   0.962   4.022  0.9066  1.1855 -0.6945
17854TIP3    H275054   3.264   0.970   4.029  1.1078 -2.1162 -0.5262
17855TIP3   OH275055   3.524   3.466  14.952  0.2296  0.3586 -0.0138
17855TIP3    H175056   3.478   3.433  14.875  2.8413 -1.1179 -1.0030
17855TIP3    H275057   3.516   3.395  15.016  1.1832  0.0629 -0.2187
17856TIP3   OH275058   6.087   1.287  15.137 -0.2487 -0.3988  0.4571
17856TIP3    H175059   6.069   1.219  15.073  0.7391  0.6203 -0.9313
17856TIP3    H275060   6.002   1.307  15.175 -1.0748 -0.0407 -1.5291
17857TIP3   OH275061   5.976   4.440  11.742 -0.0004  0.6811  0.7959
17857TIP3    H175062   6.027   4.419  11.664 -2.7958 -0.9248 -0.7210
17857TIP3    H275063   5.932   4.523  11.721 -0.3900  0.4843  0.8164
17858TIP3   OH275064   3.677   4.600  14.286 -0.5113 -0.8546 -0.1710
17858TIP3    H175065   3.594   4.636  14.318 -0.2533  0.4427 -0.9377
17858TIP3    H275066   3.716   4.671  14.235  0.6841 -1.7437 -0.5125
17859TIP3   OH275067   6.457   4.351   0.191  0.0258 -0.0423 -0.4994
17859TIP3    H175068   6.512   4.279   0.225  0.8292  2.3652  3.7227
17859TIP3    H275069   6.373   4.338   0.234 -0.8461 -0.2350 -2.2298
17860TIP3   OH275070   4.304   6.234   5.140 -0.0373  0.0650 -0.2199
17860TIP3    H175071   4.382   6.240   5.085 -0.4638 -0.3388 -0.8721
17860TIP3    H275072   4.317   6.155   5.191 -0.4691 -0.5382 -1.0344
17861TIP3   OH275073   4.976   4.229  13.406 -0.1259 -0.0149 -0.1589
17861TIP3    H175074   4.986   4.317  13.371  2.4896 -0.5402 -0.8837
17861TIP3    H275075   4.972   4.173  13.329  0.8697 -0.7592  0.3209
17862TIP3   OH275076   2.413   2.306  12.168  0.0868 -0.5222 -0.0439
17862TIP3    H175077   2.433   2.386  12.217  0.3538 -0.1794 -0.6997
17862TIP3    H275078   2.479   2.243  12.196  0.4669 -0.2113 -0.2300
17863TIP3   OH275079   5.158   2.721   2.660  0.0917  0.5280 -0.5925
17863TIP3    H175080   5.167   2.641   2.609  0.4618 -0.4532  0.9939
17863TIP3    H275081   5.163   2.693   2.751 -3.3799  1.8684  0.1059
17864TIP3   OH275082   0.776   4.214   3.567 -0.5022 -0.0927 -0.3951
17864TIP3    H175083   0.791   4.125   3.538 -0.2633  0.1447 -0.9932
17864TIP3    H275084   0.817   4.269   3.501 -0.0658  0.4488  0.3153
17865TIP3   OH275085   1.018   6.549   3.858 -0.3660 -0.4944 -0.2684
17865TIP3    H175086   0.925   6.561   3.873 -0.1085  0.1784  0.8431
17865TIP3    H275087   1.059   6.627   3.897  0.6899 -0.9984 -0.3446
17866TIP3   OH275088   1.114   5.848   1.275 -0.3057  0.8469  0.3541
17866TIP3    H175089   1.050   5.779   1.259  1.0270 -0.0768 -1.3040
17866TIP3    H275090   1.183   5.805   1.325  0.5362  0.9510 -0.6975
17867TIP3   OH275091   5.670   1.220   3.708  0.2950 -0.2057  0.4206
17867TIP3    H175092   5.738   1.224   3.641 -0.2845 -0.9500 -0.2281
17867TIP3    H275093   5.666   1.127   3.733 -0.1194 -0.0828  0.8187
17868TIP3   OH275094   0.844   6.320  13.154  0.2289 -0.5380  0.2886
17868TIP3    H175095   0.923   6.342  13.104  0.5401  0.7188  1.2936
17868TIP3    H275096   0.860   6.357  13.241 -1.2893 -0.6437  0.6254
17869TIP3   OH275097   2.186   4.808  16.370  0.2887  0.2755 -0.4648
17869TIP3    H175098   2.222   4.751  16.438 -1.2052 -1.9674 -1.4777
17869TIP3    H275099   2.258   4.821  16.309  0.1855 -1.9491 -1.0898
17870TIP3   OH275100   5.134   1.459   0.483  0.0994  0.1026 -0.6391
17870TIP3    H175101   5.174   1.498   0.561 -1.3227  0.6948 -0.1863
17870TIP3    H275102   5.056   1.513   0.467 -0.7830 -1.3105 -1.2020
17871TIP3   OH275103   2.203   6.486   1.490 -0.0965  0.0149  0.3115
17871TIP3    H175104   2.263   6.513   1.421 -0.3811 -0.1918 -0.0177
17871TIP3    H275105   2.252   6.499   1.571 -0.2270  1.5512  0.1618
17872TIP3   OH275106   2.030   6.333   2.682 -0.0243 -0.3766  0.3812
17872TIP3    H175107   1.956   6.380   2.643  0.3155 -1.0533 -1.0643
17872TIP3    H275108   1.989   6.274   2.746 -0.6443  0.0167  0.3604
17873TIP3   OH275109   1.755   4.798   3.140 -0.1271  0.3199 -0.1918
17873TIP3    H175110   1.714   4.713   3.120 -0.8585  0.3859  0.9952
17873TIP3    H275111   1.833   4.801   3.083  0.3453 -1.4953  0.3267
17874TIP3   OH275112   0.108   2.108  13.410 -0.2414 -0.0836 -0.3365
17874TIP3    H175113   0.027   2.158  13.410  0.0376  0.3958  0.9476
17874TIP3    H275114   0.174   2.169  13.445  0.2264 -1.1412  0.6467
17875TIP3   OH275115   3.761   5.283  16.952 -0.4784 -0.1233  0.0738
17875TIP3    H175116   3.745   5.376  16.971 -0.0746  0.2226 -1.2418
17875TIP3    H275117   3.856   5.274  16.957 -0.4397 -0.2258 -0.9123
17876TIP3   OH275118   3.785   5.367   0.981 -0.1157 -0.0093 -0.2112
17876TIP3    H175119   3.847   5.298   0.954  0.4407  0.0200  0.9784
17876TIP3    H275120   3.701   5.322   0.989  0.5835 -0.9338  2.2667
17877TIP3   OH275121   5.781   0.796   2.160 -0.2014  0.8086  0.4642
17877TIP3    H175122   5.740   0.794   2.074  0.3695 -1.7841  0.2078
17877TIP3    H275123   5.712   0.768   2.220  0.3700 -0.8822  0.3688
17878TIP3   OH275124   2.232   3.905  14.046  0.1173  0.1607  0.0209
17878TIP3    H175125   2.293   3.832  14.059  0.4895  0.2493 -1.1479
17878TIP3    H275126   2.231   3.919  13.952 -1.0021  0.7836  0.1149
17879TIP3   OH275127   1.666   2.620  16.400  0.9327  0.2099 -0.1200
17879TIP3    H175128   1.663   2.631  16.305 -3.0145  0.6180 -0.0203
17879TIP3    H275129   1.700   2.532  16.413 -1.4354 -1.0632 -2.0557
17880TIP3   OH275130   2.186   6.325   4.952 -0.3857 -0.1834 -0.2770
17880TIP3    H175131   2.232   6.251   4.911 -1.2401 -0.9887  0.2000
17880TIP3    H275132   2.110   6.285   4.994 -1.3440  1.0971 -0.7783
17881TIP3   OH275133   1.946   3.134   5.556 -0.1424  0.2174  0.6307
17881TIP3    H175134   1.882   3.164   5.620  0.6377  0.8256  1.1406
17881TIP3    H275135   1.895   3.115   5.478 -0.8205  1.6748  0.6948
17882TIP3   OH275136   0.021   5.766  14.416 -0.1523  0.2643  0.9251
17882TIP3    H175137   0.080   5.838  14.437  0.6654 -0.6401  1.8044
17882TIP3    H275138  -0.066   5.799  14.434  0.2546  0.8734  1.7827
17883TIP3   OH275139   2.691   0.830   0.106 -0.1057  0.0508  0.7185
17883TIP3    H175140   2.609   0.810   0.061 -0.2005  2.0310 -0.0127
17883TIP3    H275141   2.712   0.749   0.153 -0.7335 -1.5799 -1.7189
17884TIP3   OH275142   4.916   1.271  11.222 -0.2378  0.2919  0.0844
17884TIP3    H175143   4.902   1.176  11.230 -0.5842  0.4933  2.1385
17884TIP3    H275144   4.830   1.306  11.200  0.4059 -0.1069 -3.2935
17885TIP3   OH275145   1.853   0.658   3.249 -0.7923 -0.4211 -0.2935
17885TIP3    H175146   1.888   0.586   3.302 -1.3358 -0.9040 -0.5780
17885TIP3    H275147   1.840   0.729   3.312 -1.9452 -1.1705  0.3407
17886TIP3   OH275148   4.882   4.860  11.309  0.7419  0.2545  0.6091
17886TIP3    H175149   4.889   4.943  11.356  1.8002  0.4074  0.2061
17886TIP3    H275150   4.953   4.806  11.343  0.5890 -0.1733  0.2613
17887TIP3   OH275151   3.823   2.177   1.868  0.5463  0.2818  0.3035
17887TIP3    H175152   3.834   2.263   1.828 -0.3842  0.3672  0.2121
17887TIP3    H275153   3.835   2.192   1.962  0.7537  0.4491  0.2478
17888TIP3   OH275154   3.018   4.021   2.148  0.1307 -0.2750 -0.1802
17888TIP3    H175155   3.098   3.970   2.133  0.1743 -0.5964  1.0720
17888TIP3    H275156   3.012   4.027   2.243 -2.1212 -1.4729 -0.2213
17889TIP3   OH275157   2.031   5.604  13.711 -0.2426 -0.1232  0.5020
17889TIP3    H175158   2.057   5.681  13.762 -0.4985  0.8150 -0.7703
17889TIP3    H275159   2.028   5.533  13.775 -0.5252  1.0330  1.7930
17890TIP3   OH275160   1.535   6.100  14.989 -0.0288 -0.4240 -0.1670
17890TIP3    H175161   1.521   6.144  14.905  1.1406  0.6290  0.1785
17890TIP3    H275162   1.566   6.013  14.966 -0.4731 -0.4114 -0.8339
17891TIP3   OH275163   0.223   4.445  16.704  0.2913  0.0185  0.5771
17891TIP3    H175164   0.250   4.535  16.720  1.1139 -0.3662  1.3514
17891TIP3    H275165   0.269   4.393  16.770  0.8409 -1.1378 -0.6835
17892TIP3   OH275166   6.768   5.734   3.913 -0.0791 -0.2779  0.0687
17892TIP3    H175167   6.675   5.718   3.893  0.5295 -1.0088 -2.4424
17892TIP3    H275168   6.806   5.646   3.918  0.6917  0.0460 -0.1053
17893TIP3   OH275169   6.427   0.246   4.776 -0.3059 -0.3219 -0.5970
17893TIP3    H175170   6.394   0.321   4.727 -1.8265 -0.7066 -0.1771
17893TIP3    H275171   6.416   0.269   4.868 -0.0837 -0.7558 -0.4564
17894TIP3   OH275172   2.893   5.652   2.721 -0.0461  0.1628  0.1460
17894TIP3    H175173   2.903   5.698   2.804 -0.1059 -1.0976  0.8690
17894TIP3    H275174   2.802   5.619   2.723  0.7262 -2.0309  0.7334
17895TIP3   OH275175   5.262   1.803  12.797  0.2410  0.5501 -0.1552
17895TIP3    H175176   5.218   1.796  12.881  2.0643 -1.4571  0.6726
17895TIP3    H275177   5.313   1.884  12.803  1.4500 -0.2960  1.2138
17896TIP3   OH275178   1.263   4.475   3.248  0.2730  0.0996  0.1758
17896TIP3    H175179   1.201   4.518   3.308 -0.8512 -0.8514 -0.2779
17896TIP3    H275180   1.249   4.518   3.164  1.8786  1.4595  0.5805
17897TIP3   OH275181   1.661   4.641   5.130 -0.2953  0.0071 -0.3948
17897TIP3    H175182   1.665   4.545   5.136  1.8163  0.1302  0.6064
17897TIP3    H275183   1.611   4.667   5.208 -1.6320 -0.3209 -1.1354
17898TIP3   OH275184   6.259   2.680  17.024  0.4118  0.0680  0.2338
17898TIP3    H175185   6.180   2.706  17.072  0.7656  0.1606  0.7717
17898TIP3    H275186   6.300   2.614  17.080 -0.1152 -1.1551 -0.8017
17899TIP3   OH275187   0.014   3.292  14.199  0.2493 -0.0638 -0.7510
17899TIP3    H175188  -0.034   3.328  14.274  1.1401 -0.1977 -0.1132
17899TIP3    H275189   0.071   3.364  14.171 -1.0254  0.4226 -2.1228
17900TIP3   OH275190   2.420   3.541  15.110 -0.2558 -0.1765 -0.3383
17900TIP3    H175191   2.399   3.472  15.047 -0.8319 -1.7395  1.5279
17900TIP3    H275192   2.342   3.598  15.109 -0.2816 -0.2149 -0.9892
17901TIP3   OH275193   2.087   5.443   2.567 -0.1974  0.0995 -0.1169
17901TIP3    H175194   2.164   5.493   2.593  0.9590 -0.4754 -2.2721
17901TIP3    H275195   2.094   5.361   2.615  1.6963 -0.7944 -1.8089
17902TIP3   OH275196   4.640   1.171  11.730  0.7940 -0.0875 -0.4455
17902TIP3    H175197   4.712   1.223  11.695 -0.7187  1.3345 -1.5308
17902TIP3    H275198   4.619   1.110  11.660 -0.9178  1.4244 -1.2888
17903TIP3   OH275199   4.322   0.780  13.485  0.4306 -0.2755  0.4515
17903TIP3    H175200   4.227   0.773  13.475  0.1586  0.8279  2.1153
17903TIP3    H275201   4.338   0.756  13.576  1.7136 -0.0127  0.3025
17904TIP3   OH275202   6.563   3.912   2.276  0.1514  0.1100  0.1228
17904TIP3    H175203   6.605   3.990   2.313 -0.0917  0.8763 -1.2132
17904TIP3    H275204   6.635   3.851   2.260  0.5126  0.6201 -0.1972
17905TIP3   OH275205   4.699   0.427  16.381 -0.3029  0.7249  0.0466
17905TIP3    H175206   4.748   0.427  16.463 -0.7086  0.9578  0.2937
17905TIP3    H275207   4.612   0.393  16.406 -0.2157  0.1686 -0.4121
17906TIP3   OH275208   1.904   2.469   4.690  0.5812 -0.1376 -0.0949
17906TIP3    H175209   1.824   2.464   4.637 -0.9929  1.2749  2.0787
17906TIP3    H275210   1.950   2.547   4.657 -0.4558  0.8126  0.6946
17907TIP3   OH275211   5.062   4.477  13.344 -0.0698  0.2837  0.8265
17907TIP3    H175212   5.069   4.471  13.249 -3.1027 -1.4875  0.6761
17907TIP3    H275213   5.039   4.569  13.360  1.4114  0.8251 -0.0617
17908TIP3   OH275214   1.188   2.997   3.378 -0.0989 -0.1807 -0.0340
17908TIP3    H175215   1.207   3.030   3.290  0.2048  0.8788  0.4167
17908TIP3    H275216   1.254   2.929   3.393  0.5905  0.4569 -0.1700
17909TIP3   OH275217   5.968   6.695   0.617  0.3897  0.2538 -0.0015
17909TIP3    H175218   6.012   6.667   0.698  1.7943  0.5979 -0.6312
17909TIP3    H275219   6.000   6.633   0.551  0.5997  1.0354 -0.6390
17910TIP3   OH275220   3.771   5.369   2.315  0.0318  0.1453  0.1714
17910TIP3    H175221   3.703   5.348   2.250 -0.3183 -0.3114  0.6774
17910TIP3    H275222   3.723   5.415   2.385 -0.0417 -1.5028  1.2373
17911TIP3   OH275223   5.974   6.758   4.954 -0.4037  0.0591  0.1133
17911TIP3    H175224   6.037   6.691   4.928  0.0005  0.9611 -1.2865
17911TIP3    H275225   5.920   6.772   4.877 -0.6656  1.1425  0.4750
17912TIP3   OH275226   4.127   3.614  16.007  0.0031 -0.0736  0.4231
17912TIP3    H175227   4.191   3.683  15.992  0.9871 -0.9356  0.5992
17912TIP3    H275228   4.044   3.660  16.019  0.7674  1.1119  1.2565
17913TIP3   OH275229   6.591   2.501   3.405  0.0850  0.1324  0.6768
17913TIP3    H175230   6.538   2.579   3.389  1.5199  0.8073 -1.0238
17913TIP3    H275231   6.662   2.531   3.462  0.6141  0.0609  0.0586
17914TIP3   OH275232   3.432   4.157   4.035 -0.1738 -0.0918 -0.3009
17914TIP3    H175233   3.360   4.206   4.074 -0.9204 -0.0981 -1.6306
17914TIP3    H275234   3.406   4.143   3.944 -0.0930 -3.1258  0.0675
17915TIP3   OH275235   3.207   4.319   4.154 -0.7896  0.7531  0.0351
17915TIP3    H175236   3.148   4.259   4.200  0.0717  0.0587  0.2529
17915TIP3    H275237   3.176   4.319   4.064 -1.2634  0.5705  0.1946
17916TIP3   OH275238   1.961   3.544   1.366 -0.7063  0.3716  0.4794
17916TIP3    H175239   1.938   3.637   1.371 -1.5138  0.3785 -2.2413
17916TIP3    H275240   1.945   3.510   1.454 -1.4309  2.5849  1.2363
17917TIP3   OH275241   4.330   3.876   3.583  0.2868 -0.0806 -0.2586
17917TIP3    H175242   4.300   3.847   3.497  1.8930  1.8429 -1.5187
17917TIP3    H275243   4.268   3.945   3.607 -0.1125 -0.5608  0.0884
17918TIP3   OH275244   6.363   6.686  15.949 -0.4756 -0.0960 -0.3295
17918TIP3    H175245   6.300   6.751  15.981 -1.3800 -1.0420 -0.1504
17918TIP3    H275246   6.324   6.602  15.971  0.8454 -0.7077 -0.2580
17919TIP3   OH275247   3.204   3.265  12.121  0.0786 -0.2049  0.5049
17919TIP3    H175248   3.220   3.172  12.111 -0.0609 -0.2724  0.9279
17919TIP3    H275249   3.238   3.304  12.040  1.6001 -0.4371  1.0117
17920TIP3   OH275250   0.734   3.509  16.070 -0.0004  0.6803 -0.3893
17920TIP3    H175251   0.713   3.531  16.161 -1.1282  3.1053 -1.1992
17920TIP3    H275252   0.656   3.464  16.037  1.5002 -2.8672  0.6321
17921TIP3   OH275253   2.224   3.922  17.054 -0.3037 -0.3673  0.2584
17921TIP3    H175254   2.298   3.900  17.110  0.0947  1.1677  0.3506
17921TIP3    H275255   2.222   3.852  16.989  0.9589 -0.6511  0.5051
17922TIP3   OH275256   5.169   4.653  15.519 -0.5498  0.0655  0.3887
17922TIP3    H175257   5.261   4.627  15.511 -1.1013 -1.3925 -1.8383
17922TIP3    H275258   5.134   4.596  15.587  0.4394  1.4392  2.0998
17923TIP3   OH275259   6.120   0.900   5.432 -0.2386  0.3292 -0.0733
17923TIP3    H175260   6.109   0.885   5.526  2.0163  0.0702  0.1744
17923TIP3    H275261   6.129   0.812   5.395  0.2454  0.4924 -0.3468
17924TIP3   OH275262   3.807   2.810  16.134 -0.4288 -0.6345  0.1078
17924TIP3    H175263   3.831   2.843  16.048  1.0329  1.8152  1.4064
17924TIP3    H275264   3.889   2.773  16.168 -0.4867  0.2677  1.2519
17925TIP3   OH275265   1.146   3.091   6.691 -0.4350  0.6772 -0.4656
17925TIP3    H175266   1.185   3.092   6.778 -1.9544  3.1694  0.2276
17925TIP3    H275267   1.210   3.135   6.635 -0.6250  1.4975 -0.0499
17926TIP3   OH275268   1.846   2.200   5.082  0.6348 -0.1976  0.5470
17926TIP3    H175269   1.778   2.167   5.023  0.4002 -1.6144  1.5812
17926TIP3    H275270   1.798   2.235   5.157  1.0347 -0.8521  1.1106
17927TIP3   OH275271   5.745   0.686  11.963 -0.0941 -0.3619 -0.7882
17927TIP3    H175272   5.734   0.597  11.996 -1.1222  0.2409  0.5578
17927TIP3    H275273   5.833   0.712  11.993 -0.6213 -0.1816  0.6650
17928TIP3   OH275274   4.674   1.888   3.560  0.1846 -0.3651 -0.0315
17928TIP3    H175275   4.763   1.899   3.594  0.8447 -1.0881 -1.4662
17928TIP3    H275276   4.639   1.814   3.609  0.7329 -0.7150 -0.1640
17929TIP3   OH275277   1.402   3.588  12.337  0.5789 -0.4019  0.3028
17929TIP3    H175278   1.446   3.621  12.416 -0.9811 -1.1106  1.4849
17929TIP3    H275279   1.393   3.494  12.352  0.3313 -0.5587 -0.7683
17930TIP3   OH275280   1.136   1.628  13.162 -0.2896  0.6003  0.0087
17930TIP3    H175281   1.060   1.569  13.171 -1.0446  1.2520 -1.8951
17930TIP3    H275282   1.153   1.658  13.251 -0.0057 -2.3340  1.0073
17931TIP3   OH275283   4.436   0.528  13.614  0.9356 -0.1861  0.1447
17931TIP3    H175284   4.530   0.545  13.621  1.2335 -1.5012 -0.5076
17931TIP3    H275285   4.416   0.545  13.521  0.8233 -1.3126 -0.0413
17932TIP3   OH275286   1.371   2.933   4.315  0.3974  0.0127  0.2778
17932TIP3    H175287   1.443   2.983   4.276  2.6112  0.2611  4.3350
17932TIP3    H275288   1.383   2.844   4.284 -1.3927  1.1798 -4.0935
17933TIP3   OH275289   0.846   5.455  12.193  0.0995  0.6486 -0.0474
17933TIP3    H175290   0.787   5.455  12.117 -0.3943 -0.8555  0.3106
17933TIP3    H275291   0.895   5.373  12.185  2.8417  2.3223 -0.8425
17934TIP3   OH275292   3.456   2.593   1.443 -0.2278  0.6585  0.2802
17934TIP3    H175293   3.423   2.667   1.391  0.5276  1.1531  0.5066
17934TIP3    H275294   3.537   2.567   1.399 -0.9929 -0.6665 -0.3672
17935TIP3   OH275295   2.260   2.084  15.092  0.1761 -0.1709  0.1149
17935TIP3    H175296   2.278   2.081  14.998 -1.3200  0.9482 -0.2200
17935TIP3    H275297   2.229   1.996  15.113 -0.0061 -0.2643 -0.5373
17936TIP3   OH275298   6.055   1.653   6.687 -0.2443  0.9587 -0.1816
17936TIP3    H175299   6.047   1.745   6.712  1.8846  0.1564  3.9475
17936TIP3    H275300   6.021   1.605   6.762  1.0059 -1.6518 -1.2114
17937TIP3   OH275301   6.735   1.152   0.475  0.0243  0.1548 -0.4940
17937TIP3    H175302   6.800   1.106   0.422  0.9278  0.3212  0.4468
17937TIP3    H275303   6.779   1.166   0.559 -1.0311  0.7793 -0.0418
17938TIP3   OH275304   5.162   1.136   1.702  0.5512 -0.3922 -0.7812
17938TIP3    H175305   5.112   1.215   1.722  0.1456 -0.3971 -1.7667
17938TIP3    H275306   5.252   1.167   1.688  0.6464 -0.2686  0.0560
17939TIP3   OH275307   0.771   1.524  11.028 -0.2052 -0.1266 -0.1134
17939TIP3    H175308   0.735   1.609  11.002 -0.0229 -0.3458 -1.1201
17939TIP3    H275309   0.843   1.509  10.967  0.8714 -0.2186  1.1659
17940TIP3   OH275310   1.849   5.645  16.798  0.2812 -0.4869 -0.0174
17940TIP3    H175311   1.852   5.616  16.706  0.5943 -1.3226  0.2540
17940TIP3    H275312   1.925   5.703  16.806  0.7745 -1.1166 -0.0566
17941TIP3   OH275313   5.266   5.091   2.669 -0.1451  0.1191  0.5631
17941TIP3    H175314   5.259   5.017   2.609 -0.7015  1.7467 -1.4503
17941TIP3    H275315   5.241   5.167   2.616  2.3529  2.0180  2.0186
17942TIP3   OH275316   4.246   5.827  13.656  0.1677  0.0361  0.1509
17942TIP3    H175317   4.177   5.865  13.603  1.2918  2.0626  0.1044
17942TIP3    H275318   4.314   5.801  13.593  1.0345  1.4506  0.4833
17943TIP3   OH275319   0.401   1.451  11.733  0.6400 -0.5517  0.0950
17943TIP3    H175320   0.346   1.525  11.708 -0.1733  0.0143  3.4128
17943TIP3    H275321   0.353   1.374  11.702  0.5798  0.1713 -1.6866
17944TIP3   OH275322   6.391   5.853  12.353  0.2148 -0.1929  0.1224
17944TIP3    H175323   6.459   5.854  12.286 -0.8577 -1.3936 -1.0162
17944TIP3    H275324   6.410   5.774  12.404 -0.8701 -1.0757 -0.8041
17945TIP3   OH275325   6.552   6.024   3.167  0.6588  0.1875 -0.3547
17945TIP3    H175326   6.581   5.965   3.098  0.4492 -1.8435  1.2631
17945TIP3    H275327   6.608   6.003   3.242 -0.7177  0.6802  0.8426
17946TIP3   OH275328   1.449   5.353  15.526  1.0313 -0.3306 -0.2896
17946TIP3    H175329   1.499   5.285  15.569 -0.2820  0.0766  1.9659
17946TIP3    H275330   1.357   5.325  15.534  0.6037  0.8799 -0.7745
17947TIP3   OH275331   0.030   1.658   6.459 -0.6822 -1.5218 -0.1984
17947TIP3    H175332  -0.011   1.722   6.401  0.9067  0.0772  0.3912
17947TIP3    H275333   0.070   1.594   6.400 -0.9601 -1.1337 -0.8111
17948TIP3   OH275334   4.446   4.884   1.584  0.0372  0.2789 -0.0892
17948TIP3    H175335   4.476   4.799   1.551 -1.0789 -1.0704  2.2808
17948TIP3    H275336   4.355   4.890   1.556 -0.1784  0.2397  0.6026
17949TIP3   OH275337   0.394   2.146  13.099 -0.1631 -0.0212 -0.3769
17949TIP3    H175338   0.320   2.205  13.115  0.2822  0.1483  1.1743
17949TIP3    H275339   0.354   2.065  13.068 -1.3225 -1.0328  3.4861
17950TIP3   OH275340   3.748   6.306  15.957  0.3992 -0.3174  0.0182
17950TIP3    H175341   3.664   6.353  15.958 -0.3371 -1.6276 -0.0868
17950TIP3    H275342   3.756   6.270  16.045  1.1753  0.3402  0.2263
17951TIP3   OH275343   2.853   3.231  12.913 -0.1050 -0.1048  0.2780
17951TIP3    H175344   2.851   3.135  12.917 -0.2295 -0.1202 -0.0953
17951TIP3    H275345   2.922   3.256  12.974 -1.9102 -0.2873  2.4694
17952TIP3   OH275346   1.063   6.326  11.823 -0.0194 -0.0215 -0.2102
17952TIP3    H175347   0.987   6.383  11.813 -0.0077  0.3328  1.4712
17952TIP3    H275348   1.123   6.376  11.879 -0.2755 -1.8976  1.8419
17953TIP3   OH275349   5.096   2.799   6.255  1.0266  0.2066  0.5124
17953TIP3    H175350   5.138   2.799   6.170 -1.2346  2.7032 -0.6718
17953TIP3    H275351   5.071   2.890   6.271  0.9130 -0.2951  3.5932
17954TIP3   OH275352   5.232   1.415  15.383  0.6303 -0.6605  0.1804
17954TIP3    H175353   5.175   1.375  15.317 -2.5060 -0.3748  2.6276
17954TIP3    H275354   5.210   1.370  15.465  1.2850  1.9839  1.8634
17955TIP3   OH275355   4.583   5.692  12.334  0.6039  0.3120  0.5395
17955TIP3    H175356   4.642   5.652  12.271 -0.2869  1.4455 -1.0531
17955TIP3    H275357   4.559   5.621  12.393 -0.0468 -1.2378 -1.5280
17956TIP3   OH275358   6.095   2.694   4.523  0.5609  0.2827  0.3374
17956TIP3    H175359   6.001   2.685   4.534  0.4010  1.3013 -0.1191
17956TIP3    H275360   6.130   2.691   4.612 -0.1131  1.9896  0.6823
17957TIP3   OH275361   6.301   4.515   5.781 -0.3335 -0.0183  0.3051
17957TIP3    H175362   6.371   4.570   5.746 -0.0264 -1.0080 -0.6623
17957TIP3    H275363   6.340   4.470   5.855 -0.1835  0.0315  0.2575
17958TIP3   OH275364   3.661   0.236  14.301 -0.2223  0.3086 -0.2197
17958TIP3    H175365   3.744   0.283  14.290 -0.9426  1.8512  0.9641
17958TIP3    H275366   3.597   0.303  14.320 -1.6564 -0.9558 -0.5018
17959TIP3   OH275367   6.548   1.620   1.348 -0.3303 -0.2626 -0.3518
17959TIP3    H175368   6.557   1.538   1.396 -0.4485  0.3366  0.6919
17959TIP3    H275369   6.468   1.608   1.296 -1.5940  0.0478  1.4949
17960TIP3   OH275370   0.227   6.100   2.173  0.1341 -0.2814 -0.5560
17960TIP3    H175371   0.152   6.159   2.175  0.1508 -0.2542 -0.6905
17960TIP3    H275372   0.193   6.016   2.203  0.5794  0.3103  1.6800
17961TIP3   OH275373   3.566   1.363  16.413  0.1860  0.0658 -0.2015
17961TIP3    H175374   3.588   1.423  16.342  1.0365 -1.0317 -0.8796
17961TIP3    H275375   3.496   1.308  16.378 -0.6720  0.7106  0.4584
17962TIP3   OH275376   6.159   3.921  15.114 -0.4526 -0.0223 -0.0736
17962TIP3    H175377   6.183   3.985  15.046  3.7826  0.1682  1.4327
17962TIP3    H275378   6.148   3.973  15.193 -1.2946 -0.6858  0.2486
17963TIP3   OH275379   6.744   1.662  10.545  0.0953 -0.6902 -0.3884
17963TIP3    H175380   6.681   1.594  10.522 -2.1724  1.3692 -0.4489
17963TIP3    H275381   6.713   1.696  10.629  2.2085 -0.9285  0.5093
17964TIP3   OH275382   5.493   0.619  14.331 -0.0869  0.2356 -0.2377
17964TIP3    H175383   5.484   0.525  14.317 -0.9548  0.3617 -0.5326
17964TIP3    H275384   5.587   0.633  14.341  0.0115 -0.7179  0.1879
17965TIP3   OH275385   5.563   1.355   6.662  0.5866  0.0729 -0.0929
17965TIP3    H175386   5.576   1.447   6.641  0.3078  0.5431  1.7893
17965TIP3    H275387   5.472   1.348   6.688  0.4934 -0.8217 -0.6287
17966TIP3   OH275388   3.764   4.848  13.868 -0.7181 -0.3705  0.3270
17966TIP3    H175389   3.811   4.776  13.826  0.3827  0.9071 -0.6953
17966TIP3    H275390   3.685   4.808  13.904  0.5990 -2.3743  1.1239
17967TIP3   OH275391   5.614   5.390  11.255  0.0003  0.8027 -0.4121
17967TIP3    H175392   5.564   5.406  11.175  0.4220 -0.8281 -1.0143
17967TIP3    H275393   5.586   5.303  11.284  0.2656  1.1434  0.9040
17968TIP3   OH275394   5.800   0.439   0.298 -0.6409  0.5452 -0.2224
17968TIP3    H175395   5.719   0.393   0.321 -0.7293  0.4637 -0.7012
17968TIP3    H275396   5.771   0.517   0.251 -0.5360  1.6141  1.4537
17969TIP3   OH275397   3.854   3.140  16.055  0.1414  0.6190  0.3085
17969TIP3    H175398   3.932   3.085  16.052  0.4001  1.0220 -0.3566
17969TIP3    H275399   3.822   3.130  16.145  0.0303 -0.8364  0.1271
17970TIP3   OH275400   4.915   1.993  12.072 -0.1827 -0.1004  0.0631
17970TIP3    H175401   5.000   2.011  12.110  0.4477 -1.9782 -0.4177
17970TIP3    H275402   4.918   1.901  12.046 -1.5258  0.3971 -2.0732
17971TIP3   OH275403   2.654   2.143   0.046 -0.2742 -0.2374  0.5597
17971TIP3    H175404   2.559   2.135   0.036 -0.1780 -2.8264  1.2800
17971TIP3    H275405   2.667   2.159   0.140  0.0642 -1.4760  0.7321
17972TIP3   OH275406   1.824   0.879   2.667 -0.1983 -0.2197 -0.3894
17972TIP3    H175407   1.827   0.972   2.647 -1.3536 -0.3524 -1.2565
17972TIP3    H275408   1.887   0.840   2.605 -0.6119 -0.1493 -0.8574
17973TIP3   OH275409   0.111   0.822   5.056  0.5001 -0.2375 -0.4542
17973TIP3    H175410   0.200   0.799   5.029  0.4761 -2.3942  1.1794
17973TIP3    H275411   0.067   0.737   5.069 -1.6519  0.7894 -0.7805
17974TIP3   OH275412   1.444   2.251  14.581 -0.2414  0.0168  0.3845
17974TIP3    H175413   1.445   2.241  14.486 -0.3007  0.9186  0.2917
17974TIP3    H275414   1.363   2.299  14.599  0.1061  0.4268  0.8429
17975TIP3   OH275415   3.997   2.223  16.679  0.7374 -0.2629 -0.0358
17975TIP3    H175416   4.024   2.168  16.606  1.7354 -0.2912  0.3388
17975TIP3    H275417   4.015   2.312  16.650 -0.8970 -0.1078 -0.6475
17976TIP3   OH275418   0.196   3.264   0.744  0.9697  1.0574 -0.2405
17976TIP3    H175419   0.146   3.328   0.795 -0.5216  0.1807 -0.5791
17976TIP3    H275420   0.181   3.289   0.653 -0.5675 -0.4353 -0.4226
17977TIP3   OH275421   6.695   4.471   6.110 -0.0252 -0.4451 -0.2817
17977TIP3    H175422   6.673   4.404   6.175  1.4511  0.3978  1.1162
17977TIP3    H275423   6.624   4.535   6.116 -1.2786 -1.6780 -1.3976
17978TIP3   OH275424   2.985   5.031   1.546  0.5006  0.0067  0.5319
17978TIP3    H175425   2.922   4.971   1.507  0.5443  0.5677 -0.4168
17978TIP3    H275426   3.064   5.021   1.493  0.7998  0.2193  0.9383
17979TIP3   OH275427   4.885   5.440   2.587  0.5670  0.7703  0.6313
17979TIP3    H175428   4.799   5.401   2.600  0.3916  1.0542  0.3132
17979TIP3    H275429   4.933   5.376   2.535  0.0481  1.2854 -0.4988
17980TIP3   OH275430   5.511   4.520  15.832 -0.4873  1.2020 -0.3249
17980TIP3    H175431   5.468   4.605  15.829  1.0525  1.9595 -1.3639
17980TIP3    H275432   5.566   4.518  15.754 -0.4480 -0.7225 -0.2779
17981TIP3   OH275433   3.299   0.767   0.459 -0.0850 -0.1993  0.3217
17981TIP3    H175434   3.331   0.698   0.400  1.7157 -0.4434  1.5210
17981TIP3    H275435   3.309   0.729   0.547  0.9152  1.5627  0.9959
17982TIP3   OH275436   2.248   1.056  16.061 -0.2238 -0.7055 -0.5091
17982TIP3    H175437   2.205   1.080  16.143  0.1928 -1.5599 -0.0412
17982TIP3    H275438   2.191   0.991  16.022 -1.0242  0.5532 -1.4747
17983TIP3   OH275439   2.520   0.757  17.041 -0.3391  0.7999  0.0607
17983TIP3    H175440   2.493   0.778  17.130  0.6977 -3.4718  1.4659
17983TIP3    H275441   2.439   0.728  16.998 -0.2829 -0.1406  0.5749
17984TIP3   OH275442   0.524   0.069   5.661 -0.4415  0.2634  0.0287
17984TIP3    H175443   0.617   0.085   5.650  0.1487 -1.0423  2.7209
17984TIP3    H275444   0.484   0.156   5.666  1.0249  0.8521  1.8148
17985TIP3   OH275445   6.429   4.327  14.942 -0.3384 -0.0441 -0.1125
17985TIP3    H175446   6.389   4.291  15.022 -0.0346 -0.8665 -0.3226
17985TIP3    H275447   6.358   4.329  14.878 -0.2508 -0.7137 -0.2370
17986TIP3   OH275448   2.044   3.655   3.199 -0.1585  0.0467 -0.9503
17986TIP3    H175449   1.963   3.625   3.158 -0.0645  0.1087 -1.1847
17986TIP3    H275450   2.101   3.678   3.125 -0.3291  1.0749 -0.7768
17987TIP3   OH275451   4.948   2.660  12.384  0.1931 -0.3039  0.4523
17987TIP3    H175452   4.910   2.733  12.336  2.2672 -0.4772 -1.5694
17987TIP3    H275453   4.952   2.689  12.475 -1.6678  0.9412  0.1529
17988TIP3   OH275454   0.855   3.597  12.605 -0.0593 -0.1543 -0.2247
17988TIP3    H175455   0.798   3.639  12.541  0.1768  2.2546  1.0927
17988TIP3    H275456   0.796   3.546  12.660 -0.7093  0.6441 -0.1674
17989TIP3   OH275457   2.654   0.067  14.910 -0.0719  0.1375  0.3993
17989TIP3    H175458   2.699   0.129  14.967 -1.1424 -0.0979  1.5221
17989TIP3    H275459   2.609   0.121  14.846 -0.6719  0.5046  1.1294
17990TIP3   OH275460   4.512   1.653  15.553  0.0344  0.6511 -0.2263
17990TIP3    H175461   4.480   1.596  15.483 -0.2003  1.0726 -0.4627
17990TIP3    H275462   4.487   1.608  15.634  0.6131 -0.0092 -0.4120
17991TIP3   OH275463   0.320   5.632  11.411  0.6046 -0.5966  0.4513
17991TIP3    H175464   0.374   5.604  11.337  1.4441 -0.5194  1.0248
17991TIP3    H275465   0.378   5.624  11.487  0.0156  0.1208  0.9843
17992TIP3   OH275466   3.692   3.775  16.216  0.7496 -0.0190  0.7490
17992TIP3    H175467   3.702   3.685  16.248 -1.3970 -0.2424  0.8460
17992TIP3    H275468   3.604   3.801  16.244  1.6317  2.4035  1.4009
17993TIP3   OH275469   3.664   6.746   1.181 -0.3666 -0.6189  0.1036
17993TIP3    H175470   3.739   6.731   1.239 -0.9730 -0.4650  0.9427
17993TIP3    H275471   3.616   6.818   1.222 -0.5687 -0.2179 -0.8341
17994TIP3   OH275472   4.045   6.103   6.173 -0.0469 -0.0006  0.2254
17994TIP3    H175473   3.992   6.048   6.116 -1.2232  0.3668  0.9668
17994TIP3    H275474   3.994   6.184   6.184  1.0219  0.6808  0.2890
17995TIP3   OH275475   6.163   3.081  15.796  0.4139 -0.1013  0.7174
17995TIP3    H175476   6.215   3.057  15.720  0.4957  0.3791  0.6228
17995TIP3    H275477   6.191   3.170  15.818 -2.5214  1.3466 -1.1944
17996TIP3   OH275478   4.659   2.679  12.863  0.0169  0.2420 -0.8527
17996TIP3    H175479   4.729   2.731  12.822 -0.0270  1.0578  0.0912
17996TIP3    H275480   4.684   2.672  12.955 -0.5319 -0.4904 -0.7549
17997TIP3   OH275481   4.349   1.958   6.185  0.0989 -0.6360 -0.0372
17997TIP3    H175482   4.434   1.999   6.170  1.1203 -2.0472  1.6822
17997TIP3    H275483   4.299   2.025   6.232  0.2539  0.1719 -0.9936
17998TIP3   OH275484   3.462   2.352  10.702 -0.0621  0.0457  0.7271
17998TIP3    H175485   3.453   2.258  10.688  1.1034 -0.0731  0.6891
17998TIP3    H275486   3.537   2.377  10.648 -1.4302  1.3285 -0.6613
17999TIP3   OH275487   6.510   2.883  15.066 -0.2655  0.1734 -0.5473
17999TIP3    H175488   6.427   2.930  15.063 -0.3795  0.0025 -0.0155
17999TIP3    H275489   6.485   2.791  15.063 -0.0855  0.1230 -0.4783
18000TIP3   OH275490   4.167   1.210   5.691  0.0428 -0.3498  0.7212
18000TIP3    H175491   4.218   1.290   5.682 -0.2875 -0.2577 -0.4132
18000TIP3    H275492   4.091   1.223   5.633 -1.2645 -0.4862  2.3681
18001TIP3   OH275493   5.448   2.442  14.780  0.2855 -0.7331  0.3830
18001TIP3    H175494   5.437   2.358  14.826  0.6503 -1.7305 -1.3021
18001TIP3    H275495   5.542   2.457  14.780  0.5706 -2.1617 -2.4302
18002TIP3   OH275496   5.051   5.942   6.445  0.0390  0.0194  0.4209
18002TIP3    H175497   5.104   5.988   6.381  0.8594 -0.5171  0.7069
18002TIP3    H275498   4.977   6.001   6.462  1.8729  1.9441  1.9486
18003TIP3   OH275499   6.135   6.520   2.061  0.0851 -0.2934  0.1995
18003TIP3    H175500   6.182   6.453   2.110 -1.2929 -2.4192 -1.3450
18003TIP3    H275501   6.191   6.598   2.068  2.8474 -2.1975  0.1186
18004TIP3   OH275502   6.144   0.581   0.527  0.2310 -0.2539  0.7438
18004TIP3    H175503   6.109   0.503   0.484 -1.2334  0.6904  0.1906
18004TIP3    H275504   6.116   0.573   0.618 -1.5778  0.5494  0.2845
18005TIP3   OH275505   0.280   4.516   1.370  0.0297 -0.3747 -0.0702
18005TIP3    H175506   0.287   4.497   1.277 -0.8528 -2.0381  0.1916
18005TIP3    H275507   0.220   4.590   1.376  2.3673  1.6906 -0.9978
18006TIP3   OH275508   6.725   1.842  13.698 -0.5331 -0.5579  0.3074
18006TIP3    H175509   6.674   1.823  13.619  0.6669 -0.7229 -0.4391
18006TIP3    H275510   6.759   1.931  13.685  0.8276 -1.1099 -0.0113
18007TIP3   OH275511   4.905   6.356  14.254 -0.3797  0.5466 -0.5532
18007TIP3    H175512   4.816   6.385  14.232 -0.2675  0.4037 -1.2140
18007TIP3    H275513   4.910   6.266  14.222 -0.2627  0.2737  0.2279
18008TIP3   OH275514   5.839   2.383   0.100  0.1651 -0.1055 -0.3448
18008TIP3    H175515   5.798   2.358   0.183  0.1814  1.2612  0.0922
18008TIP3    H275516   5.766   2.416   0.046  0.6134  2.1402  0.3599
18009TIP3   OH275517   3.719   1.194   0.561 -0.8223  0.1602 -0.2099
18009TIP3    H175518   3.657   1.122   0.575 -1.4523  0.9289  1.0714
18009TIP3    H275519   3.795   1.152   0.521 -1.1940 -1.2273  0.4827
18010TIP3   OH275520   5.727   1.705  13.097 -0.1279  0.3890 -0.0964
18010TIP3    H175521   5.775   1.731  13.019 -0.8073 -0.7600 -0.8997
18010TIP3    H275522   5.715   1.611  13.088 -1.0140  0.3893  0.9615
18011TIP3   OH275523   4.875   2.336  16.592  0.4784  0.2551  0.6106
18011TIP3    H175524   4.789   2.377  16.605  0.2264 -0.4297  1.1126
18011TIP3    H275525   4.867   2.291  16.508  0.1055 -0.3924  0.9825
18012TIP3   OH275526   3.605   6.671   3.542 -0.2893 -0.2970  0.0389
18012TIP3    H175527   3.651   6.636   3.466  0.7256 -0.0195  0.5184
18012TIP3    H275528   3.559   6.748   3.508 -1.5248 -1.3607 -0.7377
18013TIP3   OH275529   4.920   6.273   3.260 -0.2902  0.0552  0.2208
18013TIP3    H175530   4.983   6.240   3.196 -0.6083 -0.1950  0.0381
18013TIP3    H275531   4.967   6.343   3.306 -0.1638  0.4484 -0.4982
18014TIP3   OH275532   2.189   5.875   3.506  0.5500 -0.4213  0.5209
18014TIP3    H175533   2.237   5.881   3.589  1.4695  0.1085 -0.0404
18014TIP3    H275534   2.255   5.890   3.439 -0.4411  0.5319 -0.2605
18015TIP3   OH275535   3.587   5.674   1.434 -0.2206  0.0363  1.1017
18015TIP3    H175536   3.499   5.685   1.471 -0.7460  1.8055 -0.5628
18015TIP3    H275537   3.574   5.618   1.358 -0.0016  0.7032  0.5646
18016TIP3   OH275538   1.444   4.996   0.031  0.2114  0.2140  0.0361
18016TIP3    H175539   1.476   5.074  -0.015 -0.8318  1.0661  0.6997
18016TIP3    H275540   1.359   5.024   0.067 -0.0709 -1.1717  0.4621
18017TIP3   OH275541   6.637   3.639   1.217  0.5168 -0.7160  0.0771
18017TIP3    H175542   6.543   3.629   1.231  0.6574  0.2721  1.8277
18017TIP3    H275543   6.647   3.639   1.122 -1.4184  0.6062 -0.1449
18018TIP3   OH275544   2.560   6.101  12.119  0.5697  0.2862  0.3950
18018TIP3    H175545   2.465   6.092  12.110  0.8335 -2.3079 -0.2024
18018TIP3    H275546   2.589   6.139  12.036  0.1810  0.0414  0.1485
18019TIP3   OH275547   4.809   1.663   1.966 -0.0243 -0.5596 -0.3105
18019TIP3    H175548   4.725   1.659   1.920  0.5411  0.6956 -1.4983
18019TIP3    H275549   4.874   1.668   1.895  0.9919 -0.6214  0.6117
18020TIP3   OH275550   1.903   0.302   5.323  0.2106 -0.1933  0.0876
18020TIP3    H175551   1.983   0.304   5.376  1.1865 -0.7978 -1.3204
18020TIP3    H275552   1.900   0.213   5.288 -1.4364 -0.3770  0.6229
18021TIP3   OH275553   3.307   2.625  16.779 -0.2247  0.0542  0.9355
18021TIP3    H175554   3.340   2.612  16.868 -0.2119  0.5449  1.0047
18021TIP3    H275555   3.376   2.591  16.723  1.0972  2.4536  1.0272
18022TIP3   OH275556   3.973   2.244  16.383 -0.2062 -0.2308 -0.8092
18022TIP3    H175557   3.969   2.315  16.318 -0.6697  0.7979  0.3172
18022TIP3    H275558   4.067   2.228  16.395 -0.1270 -1.3916 -2.7342
18023TIP3   OH275559   0.172   0.335  14.453 -0.2863  0.5379  0.3389
18023TIP3    H175560   0.234   0.262  14.451  0.1565  0.8794  1.2459
18023TIP3    H275561   0.160   0.359  14.361  2.0164  1.3599  0.2046
18024TIP3   OH275562   4.333   0.373   6.411 -0.0572  0.3714  0.1821
18024TIP3    H175563   4.322   0.352   6.319 -1.9945 -2.1769  0.9161
18024TIP3    H275564   4.427   0.362   6.428  0.4793  1.9429 -1.7000
18025TIP3   OH275565   6.078   0.500  10.461 -0.8640  0.5761  0.3333
18025TIP3    H175566   6.113   0.589  10.469  1.3432 -0.2791  0.6744
18025TIP3    H275567   6.142   0.454  10.407 -0.8833 -1.3313  1.8607
18026TIP3   OH275568   4.448   2.348  14.099  0.1269  0.1063 -0.4253
18026TIP3    H175569   4.396   2.364  14.178 -0.0680  1.9829 -0.9153
18026TIP3    H275570   4.431   2.256  14.078 -1.8964  0.3032  0.2138
18027TIP3   OH275571   2.680   4.218   4.274 -0.5449  0.5010 -0.1967
18027TIP3    H175572   2.748   4.181   4.217 -0.1858  0.6928  0.0985
18027TIP3    H275573   2.616   4.255   4.214 -1.8782 -2.2649 -0.5318
18028TIP3   OH275574   0.461   1.846  14.157  0.5198  0.5754 -0.0740
18028TIP3    H175575   0.415   1.793  14.092  0.5983  1.7228 -1.0750
18028TIP3    H275576   0.399   1.855  14.229 -0.0250  0.3365 -0.5089
18029TIP3   OH275577   6.353   1.083  11.677 -0.0303  0.0918 -0.4782
18029TIP3    H175578   6.319   1.014  11.621 -0.2231 -0.6859  0.5933
18029TIP3    H275579   6.283   1.101  11.740  0.4038  0.5523 -0.1156
18030TIP3   OH275580   1.218   4.629  13.644 -0.1269 -0.3730  0.1338
18030TIP3    H175581   1.150   4.593  13.587  0.1414  2.3932 -2.0352
18030TIP3    H275582   1.239   4.714  13.606  1.8327  0.5031  2.9869
18031TIP3   OH275583   0.545   3.928  11.158 -0.0438 -0.4243  0.0693
18031TIP3    H175584   0.620   3.877  11.128 -0.6964 -0.4683 -1.5201
18031TIP3    H275585   0.550   3.924  11.254  2.7694  0.7343  0.0210
18032TIP3   OH275586   3.530   0.342  13.971 -0.0154 -0.2065  0.4086
18032TIP3    H175587   3.581   0.409  13.925  0.9941 -0.8360  0.6086
18032TIP3    H275588   3.494   0.388  14.047 -2.2651  1.0259 -1.3318
18033TIP3   OH275589   4.042   5.838  13.261  0.7240  0.1014 -0.1974
18033TIP3    H175590   4.034   5.743  13.256  0.2697  0.2098 -1.9847
18033TIP3    H275591   4.072   5.864  13.174  1.9077  1.4946  0.6090
18034TIP3   OH275592   1.304   1.381   3.621  0.3432 -0.0974 -0.2886
18034TIP3    H175593   1.264   1.403   3.706 -0.1179  0.2729 -0.5991
18034TIP3    H275594   1.264   1.297   3.597  1.8729 -1.1562  0.7489
18035TIP3   OH275595   5.711   4.251   2.269 -0.8681 -0.4956  0.0810
18035TIP3    H175596   5.717   4.162   2.237  0.0763 -0.8046  1.0727
18035TIP3    H275597   5.774   4.300   2.217 -1.7365 -0.2959 -0.7963
18036TIP3   OH275598   5.826   5.309  13.685  0.2488 -0.1019 -0.6144
18036TIP3    H175599   5.825   5.217  13.709 -2.0766  0.0253 -0.1168
18036TIP3    H275600   5.796   5.355  13.763  1.5936  1.1055 -0.7900
18037TIP3   OH275601   0.004   0.836  16.812 -0.1119  0.3994 -0.3193
18037TIP3    H175602  -0.052   0.872  16.743 -1.7028 -1.9058 -0.2971
18037TIP3    H275603  -0.017   0.742  16.813  4.4319 -0.7461 -0.9446
18038TIP3   OH275604   4.412   4.966  17.036 -0.7569  0.5529  0.0235
18038TIP3    H175605   4.450   5.033  17.094 -1.4933  0.6300  0.4119
18038TIP3    H275606   4.399   5.012  16.953  1.5507  0.0948 -0.6435
18039TIP3   OH275607   6.518   5.354   5.377 -0.1063  0.1985 -0.4164
18039TIP3    H175608   6.578   5.410   5.426 -0.4778 -1.2319  1.7054
18039TIP3    H275609   6.569   5.326   5.301  1.0700  1.0070  0.0610
18040TIP3   OH275610   3.038   4.003  12.858 -0.3261  0.6239 -0.5973
18040TIP3    H175611   3.037   3.914  12.823  0.4393  0.1644  0.5056
18040TIP3    H275612   3.018   3.992  12.951  1.4620  1.4079 -0.0952
18041TIP3   OH275613   0.020   3.978  13.424  0.0567 -0.8247  0.4058
18041TIP3    H175614  -0.060   4.024  13.450 -0.3849  0.3972 -2.8248
18041TIP3    H275615  -0.011   3.899  13.380  0.4567  0.5065 -2.4351
18042TIP3   OH275616   6.207   4.306  13.958 -0.2152 -0.1639  0.4081
18042TIP3    H175617   6.165   4.225  13.988 -0.1552 -0.0691  0.7515
18042TIP3    H275618   6.135   4.357  13.921 -0.2437 -0.3997  0.1415
18043TIP3   OH275619   1.120   2.941  16.545  0.2766  0.2297  0.9924
18043TIP3    H175620   1.169   2.859  16.540 -0.3154 -0.1258  0.9786
18043TIP3    H275621   1.167   3.001  16.487 -0.4985 -0.7416 -0.6647
18044TIP3   OH275622   2.350   6.340  16.392  0.0137  0.2773  0.5707
18044TIP3    H175623   2.355   6.409  16.327  1.6405 -0.0801  0.3012
18044TIP3    H275624   2.279   6.283  16.361 -0.0405  0.7727 -0.2215
18045TIP3   OH275625   1.995   3.753   1.690  0.5458 -0.1026  0.0789
18045TIP3    H175626   2.052   3.793   1.624 -0.8818 -0.0958 -1.1682
18045TIP3    H275627   2.029   3.786   1.774  1.0067  1.6418 -0.7750
18046TIP3   OH275628   2.492   2.921   1.376  0.1532  0.3455 -0.3106
18046TIP3    H175629   2.407   2.950   1.343 -1.5909 -1.8426  2.1026
18046TIP3    H275630   2.542   3.002   1.388 -1.5416  1.6474 -1.8065
18047TIP3   OH275631   6.196   5.893  14.654  0.0404  0.1814 -0.0309
18047TIP3    H175632   6.107   5.922  14.636 -0.2555 -0.2559  0.7207
18047TIP3    H275633   6.236   5.966  14.701 -0.2613 -0.0637  0.6026
18048TIP3   OH275634   6.351   0.089   2.547 -0.2888  0.0022 -0.0982
18048TIP3    H175635   6.386   0.014   2.595  3.0403  0.9793 -0.9016
18048TIP3    H275636   6.275   0.053   2.499 -0.5640 -2.1302  1.8231
18049TIP3   OH275637   6.621   5.223   4.085  0.0609 -0.6833 -0.1973
18049TIP3    H175638   6.633   5.205   3.992 -3.1192 -0.8150 -0.6508
18049TIP3    H275639   6.577   5.145   4.119 -1.4200  0.5406  0.7600
18050TIP3   OH275640   5.198   4.213  15.604 -0.1068  0.8680  0.0226
18050TIP3    H175641   5.154   4.135  15.569  1.4928 -0.3465  0.6514
18050TIP3    H275642   5.180   4.281  15.539 -0.3190 -0.3975 -1.2921
18051TIP3   OH275643   5.762   2.021   3.570 -0.5052  0.1667 -0.2593
18051TIP3    H175644   5.761   2.045   3.662  0.4284  0.1709 -0.2435
18051TIP3    H275645   5.790   1.929   3.569 -1.0276  0.0074 -0.5079
18052TIP3   OH275646   2.151   6.751  12.980 -0.0255 -0.1660 -0.0966
18052TIP3    H175647   2.169   6.696  12.905 -0.7209 -1.7453  0.8781
18052TIP3    H275648   2.118   6.833  12.942 -1.5305 -1.3791 -1.4691
18053TIP3   OH275649   0.137   1.975   3.750  0.2643 -0.4148 -0.3976
18053TIP3    H175650   0.177   1.985   3.664 -0.7348  2.3063 -0.6078
18053TIP3    H275651   0.064   1.915   3.735  0.8844 -0.9900 -1.1721
18054TIP3   OH275652   0.352   4.367  10.235  0.1807 -0.1416  0.2763
18054TIP3    H175653   0.315   4.401  10.316  0.6046  3.1601 -0.8520
18054TIP3    H275654   0.395   4.442  10.195  0.7985 -1.9388 -2.5481
18055TIP3   OH275655   2.882   1.477   5.846  0.0841 -0.2417  0.6839
18055TIP3    H175656   2.947   1.408   5.858 -1.0155 -1.5675 -0.7205
18055TIP3    H275657   2.810   1.434   5.799 -0.5345  1.9040 -0.4085
18056TIP3   OH275658   3.219   3.293   4.803  0.1029 -0.1912 -0.4561
18056TIP3    H175659   3.212   3.388   4.814 -0.5559 -0.1895 -0.8441
18056TIP3    H275660   3.168   3.257   4.875  0.1289 -0.2497 -0.4677
18057TIP3   OH275661   4.665   5.726   5.566 -0.2823  0.1307  0.2942
18057TIP3    H175662   4.680   5.645   5.615 -0.5955  0.1758  0.4645
18057TIP3    H275663   4.681   5.796   5.630 -0.5797  0.1919  0.2991
18058TIP3   OH275664   6.253   0.969   4.622  0.1684 -0.5394 -0.0257
18058TIP3    H175665   6.287   0.881   4.606  1.6357 -0.1196  0.7101
18058TIP3    H275666   6.275   0.988   4.713  0.8296  0.9948 -0.4762
18059TIP3   OH275667   2.071   2.979   0.126  0.7884 -0.3529 -0.0183
18059TIP3    H175668   2.115   2.897   0.151 -1.4291 -1.2451  1.1421
18059TIP3    H275669   2.048   2.966   0.034 -0.4230 -1.4871  0.4168
18060TIP3   OH275670   1.501   0.398  16.390 -0.1040  0.0286 -0.0085
18060TIP3    H175671   1.460   0.480  16.366 -0.5069 -0.4104 -0.8470
18060TIP3    H275672   1.595   0.415  16.382 -0.1293  0.8166  1.2098
18061TIP3   OH275673   5.757   3.267   5.165 -0.2444 -0.1255  0.3765
18061TIP3    H175674   5.694   3.305   5.226  0.1249 -1.4728  1.6599
18061TIP3    H275675   5.704   3.232   5.094 -0.8556 -0.1399  0.8328
18062TIP3   OH275676   0.677   3.103   5.969 -1.0780  0.4700  0.2993
18062TIP3    H175677   0.679   3.065   6.057  1.0373 -0.1398  0.0231
18062TIP3    H275678   0.732   3.180   5.974 -0.5995  0.1945 -0.5976
18063TIP3   OH275679   1.761   1.788  13.552 -0.4361 -0.0075  0.2291
18063TIP3    H175680   1.787   1.717  13.611 -2.3936 -3.0421 -2.3663
18063TIP3    H275681   1.834   1.795  13.490 -0.0582  0.5415  0.7355
18064TIP3   OH275682   2.058   2.403   2.230 -0.7922 -0.2964 -0.4318
18064TIP3    H175683   2.064   2.417   2.136  0.0593  0.7473 -0.2391
18064TIP3    H275684   2.010   2.321   2.240 -0.9297 -0.3827 -1.7673
18065TIP3   OH275685   0.884   3.693   5.425 -0.0611 -0.0919  0.1918
18065TIP3    H175686   0.811   3.731   5.376 -0.2635  1.2650  1.5162
18065TIP3    H275687   0.936   3.647   5.359 -0.1396  1.9842 -1.3588
18066TIP3   OH275688   0.421   3.444   5.148  0.1831  0.6208 -0.2234
18066TIP3    H175689   0.408   3.518   5.089 -0.0563  0.7788  0.0261
18066TIP3    H275690   0.500   3.465   5.197  0.8330  0.1144 -1.0554
18067TIP3   OH275691   3.046   0.016  17.074 -0.3422  0.0078  0.3918
18067TIP3    H175692   2.951   0.026  17.069 -0.2816  0.4521  0.1193
18067TIP3    H275693   3.062  -0.073  17.043 -0.5500  0.4364 -0.9816
18068TIP3   OH275694   2.445   6.795  16.094  0.0636 -0.2506 -0.0962
18068TIP3    H175695   2.518   6.842  16.133  0.0649  0.1806 -0.6021
18068TIP3    H275696   2.378   6.863  16.080 -0.1593 -0.5066 -0.2862
18069TIP3   OH275697   0.093   1.936  12.246  0.3943 -0.2206  0.8041
18069TIP3    H175698   0.111   1.864  12.186 -2.1228  0.2586 -0.6118
18069TIP3    H275699   0.002   1.921  12.274  0.2107  1.7684  1.3499
18070TIP3   OH275700   3.572   6.518  12.578  0.5417  0.3910 -0.3493
18070TIP3    H175701   3.565   6.511  12.483 -1.4102 -1.8337 -0.0888
18070TIP3    H275702   3.490   6.558  12.606 -0.3175 -1.9579  0.6228
18071TIP3   OH275703   5.998   1.136   0.199  0.4543 -0.2237 -0.1239
18071TIP3    H175704   6.054   1.179   0.263 -1.0349 -1.4725  2.0875
18071TIP3    H275705   5.921   1.193   0.193 -0.0699 -0.8624  0.3584
18072TIP3   OH275706   4.356   4.672  15.881  0.4062 -0.6408  0.4017
18072TIP3    H175707   4.285   4.609  15.895 -1.8479  1.7265 -0.1735
18072TIP3    H275708   4.327   4.725  15.807  2.2540  1.1409  0.9325
18073TIP3   OH275709   0.024   5.884  16.585  0.2272  0.2715 -0.5133
18073TIP3    H175710   0.048   5.793  16.605  2.4226  1.0627  0.6384
18073TIP3    H275711  -0.063   5.894  16.622 -0.5174 -1.6788 -1.6294
18074TIP3   OH275712   1.857   1.414   0.893 -0.5155 -0.0403  0.1807
18074TIP3    H175713   1.835   1.334   0.941 -0.7791  0.2587  0.5577
18074TIP3    H275714   1.950   1.428   0.912 -0.3502 -0.5077 -0.2568
18075TIP3   OH275715   0.890   0.270  14.809  0.5524  0.3121 -0.0200
18075TIP3    H175716   0.864   0.249  14.719 -2.1776  2.2062  0.2697
18075TIP3    H275717   0.853   0.200  14.862 -0.3056  0.7158 -0.0777
18076TIP3   OH275718   4.365   2.514   3.861 -0.4103  0.2891 -0.0057
18076TIP3    H175719   4.307   2.589   3.861 -0.0310  0.5828 -0.0884
18076TIP3    H275720   4.360   2.480   3.951  0.1670  0.9918  0.2966
18077TIP3   OH275721   2.668   6.532  11.223  0.3844  0.3477  0.3830
18077TIP3    H175722   2.733   6.603  11.224  2.2537 -1.3273 -0.3166
18077TIP3    H275723   2.708   6.464  11.169 -1.8493 -0.8413  0.1811
18078TIP3   OH275724   2.636   6.654   3.444  0.2295  0.2878  0.4264
18078TIP3    H175725   2.586   6.589   3.395  1.7161 -0.7708  0.2644
18078TIP3    H275726   2.716   6.666   3.392  1.0910  0.3718  1.7576
18079TIP3   OH275727   1.103   0.332   6.592 -0.0710 -0.5491 -0.1152
18079TIP3    H175728   1.175   0.358   6.650  0.3461  0.7927 -1.1976
18079TIP3    H275729   1.133   0.250   6.552  1.2154  0.3973 -1.1485
18080TIP3   OH275730   2.479   6.820   5.193  0.4519  0.4580 -0.6086
18080TIP3    H175731   2.458   6.765   5.117 -2.0412 -2.8549  2.3088
18080TIP3    H275732   2.397   6.865   5.213  0.4624 -0.3732  1.3956
18081TIP3   OH275733   0.690   3.929  13.463  0.7114  0.0083 -0.1242
18081TIP3    H175734   0.767   3.978  13.431 -0.0713  1.5231  0.2396
18081TIP3    H275735   0.711   3.909  13.554  0.7655  0.2496 -0.0825
18082TIP3   OH275736   1.327   0.640   1.790  0.6752 -0.4661 -0.2154
18082TIP3    H175737   1.392   0.670   1.726  0.8885 -1.3456 -0.4208
18082TIP3    H275738   1.281   0.569   1.745 -0.2259 -0.0594  0.0465
18083TIP3   OH275739   2.448   4.546  12.631  0.2163  0.2052 -0.0215
18083TIP3    H175740   2.506   4.586  12.566  0.1524  0.1919 -0.0871
18083TIP3    H275741   2.481   4.576  12.715  0.5344 -0.0945 -0.0405
18084TIP3   OH275742   1.280   5.112   4.740  0.7221 -0.2941  0.5076
18084TIP3    H175743   1.303   5.070   4.823  0.3883  0.8562  1.2074
18084TIP3    H275744   1.247   5.042   4.685  0.4139 -0.9819  1.5603
18085TIP3   OH275745   5.981   5.211  14.600  0.1137  0.3931 -0.3563
18085TIP3    H175746   6.075   5.210  14.619 -0.0431 -1.2916  0.3946
18085TIP3    H275747   5.974   5.254  14.515  1.6134  0.1711 -0.6029
18086TIP3   OH275748   2.941   1.676  17.075  0.1264  0.3496 -0.4371
18086TIP3    H175749   2.958   1.679  16.981 -0.7851  0.7024 -0.6018
18086TIP3    H275750   2.927   1.767  17.100  2.3814  0.4929  0.4485
18087TIP3   OH275751   1.880   6.686  15.279 -0.1894  0.7028  0.2040
18087TIP3    H175752   1.885   6.614  15.343  0.5451  0.7362  0.1837
18087TIP3    H275753   1.903   6.764  15.329  1.5205  0.5757 -0.3529
18088TIP3   OH275754   4.567   1.827  16.682 -0.1669 -0.3117 -0.3208
18088TIP3    H175755   4.616   1.794  16.607  0.6985  1.7185 -0.6635
18088TIP3    H275756   4.615   1.791  16.758 -0.3626 -1.4043 -0.7025
18089TIP3   OH275757   0.049   0.445   2.164  0.2561 -0.0945 -0.3815
18089TIP3    H175758   0.018   0.523   2.209  1.7598  1.0300 -1.2446
18089TIP3    H275759   0.130   0.421   2.210  0.3879 -0.4785 -0.8101
18090TIP3   OH275760   6.706   1.544   4.919 -0.5048 -0.4227 -0.3905
18090TIP3    H175761   6.766   1.470   4.914 -1.4492 -1.1770 -0.6360
18090TIP3    H275762   6.625   1.507   4.954 -0.7861  0.6122  0.0796
18091TIP3   OH275763   1.103   2.681  14.631 -0.5402 -0.6337  0.2223
18091TIP3    H175764   1.023   2.629  14.622  0.3623 -2.2707  1.3777
18091TIP3    H275765   1.138   2.657  14.717  1.1209  0.1544 -0.2103
18092TIP3   OH275766   3.119   6.544  16.700 -0.2392 -0.9131  0.4451
18092TIP3    H175767   3.210   6.566  16.679 -1.2864  1.8282 -1.5342
18092TIP3    H275768   3.083   6.512  16.617 -1.1884 -1.7003  1.1465
18093TIP3   OH275769   4.555   4.255   5.174  0.1651 -0.0878  0.5680
18093TIP3    H175770   4.551   4.195   5.100  0.9350 -0.9941  1.2460
18093TIP3    H275771   4.502   4.214   5.242  0.8751 -0.1279  1.1103
18094TIP3   OH275772   0.587   6.265  13.360 -0.1001 -0.6045  0.0819
18094TIP3    H175773   0.666   6.292  13.407 -0.3622 -1.9041  1.3206
18094TIP3    H275774   0.573   6.333  13.294  0.6928  0.9032  1.4365
18095TIP3   OH275775   2.654   6.480  12.789  0.7897  0.5252  0.2678
18095TIP3    H175776   2.581   6.529  12.825  1.8707  2.8789 -0.6308
18095TIP3    H275777   2.618   6.434  12.713  0.1718  1.3838  0.0419
18096TIP3   OH275778   1.896   6.063   1.814 -0.2177 -0.1248 -0.2639
18096TIP3    H175779   1.893   6.132   1.748 -0.0567 -0.4994 -0.6679
18096TIP3    H275780   1.806   6.057   1.846 -0.7619 -1.3629 -1.9493
18097TIP3   OH275781   2.705   5.752  16.809 -0.1044 -0.2422  0.0851
18097TIP3    H175782   2.664   5.829  16.848  0.0481 -0.9069  1.5840
18097TIP3    H275783   2.641   5.682  16.822  0.3066 -0.6519 -0.0941
18098TIP3   OH275784   4.145   0.832   6.161 -0.1665  0.5812 -0.5256
18098TIP3    H175785   4.210   0.874   6.218  0.1087 -1.1090  0.4144
18098TIP3    H275786   4.148   0.740   6.184 -0.5720 -0.0336 -2.7851
18099TIP3   OH275787   4.822   6.181   1.270 -0.3925 -0.6333 -0.3602
18099TIP3    H175788   4.887   6.219   1.210  2.1876  1.2591  3.3967
18099TIP3    H275789   4.740   6.225   1.247  0.6185  0.3696 -2.2033
18100TIP3   OH275790   3.106   6.093   1.910  0.0911  0.6953 -0.2108
18100TIP3    H175791   3.172   6.094   1.841  0.8497  3.8605  0.4651
18100TIP3    H275792   3.121   6.011   1.957  2.1284  0.3483 -1.4076
18101TIP3   OH275793   5.971   1.503   4.586  0.3040  0.0761 -0.2542
18101TIP3    H175794   6.039   1.513   4.519  0.6975 -1.0615 -0.0408
18101TIP3    H275795   6.000   1.428   4.638 -0.5107  0.3316  0.5769
18102TIP3   OH275796   1.819   2.080   3.370  0.1651  0.2723  0.4530
18102TIP3    H175797   1.913   2.061   3.364 -0.2474 -1.8580  0.4228
18102TIP3    H275798   1.788   2.073   3.279 -0.0742  0.6733  0.5061
18103TIP3   OH275799   5.272   2.648  15.356  0.0877 -0.7441 -0.1621
18103TIP3    H175800   5.308   2.596  15.428 -1.2510 -1.5523 -0.0664
18103TIP3    H275801   5.182   2.666  15.383 -0.3092 -0.7594 -1.4723
18104TIP3   OH275802   3.702   3.697  16.660 -0.5176  0.8460 -0.5337
18104TIP3    H175803   3.732   3.768  16.604 -1.6479  1.1748 -0.7455
18104TIP3    H275804   3.613   3.678  16.629 -0.9296  0.6231  0.7339
18105TIP3   OH275805   4.989   3.844   5.481  0.0756  0.3807 -0.1848
18105TIP3    H175806   5.049   3.776   5.450 -1.7768 -1.2503 -0.3209
18105TIP3    H275807   4.995   3.913   5.415 -0.0936 -0.8741 -1.5504
18106TIP3   OH275808   4.050   3.178   3.732 -0.1229  0.0098 -0.4836
18106TIP3    H175809   4.039   3.180   3.827 -0.7018  1.1991 -0.5688
18106TIP3    H275810   4.066   3.086   3.712 -2.0167 -0.5702  0.5465
18107TIP3   OH275811   6.556   5.415   2.650 -0.2549 -0.2511  0.4281
18107TIP3    H175812   6.636   5.403   2.701  1.5471  1.4736 -1.8892
18107TIP3    H275813   6.517   5.495   2.684  0.1039  0.0192  0.2108
18108TIP3   OH275814   4.523   4.794   4.529 -0.0275 -0.2647 -0.6940
18108TIP3    H175815   4.617   4.799   4.547  0.1753  0.2981 -1.8915
18108TIP3    H275816   4.483   4.847   4.598  0.5187 -0.6224 -0.0905
18109TIP3   OH275817   6.352   0.847  15.060 -0.4268 -0.7722 -0.6806
18109TIP3    H175818   6.381   0.910  15.126  0.2151 -2.8936  1.0975
18109TIP3    H275819   6.380   0.885  14.977  0.6384  0.9110  0.4151
18110TIP3   OH275820   0.667   3.283   3.200  0.3459 -0.5469  0.2253
18110TIP3    H175821   0.717   3.209   3.165 -0.2804 -0.3703 -1.0840
18110TIP3    H275822   0.679   3.278   3.295  0.2958 -2.3497  0.1501
18111TIP3   OH275823   0.113   4.475  16.190  0.1835 -0.0499  0.8038
18111TIP3    H175824   0.026   4.464  16.228 -0.4967  1.3140 -0.2853
18111TIP3    H275825   0.174   4.452  16.260 -1.0460  0.1154  1.9341
18112TIP3   OH275826   0.614   0.779   0.524 -0.0814 -0.4349  0.3585
18112TIP3    H175827   0.674   0.724   0.573 -0.8294 -1.6699 -0.0872
18112TIP3    H275828   0.550   0.718   0.487 -0.6291  0.6765 -0.5617
18113TIP3   OH275829   4.910   0.034   5.132  0.3586  0.4240 -0.1558
18113TIP3    H175830   4.905   0.027   5.036 -0.8662 -0.0860 -0.0661
18113TIP3    H275831   4.909  -0.057   5.163 -2.7003  0.5953  0.4645
18114TIP3   OH275832   3.426   3.149   2.638 -0.1139 -0.4854 -0.9797
18114TIP3    H175833   3.397   3.125   2.550 -0.1932 -1.9815 -0.5489
18114TIP3    H275834   3.498   3.089   2.657 -0.3363 -0.4146  0.1150
18115TIP3   OH275835   1.307   5.428   2.337 -0.0343 -0.7041  0.3572
18115TIP3    H175836   1.379   5.486   2.314 -0.4393 -0.4387 -0.2929
18115TIP3    H275837   1.302   5.430   2.432  0.5896 -0.4515  0.3812
18116TIP3   OH275838   2.808   1.845  14.997  0.2727  0.0183 -0.2201
18116TIP3    H175839   2.775   1.780  14.935 -0.1104  1.0140 -1.0728
18116TIP3    H275840   2.754   1.923  14.982 -0.3467  0.0437  1.8936
18117TIP3   OH275841   3.603   5.664  13.474 -0.1204 -0.1163  0.0936
18117TIP3    H175842   3.596   5.597  13.406 -0.0014  1.3996 -1.4385
18117TIP3    H275843   3.658   5.623  13.542  2.3801 -0.5657 -2.0923
18118TIP3   OH275844   5.340   2.943   1.297  0.3603  0.4801 -0.4914
18118TIP3    H175845   5.254   2.902   1.307 -0.1695  1.4560 -1.0096
18118TIP3    H275846   5.402   2.876   1.328 -0.5936 -0.1258  0.1352
18119TIP3   OH275847   6.239   2.363   4.991  0.0133  0.6751  0.0484
18119TIP3    H175848   6.300   2.397   4.926 -0.2585  1.0770  0.0013
18119TIP3    H275849   6.152   2.380   4.954 -0.1247 -0.1231  0.0012
18120TIP3   OH275850   1.756   2.596  13.763  0.3979 -0.3780  0.1723
18120TIP3    H175851   1.672   2.616  13.722  1.4642  0.6385 -1.5812
18120TIP3    H275852   1.787   2.518  13.718  0.0473 -1.2026  1.3481
18121TIP3   OH275853   3.022   1.248   6.101  0.2250  0.9200  0.1907
18121TIP3    H175854   2.992   1.292   6.181 -1.6412  0.0573 -0.0185
18121TIP3    H275855   3.052   1.163   6.131 -1.5761  0.1447 -0.1664
18122TIP3   OH275856   3.853   2.395  14.452  0.1630  0.0630  0.2886
18122TIP3    H175857   3.887   2.324  14.398  1.6273 -0.1138  1.4112
18122TIP3    H275858   3.874   2.474  14.403  1.1116 -0.1221  0.3720
18123TIP3   OH275859   3.711   0.022  16.439 -0.3066  0.1623 -0.1683
18123TIP3    H175860   3.694  -0.023  16.522  1.5188 -0.0065  0.1413
18123TIP3    H275861   3.732  -0.048  16.377 -1.5187  0.3006 -0.7525
18124TIP3   OH275862   6.115   5.784   6.112  0.1619  0.2192  0.3191
18124TIP3    H175863   6.134   5.872   6.079  2.9241 -0.0508  1.0804
18124TIP3    H275864   6.150   5.783   6.201 -0.1372 -1.5634  0.4387
18125TIP3   OH275865   5.210   2.796   5.583  0.5982  0.4618 -0.4148
18125TIP3    H175866   5.159   2.873   5.557 -0.4081 -0.7492 -2.1437
18125TIP3    H275867   5.172   2.769   5.667 -0.3475  0.6980 -0.7643
18126TIP3   OH275868   6.713   4.348  11.930 -0.0625 -0.3834  0.7374
18126TIP3    H175869   6.709   4.296  12.010 -1.2615  1.3338  1.8332
18126TIP3    H275870   6.654   4.303  11.869 -1.8010  0.1451  1.9783
18127TIP3   OH275871   0.168   0.520   3.503 -0.2889 -0.0529  0.3064
18127TIP3    H175872   0.178   0.511   3.408 -0.2033  1.3107  0.1722
18127TIP3    H275873   0.080   0.558   3.514 -1.2446 -2.3327  0.9144
18128TIP3   OH275874   6.535   1.009   0.588 -0.2349 -0.1005  0.2086
18128TIP3    H175875   6.581   0.990   0.670  0.7812 -0.9023 -0.5290
18128TIP3    H275876   6.597   1.061   0.537 -1.1677  1.0852  0.2626
18129TIP3   OH275877   5.332   6.377  14.269  0.0721 -0.0887  0.2729
18129TIP3    H175878   5.426   6.359  14.257  0.2266  0.7808  0.0814
18129TIP3    H275879   5.289   6.294  14.252  0.6879 -0.1020 -1.3847
18130TIP3   OH275880   6.057   0.227  12.956 -0.0995 -0.0024 -0.4574
18130TIP3    H175881   6.029   0.273  13.035  1.0471 -0.0177 -0.0351
18130TIP3    H275882   5.978   0.221  12.903 -0.9624 -0.3197  0.8413
18131TIP3   OH275883   6.449   3.808  13.049 -0.0732 -0.5380  0.2464
18131TIP3    H175884   6.367   3.787  13.095 -0.6560  0.2930 -0.3962
18131TIP3    H275885   6.505   3.847  13.117 -0.3750 -0.6866  0.5835
18132TIP3   OH275886   1.337   2.277  15.086  0.1112  1.0157  0.7453
18132TIP3    H175887   1.404   2.328  15.040 -0.5927  1.3563  0.0830
18132TIP3    H275888   1.358   2.186  15.066 -0.4794  1.1774 -0.6752
18133TIP3   OH275889   0.987   1.639  15.216  0.1352  0.3440  0.2623
18133TIP3    H175890   0.988   1.567  15.153 -0.8465 -0.5051  1.1789
18133TIP3    H275891   0.993   1.718  15.163 -0.9403 -0.3486 -0.9246
18134TIP3   OH275892   1.213   3.852   5.143 -0.6733 -0.0033  0.1269
18134TIP3    H175893   1.175   3.785   5.087 -0.7685  0.9906 -1.0130
18134TIP3    H275894   1.145   3.919   5.150 -1.1661 -0.7052  2.5105
18135TIP3   OH275895   4.840   4.550  16.853  0.3867 -0.1907 -0.4751
18135TIP3    H175896   4.908   4.563  16.920 -0.8067 -1.5544  1.0496
18135TIP3    H275897   4.880   4.583  16.773  2.1581  0.7695  0.7454
18136TIP3   OH275898   1.304   3.286  13.981 -0.9187 -0.5621  0.1835
18136TIP3    H175899   1.358   3.353  14.023 -1.7233 -1.1836  2.2401
18136TIP3    H275900   1.366   3.233  13.931  0.2007 -0.3855  1.3502
18137TIP3   OH275901   6.509   0.746   0.513 -0.3561 -0.0713  0.1805
18137TIP3    H175902   6.523   0.840   0.500  0.4254 -0.1618  0.3723
18137TIP3    H275903   6.430   0.726   0.462  0.0894  0.4713 -0.7272
18138TIP3   OH275904   5.490   4.575   4.477 -0.2688 -0.3019 -0.0949
18138TIP3    H175905   5.419   4.627   4.438  0.1148 -0.3116 -0.8145
18138TIP3    H275906   5.445   4.503   4.520 -0.7872  0.4601  0.6510
18139TIP3   OH275907   4.937   0.217  17.129 -0.6163 -0.1494  0.3218
18139TIP3    H175908   4.887   0.291  17.162  0.0102 -0.0145  0.9765
18139TIP3    H275909   5.009   0.206  17.192 -0.8813 -1.5050  0.3950
18140TIP3   OH275910   1.641   6.021  15.641 -0.0075 -0.3693 -0.4074
18140TIP3    H175911   1.724   5.986  15.608  0.3054 -0.8477  0.8813
18140TIP3    H275912   1.611   6.080  15.572  1.6538  0.2008 -0.6461
18141TIP3   OH275913   4.196   5.758  12.488  0.1612 -0.2368 -0.4358
18141TIP3    H175914   4.228   5.713  12.409  0.4970 -0.6317 -0.0734
18141TIP3    H275915   4.152   5.836  12.454 -2.4716 -2.0147 -1.2183
18142TIP3   OH275916   3.426   5.275   1.399  0.0398 -0.6031  0.3607
18142TIP3    H175917   3.495   5.342   1.394  1.7360 -2.4365 -1.9695
18142TIP3    H275918   3.350   5.321   1.435  2.2890  1.6216  2.4406
18143TIP3   OH275919   0.480   3.258   0.666 -0.1419 -0.4395 -0.2800
18143TIP3    H175920   0.520   3.200   0.730  0.1687 -0.6283 -0.6492
18143TIP3    H275921   0.386   3.249   0.682 -0.1011 -1.1664 -0.4518
18144TIP3   OH275922   0.709   6.290   4.862  0.3989 -0.3699 -0.4285
18144TIP3    H175923   0.628   6.336   4.841  1.7671  0.9385 -3.1176
18144TIP3    H275924   0.715   6.293   4.957 -2.2868  0.2368 -0.2521
18145TIP3   OH275925   0.554   2.557  15.079  0.1396 -0.4714  0.1197
18145TIP3    H175926   0.631   2.567  15.023  0.3387  0.1272  0.4913
18145TIP3    H275927   0.482   2.541  15.019  0.2834  0.5507 -0.3273
18146TIP3   OH275928   2.469   6.409  13.104  0.0191 -0.3393  0.4128
18146TIP3    H175929   2.442   6.404  13.013  2.3788 -1.8429 -0.2419
18146TIP3    H275930   2.510   6.495  13.112 -0.1986 -0.2013  0.0594
18147TIP3   OH275931   3.379   1.601   5.123 -0.0867 -0.9395 -0.2585
18147TIP3    H175932   3.403   1.582   5.214  0.5566  2.4826  0.3589
18147TIP3    H275933   3.443   1.554   5.071  0.9739 -1.0756  1.1383
18148TIP3   OH275934   2.700   2.897  14.450 -0.2337  0.4148  0.6905
18148TIP3    H175935   2.711   2.865  14.540  1.7010  0.9640  0.6806
18148TIP3    H275936   2.789   2.921  14.423 -1.2809  3.4814 -0.1771
18149TIP3   OH275937   4.644   1.893   4.550  0.3034  0.2264  0.0600
18149TIP3    H175938   4.639   1.972   4.496 -3.5720 -1.0842 -1.6749
18149TIP3    H275939   4.552   1.870   4.567  1.2827 -4.5670 -0.5212
18150TIP3   OH275940   5.530   6.414   5.290 -0.0753  0.4888  0.3855
18150TIP3    H175941   5.513   6.391   5.381 -0.5409  0.3199  0.2612
18150TIP3    H275942   5.458   6.473   5.267 -1.4490 -1.4994 -0.6333
18151TIP3   OH275943   3.586   4.059  16.544  0.5144  0.2029 -0.3848
18151TIP3    H175944   3.599   4.143  16.589 -1.0173  0.3950 -0.2797
18151TIP3    H275945   3.669   4.043  16.499  1.6858  0.5710  1.5830
18152TIP3   OH275946   1.941   2.631  16.880  0.5760  0.6230 -0.6689
18152TIP3    H175947   1.925   2.717  16.841 -0.0665  0.0515 -1.6782
18152TIP3    H275948   2.035   2.631  16.899  1.2967  0.1772 -4.0469
18153TIP3   OH275949   0.160   3.024   5.163  0.6221  0.2029  0.0095
18153TIP3    H175950   0.155   3.039   5.258  0.2226 -0.2282  0.0599
18153TIP3    H275951   0.219   3.093   5.131 -0.6971  1.5069  0.3176
18154TIP3   OH275952   0.896   6.401  15.728 -0.5075  0.0737  0.0565
18154TIP3    H175953   0.970   6.463  15.730 -1.1244  0.8761 -1.6158
18154TIP3    H275954   0.924   6.330  15.785  0.3641  1.7292  1.7764
18155TIP3   OH275955   2.132   0.098   3.332  0.1849  0.3526 -0.3249
18155TIP3    H175956   2.105   0.009   3.313  0.2691  0.4717 -1.0176
18155TIP3    H275957   2.200   0.117   3.267  0.7988  0.6143  0.3760
18156TIP3   OH275958   1.920   3.874  12.840  0.2639  0.1905 -0.2206
18156TIP3    H175959   1.888   3.787  12.862  2.4590 -0.7447 -0.5947
18156TIP3    H275960   1.926   3.919  12.924 -0.8561 -0.0056 -0.0239
18157TIP3   OH275961   0.609   0.806   4.058 -0.5542  0.3476 -0.1785
18157TIP3    H175962   0.563   0.731   4.019  0.7776 -0.9069  0.6261
18157TIP3    H275963   0.576   0.809   4.148  0.8063 -0.4508  0.3509
18158TIP3   OH275964   1.161   2.876   4.972 -0.7803  0.1573  0.1143
18158TIP3    H175965   1.167   2.897   5.065 -0.4761 -0.7479  0.2992
18158TIP3    H275966   1.215   2.943   4.929 -0.2175  0.0577  0.6602
18159TIP3   OH275967   1.865   6.006  14.624  0.3963 -0.5932  0.2306
18159TIP3    H175968   1.871   5.911  14.632  1.1859 -0.4566  1.6641
18159TIP3    H275969   1.772   6.025  14.628  0.1972 -1.3619 -0.7328
18160TIP3   OH275970   3.187   0.853   1.575 -0.3073 -0.5339  0.1652
18160TIP3    H175971   3.182   0.758   1.587  0.8629 -0.5101  1.0123
18160TIP3    H275972   3.268   0.878   1.620 -0.7759  0.9074  0.2364
18161TIP3   OH275973   6.530   5.037   0.115  0.3393 -0.2730  0.3240
18161TIP3    H175974   6.619   5.020   0.084  0.6218 -0.7760  1.3844
18161TIP3    H275975   6.529   5.006   0.206 -0.9591 -0.4055  0.2812
18162TIP3   OH275976   6.078   4.669   4.161 -0.1748  0.2687  0.1759
18162TIP3    H175977   6.140   4.676   4.089 -1.0988 -1.4839 -0.8313
18162TIP3    H275978   6.133   4.665   4.240  1.0121 -1.3160 -0.7049
18163TIP3   OH275979   3.226   3.907  11.300 -0.2120 -0.2875  0.0507
18163TIP3    H175980   3.217   3.909  11.395  0.3807 -1.0867  0.1332
18163TIP3    H275981   3.160   3.968  11.268  0.4448  0.9683  1.0314
18164TIP3   OH275982   3.955   5.303   4.090 -0.3621 -0.3592  0.1216
18164TIP3    H175983   3.944   5.277   4.181  0.3484 -2.5853 -0.3951
18164TIP3    H275984   4.044   5.336   4.084 -0.6212  0.3864  0.3657
18165TIP3   OH275985   0.722   3.059  13.703 -0.1525  0.8378  0.3356
18165TIP3    H175986   0.651   3.006  13.739  1.6677 -2.1518 -0.2897
18165TIP3    H275987   0.690   3.087  13.617 -0.4473 -0.8261 -0.1141
18166TIP3   OH275988   1.022   3.063   5.523 -0.0002  0.3417  0.4610
18166TIP3    H175989   1.085   3.075   5.593  0.3666 -0.8555  0.3565
18166TIP3    H275990   1.005   3.151   5.489 -0.9638  1.0468  2.7195
18167TIP3   OH275991   4.776   2.908   5.853 -0.1040 -0.6899  0.0641
18167TIP3    H175992   4.728   2.877   5.930  0.0978 -0.4735  0.2751
18167TIP3    H275993   4.710   2.908   5.783 -1.0619  2.0201  0.9031
18168TIP3   OH275994   3.623   0.292   5.667  0.1730  0.6380  0.6651
18168TIP3    H175995   3.595   0.203   5.686  0.5369 -0.0137 -1.7127
18168TIP3    H275996   3.582   0.345   5.736 -0.1885 -1.3213  1.9977
18169TIP3   OH275997   4.691   6.399   5.925 -0.1053  0.4440 -0.2802
18169TIP3    H175998   4.638   6.399   5.845 -0.0334  0.5741 -0.3276
18169TIP3    H275999   4.735   6.315   5.925 -0.5344  0.2146 -0.0962
18170TIP3   OH276000   1.770   1.040   6.412 -0.6249  0.1840  0.1708
18170TIP3    H176001   1.745   1.051   6.320  0.7586 -0.3012 -0.2725
18170TIP3    H276002   1.784   1.129   6.444  0.7801  0.2635 -0.6327
18171TIP3   OH276003   6.749   6.259   2.805  0.1497  0.6197 -0.3017
18171TIP3    H176004   6.712   6.173   2.785 -0.2221  0.8792 -0.7240
18171TIP3    H276005   6.812   6.242   2.876 -1.0983  0.2446  0.7285
18172TIP3   OH276006   2.901   1.148   6.372 -0.3727  0.1520  0.5221
18172TIP3    H176007   2.982   1.193   6.399  0.1659 -0.7042  0.3583
18172TIP3    H276008   2.931   1.079   6.312 -1.4224  1.1544 -1.2046
18173TIP3   OH276009   2.214   2.418  14.050  0.3702 -0.2749 -0.0171
18173TIP3    H176010   2.186   2.508  14.033  0.9345  0.2765  1.8790
18173TIP3    H276011   2.137   2.376  14.088  0.1434 -0.5667 -0.7929
18174TIP3   OH276012   2.275   6.014  15.238  0.1640 -0.5125 -0.0987
18174TIP3    H176013   2.229   6.072  15.178  0.0370  0.0574  0.5475
18174TIP3    H276014   2.214   5.941  15.252 -0.2020 -0.1683  0.1021
18175TIP3   OH276015   5.608   6.147   4.407  0.3908  0.8802  0.1057
18175TIP3    H176016   5.619   6.218   4.344 -0.9774  0.1571 -0.9498
18175TIP3    H276017   5.696   6.131   4.440  0.7155  3.1577  0.4651
18176TIP3   OH276018   4.297   0.287   6.149  0.0976 -0.5027  0.2976
18176TIP3    H176019   4.386   0.267   6.118 -0.2123 -0.4797 -0.6458
18176TIP3    H276020   4.241   0.262   6.075 -0.5527  0.9770  0.2842
18177TIP3   OH276021   1.765   1.333   3.291 -0.2540 -0.3114  0.2858
18177TIP3    H176022   1.754   1.398   3.360 -0.0180 -0.7447  0.7322
18177TIP3    H276023   1.676   1.317   3.259 -0.0202  2.8702 -2.2956
18178TIP3   OH276024   2.058   0.676  11.067  0.2285 -0.3411 -0.6979
18178TIP3    H176025   2.049   0.653  10.974  1.7484 -0.7954 -0.7495
18178TIP3    H276026   2.085   0.595  11.109 -0.2652 -0.0839  0.1192
18179TIP3   OH276027   5.858   6.810  13.593 -0.1100 -0.5578  0.5507
18179TIP3    H176028   5.926   6.745  13.611  0.6818  0.5925  1.8329
18179TIP3    H276029   5.810   6.817  13.676 -0.5052  0.1141  0.2705
18180TIP3   OH276030   6.667   1.932  12.345  0.7774  0.4249 -0.3204
18180TIP3    H176031   6.586   1.920  12.395  1.4391  0.5791  0.8263
18180TIP3    H276032   6.640   1.980  12.267 -0.2345  0.5299  0.0814
18181TIP3   OH276033   0.927   2.688  12.589 -0.0257  0.1837  0.2578
18181TIP3    H176034   0.933   2.594  12.601  1.7252  0.2731  0.1737
18181TIP3    H276035   0.920   2.700  12.495  1.0122  0.1838  0.1731
18182TIP3   OH276036   4.532   6.023  13.845  0.5391 -0.2891  0.0901
18182TIP3    H176037   4.578   6.069  13.775 -1.1134  0.2078 -0.6924
18182TIP3    H276038   4.536   5.931  13.820 -0.5939 -0.0472 -0.9952
18183TIP3   OH276039   4.404   2.275   5.780  0.0547 -0.2869  0.2824
18183TIP3    H176040   4.469   2.324   5.829  1.1850 -0.5309 -0.9181
18183TIP3    H276041   4.326   2.273   5.836  0.8902  0.5205  1.4783
18184TIP3   OH276042   0.543   4.915   1.972  0.1355 -0.4354 -0.4320
18184TIP3    H176043   0.528   4.897   2.065  0.4568  0.4745 -0.2020
18184TIP3    H276044   0.462   4.956   1.943 -0.3285 -1.5963 -0.7863
18185TIP3   OH276045   1.453   0.364  12.244 -0.0546 -0.2195  0.2281
18185TIP3    H176046   1.359   0.375  12.254  0.0162 -0.0686  0.7376
18185TIP3    H276047   1.489   0.376  12.332  0.6696  2.1493 -0.3455
18186TIP3   OH276048   6.216   1.273   0.692 -0.3922 -0.1435  0.5367
18186TIP3    H176049   6.292   1.307   0.738  1.2247 -1.4589 -1.0628
18186TIP3    H276050   6.169   1.221   0.757  0.0624  0.7178  1.5526
18187TIP3   OH276051   1.975   6.268  10.652 -0.1213  0.1328  0.5292
18187TIP3    H176052   1.886   6.249  10.683 -0.2995 -0.5261 -0.3661
18187TIP3    H276053   1.987   6.210  10.577  0.6294  1.0729 -0.0940
18188TIP3   OH276054   1.444   5.481   3.532 -0.6482  0.3692 -0.5621
18188TIP3    H176055   1.363   5.489   3.582 -0.7418 -0.0458 -0.6502
18188TIP3    H276056   1.462   5.571   3.503  0.4845  0.9774  1.8849
18189TIP3   OH276057   6.553   1.311   5.644 -0.4090  0.5389  0.1781
18189TIP3    H176058   6.543   1.375   5.715 -1.7208  0.7195 -0.1524
18189TIP3    H276059   6.476   1.255   5.652  2.1595 -2.8757  2.2900
18190TIP3   OH276060   5.371   3.809   4.464  0.0352 -0.6624 -0.3016
18190TIP3    H176061   5.449   3.817   4.410  0.0819 -0.1571 -0.1657
18190TIP3    H276062   5.321   3.738   4.425  0.4843 -0.8743 -0.4902
18191TIP3   OH276063   0.598   0.556   4.847  0.0869  0.3622 -0.3077
18191TIP3    H176064   0.557   0.486   4.898 -1.2808  2.2442  1.2559
18191TIP3    H276065   0.535   0.575   4.778  1.5699 -1.6131 -2.2628
18192TIP3   OH276066   6.772   5.626  14.192 -0.5018  0.1202  0.7775
18192TIP3    H176067   6.856   5.597  14.158 -1.1907 -0.7539 -0.2502
18192TIP3    H276068   6.791   5.707  14.239  0.9600 -0.2799  0.8844
18193TIP3   OH276069   0.904   2.756  13.885  0.9306  0.1501  0.3139
18193TIP3    H176070   0.844   2.809  13.936 -1.4021 -1.3682 -0.7949
18193TIP3    H276071   0.955   2.707  13.951  0.0474  0.4488  1.2238
18194TIP3   OH276072   2.505   3.433  16.794 -0.1437 -0.6941  0.5671
18194TIP3    H176073   2.575   3.494  16.815 -0.7287 -0.2965  1.3828
18194TIP3    H276074   2.517   3.415  16.700 -0.1016  0.8636  0.2509
18195TIP3   OH276075   6.052   1.583  14.078 -0.1170  0.0451  0.1088
18195TIP3    H176076   6.066   1.625  14.163 -0.2678 -1.4515  0.8882
18195TIP3    H276077   6.136   1.542  14.058 -0.2534 -0.0842 -0.1909
18196TIP3   OH276078   5.281   1.675   2.398  0.5700 -0.0113 -0.1992
18196TIP3    H176079   5.345   1.734   2.439 -0.1757 -0.2125  1.2811
18196TIP3    H276080   5.302   1.679   2.305  2.0857  0.7256  0.1474
18197TIP3   OH276081   2.115   6.179   3.371  0.6944 -0.0314  0.1859
18197TIP3    H176082   2.157   6.248   3.422  0.3962  0.0952  0.2643
18197TIP3    H276083   2.172   6.166   3.295  1.8227 -1.1173  1.2000
18198TIP3   OH276084   3.609   6.541  15.538  0.4473 -0.5436 -0.1378
18198TIP3    H176085   3.600   6.461  15.487  1.0190 -0.7717  0.1184
18198TIP3    H276086   3.541   6.600  15.504  0.0636 -1.1162 -0.3596
18199TIP3   OH276087   2.482   5.364  12.952  0.7232 -0.3141 -1.1249
18199TIP3    H176088   2.448   5.443  12.992  0.6911  0.7986 -3.2581
18199TIP3    H276089   2.410   5.331  12.898  1.0844 -1.2052 -1.0808
18200TIP3   OH276090   1.639   4.547   4.460  0.2082  0.7374  0.2037
18200TIP3    H176091   1.603   4.557   4.548  0.2957 -1.2978  0.4967
18200TIP3    H276092   1.569   4.576   4.402 -1.0218 -0.8526  0.8466
18201TIP3   OH276093   0.439   1.287   4.465 -0.0831  0.2893  0.2983
18201TIP3    H176094   0.492   1.367   4.463  0.4313 -0.0427  0.5403
18201TIP3    H276095   0.503   1.217   4.474 -0.4956 -0.1878 -0.4995
18202TIP3   OH276096   6.465   0.068  16.251 -0.6150 -0.1933 -0.9501
18202TIP3    H176097   6.451  -0.022  16.278  0.9286 -0.0708  0.3109
18202TIP3    H276098   6.389   0.089  16.196 -2.5752 -1.2129  1.3296
18203TIP3   OH276099   5.232   1.781  15.092 -0.1629  0.5786  0.3912
18203TIP3    H176100   5.306   1.828  15.131  0.9526 -1.3846  0.6871
18203TIP3    H276101   5.182   1.849  15.046  1.3898  2.0515  0.8293
18204TIP3   OH276102   5.516   1.670   4.157  0.1093  0.6264 -0.4563
18204TIP3    H176103   5.477   1.755   4.178  1.7473  1.3260 -0.2365
18204TIP3    H276104   5.447   1.607   4.179  0.1237  1.6309  2.8654
18205TIP3   OH276105   4.101   2.233   4.864  0.0615  0.0021  0.4566
18205TIP3    H176106   4.021   2.255   4.912  0.6653 -0.5809  1.7417
18205TIP3    H276107   4.093   2.139   4.846  1.1995 -0.4115  2.0161
18206TIP3   OH276108   5.824   1.047  16.567  0.3962  0.2620 -0.1515
18206TIP3    H176109   5.872   1.116  16.613 -0.9145  1.3087 -0.3480
18206TIP3    H276110   5.893   0.990  16.532  1.4713  1.0993  0.5747
18207TIP3   OH276111   4.474   6.663  15.669  0.2663  0.2524 -0.0202
18207TIP3    H176112   4.480   6.759  15.663  1.9398  0.1842  0.1528
18207TIP3    H276113   4.419   6.638  15.596  0.4556  1.3038 -0.5439
18208TIP3   OH276114   6.289   3.652   3.516 -0.3674  0.3168 -0.4627
18208TIP3    H176115   6.290   3.734   3.565 -0.2911  0.6878 -1.0781
18208TIP3    H276116   6.262   3.676   3.428 -0.6606 -0.3698 -0.5670
18209TIP3   OH276117   2.681   0.224   3.203  0.6017  0.0117 -0.2613
18209TIP3    H176118   2.726   0.269   3.274  0.1792 -0.6728  0.4508
18209TIP3    H276119   2.616   0.169   3.247  0.4024 -0.4934 -1.1717
18210TIP3   OH276120   6.061   6.320  15.014 -0.3264 -0.5022  0.1931
18210TIP3    H176121   6.140   6.366  15.043 -1.1024  2.8258 -2.6481
18210TIP3    H276122   5.998   6.335  15.084  0.2959  0.3545  0.5799
18211TIP3   OH276123   1.958   0.922   4.402  0.0088  0.0179  0.1807
18211TIP3    H176124   2.040   0.922   4.353 -0.5983 -0.6162 -0.8668
18211TIP3    H276125   1.972   0.985   4.473  1.1023  0.5354 -0.4806
18212TIP3   OH276126   3.090   3.518   5.872  0.1581 -0.8664 -0.2528
18212TIP3    H176127   3.168   3.573   5.884 -0.7083  0.1548  0.8214
18212TIP3    H276128   3.123   3.428   5.878  1.3393 -0.4549 -0.3730
18213TIP3   OH276129   4.305   0.749  15.831  0.7584  0.2533  0.1069
18213TIP3    H176130   4.383   0.705  15.864 -0.2172  0.2136  2.4789
18213TIP3    H276131   4.337   0.834  15.799  2.0455 -0.5588 -0.8023
18214TIP3   OH276132   1.784   2.838  13.040  0.1471 -0.2988 -0.0847
18214TIP3    H176133   1.727   2.785  12.985 -0.2947 -0.6548  0.7139
18214TIP3    H276134   1.728   2.909  13.072  0.7940  0.8142 -1.3527
18215TIP3   OH276135   2.616   6.377  14.083  0.6770 -0.0678  0.6655
18215TIP3    H176136   2.565   6.457  14.097  0.1809 -0.4545  1.1079
18215TIP3    H276137   2.620   6.367  13.988  1.5109  0.9687  0.5791
18216TIP3   OH276138   2.764   1.454  11.641  0.0503 -0.1083  0.4905
18216TIP3    H176139   2.724   1.479  11.557  2.5378 -0.6928 -0.9162
18216TIP3    H276140   2.792   1.537  11.679 -2.4837  0.3196  1.5291
18217TIP3   OH276141   1.174   3.413  16.201  0.5348  0.3865 -0.2840
18217TIP3    H176142   1.202   3.503  16.183 -1.2758  1.0545  0.1393
18217TIP3    H276143   1.149   3.414  16.293 -0.6075 -0.2641 -0.5875
18218TIP3   OH276144   5.845   4.613   0.382 -0.4630 -0.1977  0.2958
18218TIP3    H176145   5.882   4.584   0.299  0.3816  0.2007  0.5260
18218TIP3    H276146   5.850   4.536   0.439  0.8760  0.1122  0.6098
18219TIP3   OH276147   0.895   2.150   3.891  0.0792  0.6651 -0.2001
18219TIP3    H176148   0.915   2.220   3.829  0.4818 -0.3952 -1.2799
18219TIP3    H276149   0.836   2.191   3.955  0.8553  2.1623 -0.4297
18220TIP3   OH276150   1.265   2.711  16.587 -0.0114  0.3230  0.0894
18220TIP3    H176151   1.351   2.714  16.630  0.0319 -0.2918  0.0433
18220TIP3    H276152   1.278   2.653  16.512 -0.5594 -0.0493  0.2822
18221TIP3   OH276153   2.167   1.414  15.260  0.0120 -0.3951  0.2946
18221TIP3    H176154   2.144   1.507  15.264 -1.7929 -0.7315 -1.5333
18221TIP3    H276155   2.251   1.412  15.214 -0.8111  0.2141 -1.2491
18222TIP3   OH276156   6.323   2.213  13.053 -0.2032 -0.1075 -0.2991
18222TIP3    H176157   6.408   2.247  13.082  0.9206 -2.6092 -0.5217
18222TIP3    H276158   6.346   2.140  12.995 -2.5418 -2.7526  2.0141
18223TIP3   OH276159   6.218   6.083  14.843  0.0702  0.4281  0.3108
18223TIP3    H176160   6.125   6.100  14.827  0.2395  0.5311 -0.5619
18223TIP3    H276161   6.260   6.168  14.832  0.2269  0.4513  1.0529
18224TIP3   OH276162   5.091   2.053  16.121 -0.4104 -0.1322  0.2561
18224TIP3    H176163   5.105   2.130  16.177 -0.0455 -0.9219  1.2649
18224TIP3    H276164   5.070   2.090  16.035 -1.0005  1.0978  0.9114
18225TIP3   OH276165   4.332   0.053   2.379  0.2476  0.2567 -0.1610
18225TIP3    H176166   4.427   0.047   2.378  0.1533 -1.2333 -1.1145
18225TIP3    H276167   4.304  -0.006   2.449  0.0565  1.4681  0.8109
18226TIP3   OH276168   3.022   6.253   5.118  0.0474 -0.0807  0.4861
18226TIP3    H176169   3.072   6.272   5.198 -0.3462  3.0632  0.0617
18226TIP3    H276170   3.089   6.247   5.050  0.2753 -1.4739  0.8167
18227TIP3   OH276171   1.503   2.334   4.065  0.2304 -0.7290  0.3382
18227TIP3    H176172   1.477   2.243   4.071  0.4006 -0.9423 -1.6583
18227TIP3    H276173   1.598   2.333   4.077  0.1246 -0.7048  1.1949
18228TIP3   OH276174   3.034   3.075   0.866  0.2124 -0.5383 -0.1139
18228TIP3    H176175   3.012   3.150   0.810 -0.4843 -0.6581 -0.0064
18228TIP3    H276176   3.124   3.052   0.841 -0.2169 -0.8095 -1.4354
18229TIP3   OH276177   6.489   6.048  14.545  0.1759 -0.0486  0.2045
18229TIP3    H176178   6.401   6.086  14.550 -0.1119 -0.6112 -0.5112
18229TIP3    H276179   6.537   6.088  14.618 -0.6639  0.2776  0.5780
18230TIP3   OH276180   4.990   1.171   2.231  1.0923 -0.4425  0.0094
18230TIP3    H176181   4.985   1.096   2.172  1.6578 -1.9051  1.7783
18230TIP3    H276182   4.958   1.139   2.315 -1.6693  2.1734  0.0543
18231TIP3   OH276183   5.670   6.779   3.748 -0.5872 -0.5863  0.4008
18231TIP3    H176184   5.631   6.866   3.756  0.9370  0.0508  1.4262
18231TIP3    H276185   5.641   6.733   3.827 -0.0332 -0.4164  0.7099
18232TIP3   OH276186   5.457   0.104  14.073 -0.2197  0.3709  0.0399
18232TIP3    H176187   5.405   0.081  14.150 -0.6497  1.5981  0.1319
18232TIP3    H276188   5.547   0.079  14.096 -0.3968  0.4284  0.8146
18233TIP3   OH276189   6.697   1.046  15.270 -0.5685  0.0095  0.0706
18233TIP3    H176190   6.676   1.098  15.192 -0.7526 -0.8926 -0.4887
18233TIP3    H276191   6.775   1.087  15.306  0.7683 -0.8440 -1.7888
18234TIP3   OH276192   6.772   3.569  12.753  0.7042  0.2556  0.1628
18234TIP3    H176193   6.767   3.582  12.848  0.2090 -0.9115  0.3082
18234TIP3    H276194   6.750   3.655  12.716  0.6132  0.6440  1.0960
18235TIP3   OH276195   3.346   1.697   5.672  0.5611 -0.0141 -0.2659
18235TIP3    H176196   3.381   1.611   5.696  0.9626  0.3488  0.4688
18235TIP3    H276197   3.420   1.756   5.680 -0.5471  1.0269  2.7901
18236TIP3   OH276198   5.641   4.717  10.563 -0.0759  0.1914 -0.0729
18236TIP3    H176199   5.557   4.762  10.550 -0.1325 -0.2129 -1.2104
18236TIP3    H276200   5.632   4.673  10.647 -0.5393  1.1634  0.3954
18237TIP3   OH276201   2.269   6.297  16.747  0.2770  0.6572 -0.2604
18237TIP3    H176202   2.206   6.369  16.751  0.5389  0.8786 -0.1383
18237TIP3    H276203   2.345   6.333  16.701 -0.1900  0.0055 -1.5645
18238TIP3   OH276204   6.648   0.730   5.654 -0.1549 -0.4796 -0.3599
18238TIP3    H176205   6.715   0.667   5.682  0.6008 -0.3295 -1.7738
18238TIP3    H276206   6.661   0.805   5.712 -0.6341 -1.3555  0.9026
18239TIP3   OH276207   3.197   3.946   3.099  0.9121 -0.2938  0.2372
18239TIP3    H176208   3.216   4.020   3.041 -0.6322 -1.6055 -2.0233
18239TIP3    H276209   3.111   3.966   3.136  1.2266 -0.1835  0.9189
18240TIP3   OH276210   3.649   3.012   2.708 -0.5573 -0.1078  0.0178
18240TIP3    H176211   3.729   2.980   2.666 -0.4371  0.1610  0.0428
18240TIP3    H276212   3.667   3.002   2.802 -0.4405  0.2192  0.0321
18241TIP3   OH276213   2.569   4.526  12.904 -0.0068 -0.5250  0.1176
18241TIP3    H176214   2.567   4.437  12.869  1.7164  0.6746 -3.2007
18241TIP3    H276215   2.663   4.546  12.912 -0.3645  1.6055 -0.8198
18242TIP3   OH276216   4.302   2.213   3.527  0.0225 -0.0985 -0.1441
18242TIP3    H176217   4.396   2.215   3.509  0.0821  1.5135  0.2509
18242TIP3    H276218   4.291   2.141   3.590  0.6718 -1.7084 -1.8222
18243TIP3   OH276219   0.883   4.519   0.635 -0.5962  0.5158 -0.3883
18243TIP3    H176220   0.958   4.538   0.691 -0.2408 -0.8832 -0.3914
18243TIP3    H276221   0.814   4.578   0.666  0.6021  2.0582 -0.6216
18244TIP3   OH276222   6.449   6.171   3.380 -0.7680 -0.1222  0.2746
18244TIP3    H176223   6.466   6.129   3.295 -1.0988  0.6584 -0.1731
18244TIP3    H276224   6.535   6.170   3.424 -0.4535  0.0860 -0.3341
18245TIP3   OH276225   3.158   1.187   4.591  0.6305  0.6234 -0.1521
18245TIP3    H176226   3.222   1.162   4.658 -0.0738 -1.9965 -0.3888
18245TIP3    H276227   3.208   1.241   4.530  2.1007  0.3530  0.7831
18246TIP3   OH276228   1.845   3.625   0.138 -0.4230 -0.2526 -0.4408
18246TIP3    H176229   1.878   3.697   0.085 -2.7142 -0.4089 -2.1362
18246TIP3    H276230   1.780   3.666   0.196 -0.5681 -0.7079 -0.2809
18247TIP3   OH276231   6.816   2.016   2.969 -0.4361  0.1411  0.6422
18247TIP3    H176232   6.880   1.952   2.939 -0.3395  1.0642 -1.1646
18247TIP3    H276233   6.732   1.981   2.939 -0.4181  0.6871 -0.0407
18248TIP3   OH276234   6.350   4.201   4.958  0.6840 -0.0825 -0.2133
18248TIP3    H176235   6.398   4.132   5.003  0.5963 -1.2500 -1.8370
18248TIP3    H276236   6.323   4.160   4.875 -0.9510  1.3336 -0.3978
18249TIP3   OH276237   0.219   0.996  15.153  0.2891 -0.3892  0.2244
18249TIP3    H176238   0.237   1.073  15.099 -2.3710 -0.0024 -0.1551
18249TIP3    H276239   0.153   0.947  15.105  1.4626 -2.5998  0.7874
18250TIP3   OH276240   1.408   5.838   1.790  0.1539  0.1601  0.0319
18250TIP3    H176241   1.325   5.865   1.750  0.9460  0.0640 -1.7319
18250TIP3    H276242   1.386   5.758   1.837 -1.1524  1.1556  1.1742
18251TIP3   OH276243   4.232   2.716   2.247 -0.2887  0.6093  0.2923
18251TIP3    H176244   4.305   2.758   2.293  0.5099 -0.4428  0.0127
18251TIP3    H276245   4.210   2.641   2.303 -0.2819  0.1711 -0.2936
18252TIP3   OH276246   2.383   4.429  11.557  0.4689 -0.4402  0.3629
18252TIP3    H176247   2.434   4.484  11.498 -2.5232  0.5634 -1.3900
18252TIP3    H276248   2.378   4.479  11.638  1.6977 -0.2837  0.3612
18253TIP3   OH276249   3.005   1.843  15.561  0.0248 -0.0941  0.1948
18253TIP3    H176250   3.053   1.899  15.622 -0.9277  1.0188 -0.0701
18253TIP3    H276251   2.994   1.897  15.483 -0.8099 -0.7008 -0.1096
18254TIP3   OH276252   0.011   5.841  13.691 -0.1686 -0.0346  0.3854
18254TIP3    H176253   0.000   5.908  13.759 -1.5850  1.6377 -1.4009
18254TIP3    H276254  -0.065   5.784  13.700 -1.1439  1.0638 -0.7011
18255TIP3   OH276255   6.496   4.592   1.262 -0.2989 -0.1057  0.0913
18255TIP3    H176256   6.441   4.532   1.213 -0.3700  0.5837 -0.6941
18255TIP3    H276257   6.503   4.669   1.206 -1.9178  1.4623  1.9728
18256TIP3   OH276258   1.915   6.564   4.021  0.7336  0.1683  0.6349
18256TIP3    H176259   2.003   6.548   4.057  1.0536  0.5431  0.0228
18256TIP3    H276260   1.930   6.620   3.945 -0.0851  0.6486  0.8202
18257TIP3   OH276261   6.705   6.359   4.938 -0.0091 -0.1374  0.5944
18257TIP3    H176262   6.758   6.290   4.976  2.1688  1.2520  0.1834
18257TIP3    H276263   6.713   6.432   4.999 -0.3800  0.5155 -0.1198
18258TIP3   OH276264   6.631   4.823  15.572 -0.3588  0.5303 -0.2146
18258TIP3    H176265   6.693   4.895  15.557 -0.2295  0.4329 -0.1507
18258TIP3    H276266   6.668   4.775  15.646  0.0275 -0.1242 -0.8263
18259TIP3   OH276267   0.523   4.314   3.585  0.6926  0.1350  0.5929
18259TIP3    H176268   0.612   4.304   3.621  0.5897 -0.5749  0.6619
18259TIP3    H276269   0.466   4.291   3.658  0.4842 -1.6837 -0.1282
18260TIP3   OH276270   5.190   3.772   6.724  0.5028 -0.2464  0.3718
18260TIP3    H176271   5.109   3.804   6.684  0.1499 -3.0560 -1.2430
18260TIP3    H276272   5.172   3.773   6.818 -0.3466  1.8456  0.2249
18261TIP3   OH276273   6.721   4.043   2.975  0.4761 -0.2572 -0.8759
18261TIP3    H176274   6.702   4.009   2.887  0.1238 -0.7981 -0.5990
18261TIP3    H276275   6.659   3.997   3.032  0.0544  0.7993 -0.4756
18262TIP3   OH276276   6.446   2.621  12.023 -0.2396  0.5466  0.2790
18262TIP3    H176277   6.512   2.654  11.963  0.3162 -2.4255 -0.8716
18262TIP3    H276278   6.495   2.571  12.088 -1.1028  1.0508  1.3258
18263TIP3   OH276279   5.461   2.513   1.616  0.4314 -1.1049  0.5776
18263TIP3    H176280   5.513   2.555   1.685 -0.0162  1.3908 -0.5555
18263TIP3    H276281   5.387   2.473   1.663 -0.2365  1.1257  1.5217
18264TIP3   OH276282   2.624   5.377  10.638 -0.2504 -0.6154 -0.1804
18264TIP3    H176283   2.610   5.370  10.544  2.0143 -0.9255 -0.5168
18264TIP3    H276284   2.537   5.366  10.676 -1.2961  0.2862 -2.2656
18265TIP3   OH276285   1.560   1.294  14.591  0.7081 -0.2666  0.2720
18265TIP3    H176286   1.653   1.270  14.587  0.8797  0.0593  2.0998
18265TIP3    H276287   1.539   1.319  14.501  2.1846 -1.0816 -0.3280
18266TIP3   OH276288   5.728   1.645  16.110  0.3346  0.4355 -0.2453
18266TIP3    H176289   5.641   1.677  16.085  0.6769  1.7585  0.2326
18266TIP3    H276290   5.783   1.661  16.033  0.1656 -0.4074 -0.5506
18267TIP3   OH276291   3.286   6.051   4.073 -0.2601 -0.8136 -0.1963
18267TIP3    H176292   3.368   6.004   4.056 -0.1409 -0.8655  0.5232
18267TIP3    H276293   3.249   6.008   4.150 -0.8787 -0.6740 -0.4145
18268TIP3   OH276294   5.441   0.676   4.179 -0.1528 -0.2594 -0.3464
18268TIP3    H176295   5.472   0.618   4.109 -1.0952 -0.6370 -0.4655
18268TIP3    H276296   5.352   0.701   4.152  0.3691  1.5306 -0.4669
18269TIP3   OH276297   6.421   5.085   4.779  0.4356  0.1740  0.2674
18269TIP3    H176298   6.421   4.997   4.818 -1.7369  0.9247  2.0783
18269TIP3    H276299   6.479   5.136   4.836 -0.5816  0.6096  0.9150
18270TIP3   OH276300   1.731   1.219   6.058  0.7394 -0.2167  0.7842
18270TIP3    H176301   1.693   1.141   6.098 -1.4292  0.3923 -0.0558
18270TIP3    H276302   1.710   1.290   6.119  0.0348  0.2171  0.0409
18271TIP3   OH276303   6.195   4.124   1.211  0.1161 -0.2649 -0.1428
18271TIP3    H176304   6.127   4.062   1.182  1.0456 -0.9063 -0.9996
18271TIP3    H276305   6.146   4.197   1.249 -1.0141 -1.5865  1.0417
18272TIP3   OH276306   1.332   2.900  15.015 -0.5911  0.0381  0.5764
18272TIP3    H176307   1.412   2.888  14.964 -0.1156  0.6755  1.1611
18272TIP3    H276308   1.274   2.951  14.958 -0.5987 -0.4569  0.1394
18273TIP3   OH276309   2.323   1.656  17.287  0.4716  0.1426 -0.5904
18273TIP3    H176310   2.287   1.598  17.221  0.3455 -0.0339 -0.3700
18273TIP3    H276311   2.384   1.602  17.337  0.0527  0.0880 -0.1294
18274TIP3   OH276312   1.672   3.853   5.208  0.1972  0.1719  0.3446
18274TIP3    H176313   1.762   3.864   5.240 -0.1649  2.7725  0.5758
18274TIP3    H276314   1.618   3.861   5.287 -0.3905  1.4503 -0.1845
18275TIP3   OH276315   5.114   5.387  11.818  0.5649 -0.3841  0.5279
18275TIP3    H176316   5.045   5.348  11.764  0.4254  0.3971  0.1329
18275TIP3    H276317   5.164   5.442  11.757  1.9113 -1.4160  0.6788
18276TIP3   OH276318   4.066   5.517  12.145  0.4178 -0.4884 -0.5544
18276TIP3    H176319   4.144   5.572  12.156 -1.2048  2.0406 -1.2300
18276TIP3    H276320   4.073   5.452  12.215  3.2112 -0.4384 -0.7104
18277TIP3   OH276321   0.650   3.289  17.228 -0.0621 -0.0090  0.8070
18277TIP3    H176322   0.583   3.304  17.161 -0.0431  0.3183  0.8571
18277TIP3    H276323   0.614   3.220  17.283 -0.6913  0.6904  1.2777
18278TIP3   OH276324   2.152   5.779  12.359 -0.0612 -0.3384  0.3291
18278TIP3    H176325   2.161   5.805  12.451  1.5955 -1.9225  0.6506
18278TIP3    H276326   2.239   5.745  12.335 -1.0346 -1.8076 -1.2263
18279TIP3   OH276327   2.879   5.960   6.744  0.3112 -1.0042 -0.1288
18279TIP3    H176328   2.812   6.026   6.727  0.8362  0.1700  2.0389
18279TIP3    H276329   2.953   5.986   6.689  1.7389  2.2777  3.1131
18280TIP3   OH276330   5.567   0.807   0.597 -0.0323  0.2980  0.3628
18280TIP3    H176331   5.492   0.866   0.590 -0.4097 -0.3478 -1.4652
18280TIP3    H276332   5.622   0.846   0.665 -1.1501  1.7626  0.4572
18281TIP3   OH276333   2.801   5.837   5.740  0.2969 -0.1213 -0.0756
18281TIP3    H176334   2.784   5.906   5.676 -0.6474 -0.7460 -0.5139
18281TIP3    H276335   2.882   5.863   5.783  2.4680 -1.0875 -3.3997
18282TIP3   OH276336   1.876   5.800   0.994  0.0079  0.0649  0.3042
18282TIP3    H176337   1.909   5.889   0.978 -0.4221  0.4925  1.6582
18282TIP3    H276338   1.794   5.814   1.043  0.9280 -1.1234  2.2332
18283TIP3   OH276339   4.895   6.428   6.208 -0.5701  0.1562 -0.1457
18283TIP3    H176340   4.855   6.450   6.124  0.3470  1.0949 -0.3493
18283TIP3    H276341   4.853   6.346   6.235 -0.2929 -0.5881 -1.9191
18284TIP3   OH276342   6.728   2.127  17.199  0.2785 -0.0066 -0.4061
18284TIP3    H176343   6.814   2.139  17.241 -0.7372  0.7007  1.5321
18284TIP3    H276344   6.745   2.141  17.106  2.1249  0.9877  0.0429
18285TIP3   OH276345   3.354   5.085  14.209 -0.4962  0.0170  0.1597
18285TIP3    H176346   3.332   5.129  14.127 -0.6342 -0.4961 -0.0788
18285TIP3    H276347   3.391   5.155  14.264 -1.5389  0.6124  0.1152
18286TIP3   OH276348   4.742   1.804   4.213 -0.0323 -1.1221 -0.3940
18286TIP3    H176349   4.746   1.781   4.120 -0.3181 -0.0505 -0.6802
18286TIP3    H276350   4.655   1.778   4.240  0.4388 -2.4580 -0.1462
18287TIP3   OH276351   4.196   1.557   5.052 -0.3146  0.3027 -0.0352
18287TIP3    H176352   4.134   1.513   5.110 -0.3946  1.3311  0.6757
18287TIP3    H276353   4.260   1.597   5.110 -0.3817  1.3294 -0.6416
18288TIP3   OH276354   5.923   0.221   3.020 -0.2500 -0.9470  0.3864
18288TIP3    H176355   5.948   0.135   2.988 -1.5912 -1.7640  1.4517
18288TIP3    H276356   5.912   0.208   3.115 -1.3634  0.1699  0.4120
18289TIP3   OH276357   2.032   5.346  14.699  0.3671 -0.5958  0.0096
18289TIP3    H176358   2.037   5.253  14.677 -2.0821 -1.2624  2.1204
18289TIP3    H276359   1.968   5.382  14.638 -1.4447 -1.0706  1.6149
18290TIP3   OH276360   1.468   6.450  15.247  0.0833 -0.1935 -0.2035
18290TIP3    H176361   1.444   6.506  15.173 -0.4955  0.4827  0.4885
18290TIP3    H276362   1.506   6.509  15.311 -1.3074 -0.4658  0.8790
18291TIP3   OH276363   2.267   0.573  16.707 -0.4331  0.7981  0.8471
18291TIP3    H176364   2.351   0.542  16.673 -1.0239  1.8987 -1.7742
18291TIP3    H276365   2.207   0.500  16.691 -1.0574  1.8727 -2.0991
18292TIP3   OH276366   3.962   2.962  16.768 -0.4294 -0.7210 -0.2207
18292TIP3    H176367   4.022   3.001  16.831 -2.0438  1.7710 -0.1844
18292TIP3    H276368   3.917   2.893  16.817  0.0465 -0.4173  0.6602
18293TIP3   OH276369   3.006   3.505  14.700  0.1552 -0.2731 -0.3302
18293TIP3    H176370   2.918   3.500  14.737  0.3505  0.2562  0.2161
18293TIP3    H276371   3.047   3.579  14.746  0.9785 -0.6991 -0.3715
18294TIP3   OH276372   1.081   1.628  16.199 -0.0311 -0.1615  0.5356
18294TIP3    H176373   1.121   1.564  16.257  1.5402  2.5042  2.4804
18294TIP3    H276374   0.990   1.634  16.230 -0.2916 -1.6544  0.1128
18295TIP3   OH276375   5.062   1.883   3.218 -0.5329 -0.2032  0.2842
18295TIP3    H176376   5.144   1.911   3.179  0.6476 -0.5656  2.4486
18295TIP3    H276377   5.050   1.793   3.186  0.7282 -0.7162  1.2256
18296TIP3   OH276378   2.563   0.212  14.664  0.0930 -0.4792 -0.8663
18296TIP3    H176379   2.497   0.155  14.623  1.2712 -2.2605 -0.3375
18296TIP3    H276380   2.529   0.300  14.651 -1.3765 -1.2365 -2.4351
18297TIP3   OH276381   1.467   2.722  14.368  0.2896 -0.4184  0.0176
18297TIP3    H176382   1.388   2.763  14.404  0.5420 -0.5797  0.7652
18297TIP3    H276383   1.439   2.633  14.345  0.6189 -0.9589  1.6654
18298TIP3   OH276384   6.702   0.472  13.214  0.4980  0.1489 -0.5190
18298TIP3    H176385   6.711   0.538  13.282 -0.9448  0.0621 -0.2222
18298TIP3    H276386   6.790   0.460  13.180  1.0693  0.8926  0.6771
18299TIP3   OH276387   6.340   5.725  11.379  0.0869  0.2609  0.3089
18299TIP3    H176388   6.396   5.793  11.340  0.6026 -0.6606 -0.5601
18299TIP3    H276389   6.264   5.720  11.320 -0.0703  0.2443  0.5106
18300TIP3   OH276390   4.819   1.459   6.065  0.6304  0.3880 -0.0819
18300TIP3    H176391   4.774   1.484   6.146  0.3077 -1.0051  0.1748
18300TIP3    H276392   4.785   1.519   5.999 -0.6221  0.1917  0.3843
18301TIP3   OH276393   4.063   5.489   5.338 -0.1160  0.6421 -0.2655
18301TIP3    H176394   3.969   5.496   5.355 -0.2400  0.0931 -0.7176
18301TIP3    H276395   4.100   5.565   5.383 -1.0059  1.9992 -1.7653
18302TIP3   OH276396   5.568   5.188  12.943 -0.0289  0.2726 -0.3282
18302TIP3    H176397   5.572   5.168  13.037  1.3280  0.6670 -0.2925
18302TIP3    H276398   5.474   5.185  12.922 -0.3615  0.3365  1.0684
18303TIP3   OH276399   4.799   5.838  16.565  0.0947 -0.1697  0.3599
18303TIP3    H176400   4.787   5.906  16.632  1.5894  1.3687 -0.8861
18303TIP3    H276401   4.885   5.857  16.527 -0.3949 -1.5044 -1.4670
18304TIP3   OH276402   5.234   4.926   3.929 -0.2216 -0.5687 -0.1493
18304TIP3    H176403   5.165   4.883   3.979 -0.9820  0.5404 -0.2360
18304TIP3    H276404   5.292   4.964   3.995  0.9928 -2.5206 -0.0480
18305TIP3   OH276405   0.920   4.642   0.385 -0.2385 -0.7105  0.1687
18305TIP3    H176406   0.905   4.629   0.478 -2.4439 -0.3209 -0.1112
18305TIP3    H276407   0.886   4.563   0.343  0.6973 -0.8627 -0.3206
18306TIP3   OH276408   5.018   0.748   4.268  0.2897  0.3059  0.4452
18306TIP3    H176409   5.022   0.796   4.351  1.9385  1.0994 -0.0798
18306TIP3    H276410   5.083   0.790   4.212 -0.5246 -0.4802 -1.1344
18307TIP3   OH276411   2.220   5.609   5.490 -0.2071  0.8865  0.1313
18307TIP3    H176412   2.150   5.549   5.515  1.2343 -0.7058  0.4302
18307TIP3    H276413   2.260   5.635   5.573 -0.3274  1.6446 -0.0486
18308TIP3   OH276414   6.015   0.888  11.226 -0.4364 -0.8502  0.0271
18308TIP3    H176415   5.976   0.926  11.148  2.8875 -2.2492 -2.4498
18308TIP3    H276416   5.949   0.826  11.258 -2.0766  0.1496 -1.3336
18309TIP3   OH276417   6.766   2.680   2.198 -0.6126 -0.2445 -0.0180
18309TIP3    H176418   6.701   2.742   2.230  0.7679  0.8648  0.7317
18309TIP3    H276419   6.798   2.717   2.116 -0.0597 -0.1456  0.2355
18310TIP3   OH276420   2.662   2.225  12.524  0.6462  0.2815 -0.4884
18310TIP3    H176421   2.669   2.235  12.429 -2.1615 -1.1492 -0.8891
18310TIP3    H276422   2.752   2.211  12.553  1.4047 -0.5828 -3.0907
18311TIP3   OH276423   4.818   0.406   0.545 -0.6109 -0.1424 -0.5555
18311TIP3    H176424   4.773   0.360   0.616 -1.2987  1.3240 -0.0102
18311TIP3    H276425   4.911   0.396   0.565 -0.7698 -0.9268 -0.2106
18312TIP3   OH276426   4.008   4.881  13.618 -0.6244 -0.9561 -0.3790
18312TIP3    H176427   4.001   4.786  13.626  0.0433 -0.9830 -0.1115
18312TIP3    H276428   4.090   4.903  13.661 -0.8185 -0.2458 -0.3659
18313TIP3   OH276429   4.700   0.110  13.902 -0.3527  0.2407 -0.0244
18313TIP3    H176430   4.649   0.029  13.902 -2.3579  1.4336 -0.6006
18313TIP3    H276431   4.741   0.112  13.815 -0.6042  0.0102 -0.1505
18314TIP3   OH276432   3.133   1.359   0.086  0.1762  0.4651  0.1849
18314TIP3    H176433   3.117   1.310   0.005 -1.7139  0.7375  0.3873
18314TIP3    H276434   3.081   1.438   0.077  0.0119  0.5236  1.6475
18315TIP3   OH276435   6.666   0.683  14.438  0.4834 -0.4365 -0.0292
18315TIP3    H176436   6.691   0.754  14.379  1.7164 -0.8927 -0.0746
18315TIP3    H276437   6.581   0.653  14.406 -0.0098  0.9639 -0.0535
18316TIP3   OH276438   1.588   3.844  12.700 -0.2694 -0.8950  0.1325
18316TIP3    H176439   1.549   3.773  12.649 -0.1598  0.1518 -1.4234
18316TIP3    H276440   1.640   3.799  12.767  0.3871 -2.2916 -1.2907
18317TIP3   OH276441   0.364   5.720   5.387 -0.0215 -0.9113 -0.3910
18317TIP3    H176442   0.316   5.742   5.467  2.1022 -1.0871  0.9777
18317TIP3    H276443   0.446   5.682   5.418  1.1741 -0.2804 -2.6488
18318TIP3   OH276444   4.791   1.150  16.485  0.1243 -0.4489  0.6267
18318TIP3    H176445   4.741   1.134  16.404 -2.1241  1.3548  1.5911
18318TIP3    H276446   4.814   1.062  16.516 -1.3837 -1.2973 -0.5282
18319TIP3   OH276447   6.748   5.373  15.985  0.0238 -0.1959  0.1922
18319TIP3    H176448   6.756   5.285  15.947  3.4496  0.1311 -0.0371
18319TIP3    H276449   6.838   5.404  15.990 -1.0969  3.0767  0.8720
18320TIP3   OH276450   4.131   2.986   5.707 -0.5668  0.3371  0.7839
18320TIP3    H176451   4.106   3.001   5.615 -0.4540  2.6479  1.1123
18320TIP3    H276452   4.071   2.916   5.736  0.1499 -1.2401 -1.3483
18321TIP3   OH276453   1.198   3.559   2.248  0.1118  0.2215 -0.0511
18321TIP3    H176454   1.171   3.487   2.306  0.1723 -0.0468 -0.3517
18321TIP3    H276455   1.170   3.638   2.293 -0.0656  0.0020  0.2283
18322TIP3   OH276456   2.723   1.224   5.121  0.1157  0.4545 -0.6080
18322TIP3    H176457   2.746   1.295   5.061 -2.5640  0.3765 -1.8250
18322TIP3    H276458   2.628   1.230   5.130 -0.0025 -2.0898  0.4013
18323TIP3   OH276459   2.363   2.268  11.009 -0.2469  0.0498  0.1604
18323TIP3    H176460   2.326   2.249  11.095 -1.4351 -0.1468 -0.3804
18323TIP3    H276461   2.432   2.202  10.998 -0.2679 -0.0928  0.8453
18324TIP3   OH276462   3.180   2.977  16.268 -0.5658  0.2375 -0.0488
18324TIP3    H176463   3.150   2.887  16.257  0.3994  0.2063 -2.8951
18324TIP3    H276464   3.263   2.969  16.316 -2.0477 -0.1099  2.5216
18325TIP3   OH276465   5.465   3.972   1.041 -0.3859  0.6224  0.5862
18325TIP3    H176466   5.441   4.064   1.052 -1.1773  0.1834  2.7380
18325TIP3    H276467   5.425   3.947   0.958  0.3893  2.3831 -0.3480
18326TIP3   OH276468   1.358   3.725   0.346 -0.7314 -0.4807  0.2370
18326TIP3    H176469   1.334   3.689   0.261 -0.2004  0.5647 -0.3687
18326TIP3    H276470   1.366   3.819   0.331  1.1485 -0.4957  1.0106
18327TIP3   OH276471   5.014   1.962   1.047  0.4524 -0.5300 -0.3831
18327TIP3    H176472   4.994   2.024   0.977 -0.0126  1.1777  1.2244
18327TIP3    H276473   5.075   1.900   1.007  0.3754  0.5424 -2.2264
18328TIP3   OH276474   2.599   5.436  14.658  0.2024  0.3874  0.2958
18328TIP3    H176475   2.561   5.431  14.571 -0.3135  0.4626  0.5134
18328TIP3    H276476   2.607   5.345  14.686  1.3586  0.3118 -0.2508
18329TIP3   OH276477   2.989   3.708  13.065  0.5431  0.4599 -0.1998
18329TIP3    H176478   2.925   3.779  13.064 -0.6850 -0.6113  0.7779
18329TIP3    H276479   3.073   3.752  13.069 -0.2079  1.8712  0.4558
18330TIP3   OH276480   4.414   2.053  14.270 -0.5409  0.2274 -0.3201
18330TIP3    H176481   4.453   2.140  14.275 -0.4562  0.0984  1.6409
18330TIP3    H276482   4.488   1.993  14.273 -0.5950  0.0742 -1.7249
18331TIP3   OH276483   1.417   1.968  14.444 -0.0427  0.0274  0.1877
18331TIP3    H176484   1.333   1.953  14.486 -0.5419  0.9291 -0.4760
18331TIP3    H276485   1.480   1.920  14.498 -0.9911 -0.7469  0.6136
18332TIP3   OH276486   5.201   2.553  14.167 -0.3243  0.2899  0.3886
18332TIP3    H176487   5.212   2.463  14.199  1.0300 -0.1481 -1.2535
18332TIP3    H276488   5.271   2.564  14.102 -0.8991  2.3063  0.0885
18333TIP3   OH276489   5.459   0.752  12.011  0.1830  0.2872 -0.6768
18333TIP3    H176490   5.463   0.712  11.924  0.3808 -0.7040 -0.2231
18333TIP3    H276491   5.536   0.718  12.057 -0.0105  0.6713 -0.0616
18334TIP3   OH276492   1.689   5.052   5.430  0.2307  0.8418 -0.4613
18334TIP3    H176493   1.622   4.990   5.401 -0.2867  0.8219  0.7357
18334TIP3    H276494   1.734   5.006   5.502  1.6007  0.8089 -1.3266
18335TIP3   OH276495   1.873   0.268  16.891  0.1240 -0.8589 -0.4512
18335TIP3    H176496   1.908   0.203  16.952 -0.4838  0.0659  0.9019
18335TIP3    H276497   1.817   0.324  16.945 -2.3660 -1.4772 -2.2990
18336TIP3   OH276498   0.162   4.163  14.331  0.3739  0.2017  0.2694
18336TIP3    H176499   0.130   4.210  14.408 -0.1480  0.4958 -0.1222
18336TIP3    H276500   0.160   4.071  14.357 -0.8936  0.2093  0.2163
18337TIP3   OH276501   3.700   4.727   5.784 -0.9091  0.6509  0.1944
18337TIP3    H176502   3.743   4.646   5.812  0.1860  0.8827 -0.8004
18337TIP3    H276503   3.685   4.715   5.690 -0.9702  1.4976  0.0918
18338TIP3   OH276504   2.344   4.937  16.158  0.1035 -0.1926  0.7269
18338TIP3    H176505   2.392   4.918  16.239  1.0037  1.8951  0.6979
18338TIP3    H276506   2.412   4.944  16.091 -0.5849 -1.2411 -0.0954
18339TIP3   OH276507   5.797   5.493   4.805  0.1938  0.2874 -0.0062
18339TIP3    H176508   5.780   5.417   4.859 -0.9298  1.8345  1.8841
18339TIP3    H276509   5.785   5.568   4.863 -0.0600  1.9729 -2.1349
18340TIP3   OH276510   5.485   3.917   4.685 -0.0084 -0.3014  0.5632
18340TIP3    H176511   5.574   3.928   4.650 -0.0949  2.1706  1.0176
18340TIP3    H276512   5.433   3.894   4.608  1.0494 -2.0323  0.3361
18341TIP3   OH276513   5.128   4.783   5.325 -0.2431  0.5823  0.4673
18341TIP3    H176514   5.042   4.752   5.295 -0.1233 -1.7954  2.4494
18341TIP3    H276515   5.189   4.749   5.261 -0.5445  0.3307  0.3114
18342TIP3   OH276516   6.491   2.211  15.243  0.1965  0.2226  0.4292
18342TIP3    H176517   6.557   2.279  15.232 -0.8407  1.5054  1.8040
18342TIP3    H276518   6.440   2.214  15.162  0.7793  0.4010  0.0695
18343TIP3   OH276519   4.252   4.125  14.150  0.2755  0.0881  0.3592
18343TIP3    H176520   4.338   4.085  14.162  1.4047  2.0626 -0.8933
18343TIP3    H276521   4.206   4.065  14.091  0.4595 -1.4201  1.7108
18344TIP3   OH276522   1.278   1.753   5.312 -0.1527  0.2852 -0.2836
18344TIP3    H176523   1.287   1.697   5.235  1.9051 -1.6310  1.3245
18344TIP3    H276524   1.226   1.702   5.374  0.0933  0.9463  0.4775
18345TIP3   OH276525   5.285   5.637  16.358  0.2267 -0.5661  0.0847
18345TIP3    H176526   5.275   5.635  16.263 -0.8048  0.5520  0.1541
18345TIP3    H276527   5.243   5.557  16.388 -1.3880  0.1135 -0.2621
18346TIP3   OH276528   3.849   4.101  11.006 -0.1816  0.2097 -0.5134
18346TIP3    H176529   3.823   4.154  11.081  0.4525 -0.5596  0.2454
18346TIP3    H276530   3.832   4.158  10.930  1.9922  2.1297  0.3946
18347TIP3   OH276531   5.549   6.241   0.876 -0.9962  0.1748 -0.5141
18347TIP3    H176532   5.643   6.262   0.871 -0.6318 -0.4034  3.0007
18347TIP3    H276533   5.547   6.147   0.896 -2.1603  1.0791  4.0059
18348TIP3   OH276534   4.956   1.819   0.680 -0.5830 -0.3499  0.3945
18348TIP3    H176535   4.928   1.901   0.639 -1.4478 -0.5036  0.6808
18348TIP3    H276536   5.030   1.844   0.735 -2.2588  0.6280  2.2311
18349TIP3   OH276537   0.263   2.750  12.569  0.4563  0.9814  0.2461
18349TIP3    H176538   0.309   2.735  12.487  3.1421 -0.9584  2.0081
18349TIP3    H276539   0.331   2.777  12.631 -1.4023  1.8652  1.9768
18350TIP3   OH276540   4.594   2.760  16.615 -0.6937 -0.3898  0.5709
18350TIP3    H176541   4.529   2.752  16.685 -0.9728  0.6762  0.4540
18350TIP3    H276542   4.624   2.851  16.621 -0.2904 -0.4614 -0.3147
18351TIP3   OH276543   0.759   5.093  14.943 -0.3791 -0.4657  0.4547
18351TIP3    H176544   0.846   5.069  14.911 -0.0169 -0.2338  1.2457
18351TIP3    H276545   0.749   5.186  14.920  0.3265 -0.0027  1.9525
18352TIP3   OH276546   2.675   0.350  15.079 -0.0167 -0.5467  0.4196
18352TIP3    H176547   2.751   0.387  15.033 -0.1360 -1.4970 -0.5654
18352TIP3    H276548   2.674   0.394  15.163  1.3507 -0.1674  0.2451
18353TIP3   OH276549   3.318   0.485   4.303  0.2309  0.0764 -0.6825
18353TIP3    H176550   3.379   0.558   4.317  1.8639 -1.7958  2.6476
18353TIP3    H276551   3.233   0.520   4.329  0.6748  1.3736 -0.9300
18354TIP3   OH276552   4.924   0.666  12.130  0.5918  0.1496  0.0974
18354TIP3    H176553   4.840   0.628  12.106  0.7703  0.0807 -0.4348
18354TIP3    H276554   4.971   0.673  12.047  1.1159  0.1725  0.3985
18355TIP3   OH276555   1.060   4.560  11.774  0.2178 -0.7266 -0.6330
18355TIP3    H176556   1.101   4.503  11.839  0.7838  1.6584  1.2107
18355TIP3    H276557   1.127   4.626  11.755 -0.5124 -0.4869 -2.4962
18356TIP3   OH276558   3.659   4.216   2.769  0.0746  0.2703  0.5417
18356TIP3    H176559   3.742   4.241   2.809 -0.5722  0.9530  1.4562
18356TIP3    H276560   3.629   4.140   2.819  0.4611 -0.3832 -0.2045
18357TIP3   OH276561   3.256   1.971   2.785  0.5186  0.3795 -0.0204
18357TIP3    H176562   3.251   1.973   2.880 -0.3735  1.3659 -0.0845
18357TIP3    H276563   3.165   1.977   2.755  0.7608 -0.2537 -0.9379
18358TIP3   OH276564   2.358   5.941  13.290  0.6925  0.0278 -0.0260
18358TIP3    H176565   2.425   5.960  13.356 -0.2672  1.2948  0.5982
18358TIP3    H276566   2.387   5.990  13.213 -0.8853  2.7994  1.0665
18359TIP3   OH276567   0.106   2.852  12.259  0.2612 -0.1462 -0.7931
18359TIP3    H176568   0.190   2.832  12.298  0.4519  0.6581 -0.7860
18359TIP3    H276569   0.042   2.836  12.328  0.4819  0.0442 -0.5463
18360TIP3   OH276570   4.789   4.295  15.201  0.1866  0.1418 -0.0026
18360TIP3    H176571   4.816   4.387  15.203 -0.3045  0.3040 -0.5769
18360TIP3    H276572   4.865   4.249  15.165  0.5492  0.2754  0.5768
18361TIP3   OH276573   2.957   6.073   2.218 -0.0531  0.3047 -0.1546
18361TIP3    H176574   3.023   6.025   2.168 -0.1192 -0.8361  0.8218
18361TIP3    H276575   2.973   6.165   2.197  0.4008 -0.0959 -1.6695
18362TIP3   OH276576   4.839   3.737   5.682 -0.4075  0.1046  0.1698
18362TIP3    H176577   4.903   3.750   5.613  1.0551 -0.4006  1.4010
18362TIP3    H276578   4.793   3.656   5.659 -0.0641  0.0488 -0.3100
18363TIP3   OH276579   4.663   6.799  16.473  0.8468 -0.1630  0.1689
18363TIP3    H176580   4.644   6.800  16.567  3.5184  0.1080  0.7420
18363TIP3    H276581   4.669   6.706  16.451  0.4274 -0.2234  0.2967
18364TIP3   OH276582   5.912   0.652  12.461  0.1989  0.4100 -0.3716
18364TIP3    H176583   5.896   0.741  12.491 -1.4736 -0.1380  0.4204
18364TIP3    H276584   5.968   0.613  12.529 -0.3665  0.3688  0.0687
18365TIP3   OH276585   3.843   4.015   4.479  0.2224 -0.0329 -0.1500
18365TIP3    H176586   3.904   3.941   4.480  2.8604  2.0639 -0.0659
18365TIP3    H276587   3.852   4.054   4.566 -0.2297  1.0829 -0.5938
18366TIP3   OH276588   4.980   3.197  16.530 -0.6955  0.3492  0.2148
18366TIP3    H176589   5.033   3.262  16.577 -0.1170  0.5778 -0.7279
18366TIP3    H276590   4.983   3.226  16.439 -1.5586 -0.2495 -0.0093
18367TIP3   OH276591   3.112   1.145  16.437 -0.4508 -0.4126 -0.5359
18367TIP3    H176592   3.081   1.200  16.365  1.7597  0.2925 -0.9939
18367TIP3    H276593   3.137   1.208  16.505  1.7738 -0.8424 -0.9301
18368TIP3   OH276594   0.130   0.418  12.099  1.2025  0.2074 -0.1992
18368TIP3    H176595   0.224   0.400  12.094  1.5277  1.6352  0.5459
18368TIP3    H276596   0.117   0.451  12.188 -0.3907 -2.0857  0.4729
18369TIP3   OH276597   0.382   0.452  10.980 -0.1589  0.4504  0.0505
18369TIP3    H176598   0.439   0.420  11.049  0.1037  1.1132  0.1438
18369TIP3    H276599   0.312   0.499  11.026  0.0214  0.9012 -0.1323
18370TIP3   OH276600   6.297   0.296  17.113 -0.0894  0.4730  0.0187
18370TIP3    H176601   6.342   0.367  17.068 -1.4848  1.7713  0.6377
18370TIP3    H276602   6.204   0.316  17.101 -0.5001 -1.3577  0.0225
18371TIP3   OH276603   2.846   1.917  14.700 -0.2156 -0.4815  0.0668
18371TIP3    H176604   2.933   1.888  14.728 -0.1820 -1.4671 -1.0378
18371TIP3    H276605   2.852   2.012  14.697  0.1488 -0.4034  2.1755
18372TIP3   OH276606   3.244   2.248  17.060 -0.4531 -0.3626 -0.1161
18372TIP3    H176607   3.193   2.183  17.109 -1.8824  0.4043 -0.5550
18372TIP3    H276608   3.305   2.197  17.008  0.8303 -1.2118  2.1711
18373TIP3   OH276609   6.306   4.253   3.645 -0.1272 -0.5841 -0.3429
18373TIP3    H176610   6.291   4.237   3.552 -2.4415 -0.1131 -0.1028
18373TIP3    H276611   6.294   4.168   3.687  2.2678 -1.0642 -0.6053
18374TIP3   OH276612   1.943   0.409  13.268  0.3279  0.4375  0.6816
18374TIP3    H176613   2.033   0.412  13.301  0.3377 -0.4448  0.7409
18374TIP3    H276614   1.914   0.501  13.269  1.4822  0.8199 -0.0379
18375TIP3   OH276615   1.104   2.902  12.993 -0.5550  0.0058  0.3439
18375TIP3    H176616   1.046   2.856  12.932 -0.3648  1.5520 -1.0427
18375TIP3    H276617   1.172   2.839  13.014 -1.3546 -0.9820 -0.0106
18376TIP3   OH276618   4.270   6.087  15.495  0.1575 -0.4178 -0.7036
18376TIP3    H176619   4.264   6.126  15.407 -1.8977 -2.5164 -1.5463
18376TIP3    H276620   4.185   6.105  15.534 -0.3139 -2.7896 -0.5818
18377TIP3   OH276621   2.270   5.186  16.266 -0.2507  0.3052  0.3806
18377TIP3    H176622   2.311   5.262  16.225 -1.6924  0.4016 -0.9370
18377TIP3    H276623   2.322   5.112  16.237 -1.0799  0.4054 -1.4546
18378TIP3   OH276624   2.734   5.488   4.538  0.6844 -0.5997  0.9313
18378TIP3    H176625   2.743   5.393   4.545 -0.9711 -1.0155 -1.9436
18378TIP3    H276626   2.822   5.519   4.518  1.1806 -1.5545  1.6106
18379TIP3   OH276627   2.583   0.428  15.472 -0.4217 -0.4475 -0.1268
18379TIP3    H176628   2.584   0.521  15.446 -0.7577 -0.2306  0.6298
18379TIP3    H276629   2.645   0.423  15.545 -0.6145 -0.7674  0.0147
18380TIP3   OH276630   6.143   4.873   6.025  0.7377 -0.1952 -0.2639
18380TIP3    H176631   6.088   4.942   6.063  0.5210  0.2699 -1.3995
18380TIP3    H276632   6.209   4.855   6.092  0.3706  0.6121  0.3234
18381TIP3   OH276633   1.579   4.762  11.468  0.0133 -0.0257  0.4796
18381TIP3    H176634   1.570   4.688  11.408 -1.6339  0.3962  0.1920
18381TIP3    H276635   1.513   4.747  11.535  1.2607 -0.0376  1.7304
18382TIP3   OH276636   4.166   4.223  12.510  0.4409  0.0609 -0.0053
18382TIP3    H176637   4.173   4.130  12.531  0.1813 -0.1517 -0.8379
18382TIP3    H276638   4.106   4.226  12.435 -0.3836  0.9834  0.6802
18383TIP3   OH276639   1.108   5.943  13.587  0.1359 -0.4465  0.2278
18383TIP3    H176640   1.044   5.892  13.636  0.9255 -0.0764  1.7065
18383TIP3    H276641   1.187   5.941  13.642  1.1392 -0.2501 -1.1796
18384TIP3   OH276642   3.163   2.073  10.335 -0.4066 -0.0463  0.1099
18384TIP3    H176643   3.195   2.108  10.418 -0.7475  1.2436 -0.2963
18384TIP3    H276644   3.153   1.979  10.352  1.5075 -0.1456  0.8960
18385TIP3   OH276645   5.381   5.685   0.715 -0.1608 -0.2138 -0.2602
18385TIP3    H176646   5.422   5.771   0.716 -0.5165 -0.0418 -0.9303
18385TIP3    H276647   5.387   5.655   0.806  0.7869  0.1246 -0.2027
18386TIP3   OH276648   1.063   3.106   3.946  0.7971 -0.5847 -0.4392
18386TIP3    H176649   0.990   3.046   3.933 -0.7861  0.8810  1.2912
18386TIP3    H276650   1.124   3.058   4.002  1.2860 -1.8973 -2.0606
18387TIP3   OH276651   6.722   1.314   4.317 -0.1914 -0.5125 -0.3857
18387TIP3    H176652   6.733   1.238   4.375  1.3738 -1.1441 -1.4825
18387TIP3    H276653   6.708   1.276   4.230  0.8478  0.4651 -0.9832
18388TIP3   OH276654   1.999   2.406   1.883 -0.2595 -0.0156 -0.2587
18388TIP3    H176655   2.063   2.342   1.854 -0.0522  1.2227 -2.6520
18388TIP3    H276656   1.914   2.365   1.867 -0.1235 -1.0140  1.4184
18389TIP3   OH276657   5.316   3.533  16.894  0.0064 -0.0776  0.0588
18389TIP3    H176658   5.373   3.610  16.897  2.3596 -1.8297  1.6830
18389TIP3    H276659   5.375   3.459  16.903 -2.1257 -2.1684 -2.3423
18390TIP3   OH276660   5.681   2.159  12.875 -0.5682  0.0954 -0.5814
18390TIP3    H176661   5.616   2.162  12.946  0.1899 -1.8260  0.2314
18390TIP3    H276662   5.665   2.239  12.825 -1.6330  1.1232  1.3150
18391TIP3   OH276663   5.551   2.327   4.768  0.1087  0.3623 -0.0959
18391TIP3    H176664   5.527   2.253   4.824  1.2768  1.2537  1.6573
18391TIP3    H276665   5.537   2.404   4.823 -0.6831  1.4272 -1.7526
18392TIP3   OH276666   6.037   3.305   3.998 -0.4327 -0.1468  0.3304
18392TIP3    H176667   6.009   3.396   3.998 -2.6128 -0.7941  0.8545
18392TIP3    H276668   6.006   3.270   4.081  1.8358 -0.9482  0.8657
18393TIP3   OH276669   6.072   0.303   4.665 -0.1032 -0.0342 -0.6348
18393TIP3    H176670   6.093   0.270   4.578 -1.2716 -1.3586 -0.4282
18393TIP3    H276671   6.019   0.382   4.649  1.2967  0.8292 -1.1131
18394TIP3   OH276672   5.367   4.985   5.756 -0.1012  0.2287  0.0575
18394TIP3    H176673   5.349   5.032   5.837  0.0739 -0.5542  0.5568
18394TIP3    H276674   5.305   5.022   5.693  1.1043  2.2459  0.0056
18395TIP3   OH276675   5.198   4.522   6.041 -0.4445  0.5036 -0.1463
18395TIP3    H176676   5.103   4.524   6.038 -0.6111 -2.7987  0.9095
18395TIP3    H276677   5.219   4.492   6.129  1.3672 -3.0473 -1.6629
18396TIP3   OH276678   5.582   3.808   2.346 -0.5966  0.6471  0.0137
18396TIP3    H176679   5.564   3.871   2.276 -1.0290  1.1525  0.5741
18396TIP3    H276680   5.524   3.735   2.328 -0.3829  0.5781 -0.4101
18397TIP3   OH276681   1.457   6.694   5.024  0.6568  0.2584 -0.4769
18397TIP3    H176682   1.518   6.750   5.071  1.5037 -0.9951 -0.0895
18397TIP3    H276683   1.504   6.613   5.008 -0.9470 -0.7909 -0.0397
18398TIP3   OH276684   0.153   4.240  14.054 -0.6423  0.2648 -0.0183
18398TIP3    H176685   0.224   4.235  14.117  0.2651 -0.8977 -1.1130
18398TIP3    H276686   0.112   4.325  14.070  1.9396  1.5972 -0.3806
18399TIP3   OH276687   4.513   3.958   1.541  0.0542 -0.4224  0.1963
18399TIP3    H176688   4.540   3.949   1.632 -1.6342 -0.7050  0.7004
18399TIP3    H276689   4.426   3.997   1.546  1.1120  2.2629 -1.4287
18400TIP3   OH276690   0.514   3.972   4.084 -0.1056  0.1422  0.1558
18400TIP3    H176691   0.590   3.997   4.032  0.0979 -0.2343  0.2698
18400TIP3    H276692   0.502   4.044   4.146 -0.3030  0.5548 -0.3612
18401TIP3   OH276693   4.572   3.204   2.501 -0.2244 -0.3255 -0.0026
18401TIP3    H176694   4.646   3.145   2.514 -0.5070 -1.5191 -3.3085
18401TIP3    H276695   4.607   3.274   2.445 -0.9921  0.3424  0.3480
18402TIP3   OH276696   3.108   1.073  12.834 -0.1495 -0.0739 -0.1031
18402TIP3    H176697   3.021   1.104  12.860  0.2771 -0.6703  2.1591
18402TIP3    H276698   3.132   1.130  12.761 -0.9586  2.4849  1.5309
18403TIP3   OH276699   5.724   4.961   4.109  0.2023 -0.2146 -0.1742
18403TIP3    H176700   5.680   4.882   4.077  0.8390 -0.3232 -0.8061
18403TIP3    H276701   5.747   5.010   4.029  0.7506  0.0941  0.1662
18404TIP3   OH276702   3.911   0.639  11.952  0.2697  0.3643  0.0416
18404TIP3    H176703   3.923   0.734  11.953 -1.4812  0.5915  0.4828
18404TIP3    H276704   3.953   0.609  12.032  1.8493  0.6246 -0.6747
18405TIP3   OH276705   1.236   6.269  11.618 -0.6933  0.0396 -0.1687
18405TIP3    H176706   1.158   6.286  11.670  1.0094 -0.1501  2.5544
18405TIP3    H276707   1.289   6.210  11.672  1.8921  1.1491 -1.3924
18406TIP3   OH276708   3.766   4.892   6.004  0.4602 -0.2029 -0.6320
18406TIP3    H176709   3.716   4.840   5.941 -1.6090  1.4724 -0.4502
18406TIP3    H276710   3.855   4.857   6.000 -0.6633 -3.1080 -1.1788
18407TIP3   OH276711   0.586   5.587   3.660  0.6284 -0.3523 -0.0810
18407TIP3    H176712   0.570   5.666   3.712 -0.9818  0.6884 -2.1169
18407TIP3    H276713   0.629   5.619   3.580 -0.9306 -1.4006 -1.3515
18408TIP3   OH276714   2.799   4.812  12.312 -0.2148 -0.7094  0.4605
18408TIP3    H176715   2.873   4.862  12.278 -1.1407  0.8163  0.6666
18408TIP3    H276716   2.728   4.827  12.250 -0.2638 -2.4910  0.0435
18409TIP3   OH276717   6.646   5.096  13.540 -0.0945  0.6736  0.3312
18409TIP3    H176718   6.623   5.082  13.448  0.1272 -1.0562  0.5201
18409TIP3    H276719   6.739   5.071  13.545 -0.1062  0.7592  1.0248
18410TIP3   OH276720   3.269   1.507   0.765 -0.2770  0.5004 -0.2377
18410TIP3    H176721   3.292   1.417   0.790  1.2189  1.0798  0.5737
18410TIP3    H276722   3.296   1.559   0.840  0.4401  1.8172 -1.3874
18411TIP3   OH276723   0.842   4.422   3.174  0.0390  0.2721  0.1726
18411TIP3    H176724   0.860   4.500   3.121  0.5550 -0.6008 -0.9518
18411TIP3    H276725   0.842   4.454   3.264  2.4898  1.1694 -0.1028
18412TIP3   OH276726   3.562   0.983   2.107 -0.3683 -0.4349  0.0850
18412TIP3    H176727   3.470   0.983   2.133 -0.6780  1.0296 -0.9253
18412TIP3    H276728   3.605   0.924   2.169 -1.9215 -0.8456  0.7903
18413TIP3   OH276729   4.696   0.817   2.825 -0.2860 -0.8967 -0.1249
18413TIP3    H176730   4.789   0.793   2.828  0.0954  0.7206  1.6648
18413TIP3    H276731   4.650   0.734   2.839  0.9520 -1.3130  1.6970
18414TIP3   OH276732   1.138   2.641   2.290 -0.1601  0.7906 -0.7141
18414TIP3    H176733   1.233   2.633   2.294 -0.3028 -0.1649  1.8308
18414TIP3    H276734   1.122   2.718   2.236  1.9528 -1.2974 -4.5377
18415TIP3   OH276735   5.583   1.839   0.479  0.2969  0.0576  0.0323
18415TIP3    H176736   5.564   1.834   0.386  0.9622  1.7120 -0.2102
18415TIP3    H276737   5.516   1.785   0.521 -0.8271  0.4027 -1.3041
18416TIP3   OH276738   0.156   4.420   4.156 -0.8187 -0.4488 -0.3249
18416TIP3    H176739   0.192   4.420   4.244  1.4161 -0.9980 -1.1945
18416TIP3    H276740   0.061   4.419   4.168 -0.5223 -2.0713  2.0643
18417TIP3   OH276741   1.149   1.286  12.171  0.0303  0.3144  0.5104
18417TIP3    H176742   1.114   1.201  12.145  1.4113 -0.1955  0.2446
18417TIP3    H276743   1.072   1.342  12.183 -0.8495 -0.7503 -0.0953
18418TIP3   OH276744   1.788   4.594  13.918  0.1127  0.4728 -0.3187
18418TIP3    H176745   1.827   4.626  13.999 -0.5918  0.0969  0.1829
18418TIP3    H276746   1.856   4.541  13.877 -0.0634 -0.6980  0.8547
18419TIP3   OH276747   4.200   4.955   5.475 -0.3178 -0.1610  0.5748
18419TIP3    H176748   4.248   4.936   5.555  0.8708 -2.3636 -0.6278
18419TIP3    H276749   4.267   4.964   5.407 -1.3820  0.3953 -0.4363
18420TIP3   OH276750   2.719   4.793  15.489 -0.0798  0.0993 -0.4385
18420TIP3    H176751   2.626   4.815  15.477 -0.6218 -1.6461  0.3358
18420TIP3    H276752   2.746   4.845  15.565 -0.1749  1.2812 -1.1999
18421TIP3   OH276753   5.222   2.580   0.931  0.8514 -0.0835  0.8585
18421TIP3    H176754   5.136   2.552   0.901  1.3073  0.2278 -0.8143
18421TIP3    H276755   5.207   2.661   0.979  0.2391  0.0485  0.4375
18422TIP3   OH276756   1.150   0.493   1.616  0.5897 -0.1507 -0.1511
18422TIP3    H176757   1.132   0.402   1.637  1.1087 -0.5397 -1.3437
18422TIP3    H276758   1.064   0.534   1.608  0.3290 -0.8998 -1.1833
18423TIP3   OH276759   2.533   6.352   4.095 -0.4033  0.3407 -0.0985
18423TIP3    H176760   2.597   6.345   4.024 -0.4144  0.6652 -0.1413
18423TIP3    H276761   2.584   6.380   4.171 -0.2233 -0.9674  0.2709
18424TIP3   OH276762   1.727   5.599  16.218 -0.6057  0.4952  0.1436
18424TIP3    H176763   1.740   5.513  16.258 -1.2926  1.4979  2.6448
18424TIP3    H276764   1.632   5.610  16.215 -0.5414  0.7584 -1.0859
18425TIP3   OH276765   0.419   1.667  15.286  0.2715 -0.3428 -0.1052
18425TIP3    H176766   0.512   1.684  15.270  0.4320 -0.5893  0.5479
18425TIP3    H276767   0.378   1.753  15.288  0.8985 -0.0753  2.1148
18426TIP3   OH276768   6.654   2.471  15.194  0.3266 -0.0209  0.4874
18426TIP3    H176769   6.700   2.438  15.271  0.4112  2.1570  1.3947
18426TIP3    H276770   6.710   2.541  15.160  0.0452 -0.6045 -1.2687
18427TIP3   OH276771   6.026   0.829  14.620 -0.2498  0.5993 -0.1646
18427TIP3    H176772   6.076   0.760  14.576  0.8104  0.7062  0.8355
18427TIP3    H276773   6.055   0.910  14.576  0.2847  0.6372  0.2527
18428TIP3   OH276774   0.534   1.674   5.238  0.8369 -0.2125 -0.0722
18428TIP3    H176775   0.561   1.655   5.328  1.0264 -1.1095 -0.3115
18428TIP3    H276776   0.616   1.669   5.188  1.0292  2.0787 -0.0197
18429TIP3   OH276777   1.733   5.453  15.573 -0.1839 -0.4694  0.0153
18429TIP3    H176778   1.804   5.437  15.510  0.9328  0.2858  1.0536
18429TIP3    H276779   1.653   5.442  15.522  0.6013 -4.0588 -0.5408
18430TIP3   OH276780   0.311   5.028  15.551  0.3136  0.5437  0.7670
18430TIP3    H176781   0.337   5.110  15.592  0.0693  0.5985  0.8183
18430TIP3    H276782   0.340   5.035  15.461 -1.0532  1.3328  0.3662
18431TIP3   OH276783   1.484   6.387  12.045 -0.4622 -0.0741  0.3960
18431TIP3    H176784   1.462   6.294  12.032 -2.3435  0.4380 -0.2271
18431TIP3    H276785   1.562   6.401  11.992 -1.1395 -0.9176 -0.8576
18432TIP3   OH276786   5.227   1.592  14.872  0.0179 -0.4585  0.1256
18432TIP3    H176787   5.245   1.636  14.955 -3.8028 -2.4561  2.1376
18432TIP3    H276788   5.198   1.662  14.814  1.4394  0.7700  0.8670
18433TIP3   OH276789   1.364   5.036  13.332  0.2168 -0.0871  0.4488
18433TIP3    H176790   1.278   5.029  13.290  0.7441 -1.1331 -0.4768
18433TIP3    H276791   1.409   5.105  13.283  0.4061 -0.4869  0.0664
18434TIP3   OH276792   4.988   3.552  13.648  0.5999 -0.0363  0.1454
18434TIP3    H176793   5.055   3.603  13.694  0.7186  0.0385 -0.1110
18434TIP3    H276794   5.032   3.520  13.570  1.1125 -2.1465  1.2541
18435TIP3   OH276795   5.739   4.605  16.054 -0.3102 -0.3243  0.0195
18435TIP3    H176796   5.812   4.581  16.112 -1.2368  1.1661  1.8402
18435TIP3    H276797   5.744   4.541  15.983  2.9093 -0.1254 -0.0218
18436TIP3   OH276798   2.439   4.784   6.325 -0.4097 -0.1864 -0.3270
18436TIP3    H176799   2.486   4.705   6.352  1.3004  1.0059  0.2727
18436TIP3    H276800   2.347   4.765   6.346 -0.0317 -2.0073 -0.2046
18437TIP3   OH276801   4.654   3.108   2.802  0.2438  0.3112 -0.1441
18437TIP3    H176802   4.637   3.021   2.767  1.3726 -0.3262  0.8420
18437TIP3    H276803   4.736   3.135   2.760  1.2147 -0.1503  1.4097
18438TIP3   OH276804   1.864   4.968   5.939 -0.4348  0.3273 -0.3850
18438TIP3    H176805   1.774   4.998   5.925 -0.2588  0.8883 -0.2975
18438TIP3    H276806   1.882   4.988   6.031  1.0529  3.5689 -1.3384
18439TIP3   OH276807   1.956   5.592   0.818 -0.9901 -0.9562  0.6328
18439TIP3    H176808   1.939   5.656   0.887 -2.0992 -0.6115  0.0680
18439TIP3    H276809   1.974   5.645   0.740 -2.2736 -1.3134  0.0793
18440TIP3   OH276810   3.802   4.602  16.578  0.3252 -0.1453 -0.0019
18440TIP3    H176811   3.861   4.669  16.612  0.1267  0.5027 -0.9299
18440TIP3    H276812   3.748   4.578  16.654  0.0656  1.0995  0.2152
18441TIP3   OH276813   5.129   3.812   2.780  0.2067  0.4938 -0.1808
18441TIP3    H176814   5.177   3.855   2.709  0.0715  3.1538  1.2695
18441TIP3    H276815   5.062   3.876   2.806 -0.3785 -0.8272  1.6906
18442TIP3   OH276816   2.756   1.832  12.160  0.1156 -0.1190  0.3344
18442TIP3    H176817   2.850   1.831  12.177  0.7515 -2.1851 -2.7648
18442TIP3    H276818   2.717   1.786  12.234  1.7424 -0.7057  0.8491
18443TIP3   OH276819   1.197   0.062  14.145  0.6750 -0.1610  0.0632
18443TIP3    H176820   1.288   0.082  14.170  1.6894 -1.2254 -2.5157
18443TIP3    H276821   1.206   0.019  14.059 -2.0983 -2.4110  0.8354
18444TIP3   OH276822   0.860   0.302   0.758  0.0541  0.1043  0.2950
18444TIP3    H176823   0.880   0.383   0.806 -0.7122 -0.1769  1.1110
18444TIP3    H276824   0.824   0.332   0.675 -2.0925  0.6420  1.3773
18445TIP3   OH276825   6.222   1.237  15.370  0.4178  0.5510 -0.3592
18445TIP3    H176826   6.164   1.240  15.294  1.3505  0.1027 -1.0983
18445TIP3    H276827   6.230   1.144  15.391  1.2683  0.5755 -0.5683
18446TIP3   OH276828   5.302   1.636  16.926  0.8053  0.4471  0.0749
18446TIP3    H176829   5.312   1.731  16.930  0.6817  0.4254  0.9688
18446TIP3    H276830   5.333   1.605  17.011  0.9045 -0.3184 -0.2369
18447TIP3   OH276831   4.164   0.422   2.743 -0.3263  0.0055 -0.0423
18447TIP3    H176832   4.184   0.374   2.662  1.2071 -0.3721  0.5363
18447TIP3    H276833   4.207   0.507   2.731 -0.5885  0.1660  0.1463
18448TIP3   OH276834   4.698   6.218  12.920  0.7251 -0.2626 -0.3283
18448TIP3    H176835   4.697   6.234  13.014 -0.3155 -0.3367 -0.3112
18448TIP3    H276836   4.768   6.274  12.886 -0.2647  1.3514  0.2343
18449TIP3   OH276837   4.340   1.277  15.729 -0.5562 -0.2691 -0.1185
18449TIP3    H176838   4.385   1.223  15.664 -1.2080  0.7865 -1.4912
18449TIP3    H276839   4.384   1.362  15.725 -1.4722  0.2145 -0.1668
18450TIP3   OH276840   2.070   3.191  14.225 -0.2218 -0.6625 -0.0226
18450TIP3    H176841   2.108   3.139  14.153  0.9772  0.6292 -0.3429
18450TIP3    H276842   1.975   3.180  14.215 -0.0325 -1.2844 -1.2108
18451TIP3   OH276843   4.758   4.660  12.222 -0.1150  0.7665 -0.0748
18451TIP3    H176844   4.759   4.652  12.317  1.4560 -2.6310 -0.2991
18451TIP3    H276845   4.704   4.586  12.193 -1.2821  2.2714 -1.8099
18452TIP3   OH276846   5.305   0.963  11.347  0.0107  0.5106  0.2619
18452TIP3    H176847   5.257   0.914  11.414 -0.1837  2.1304  1.3472
18452TIP3    H276848   5.252   0.953  11.268 -0.2148 -0.6929  0.5466
18453TIP3   OH276849   3.158   6.304  16.099  0.0959 -0.5435 -0.9101
18453TIP3    H176850   3.171   6.390  16.061 -0.4386  0.4631  1.1169
18453TIP3    H276851   3.109   6.255  16.033 -0.0379  0.8682 -1.8640
18454TIP3   OH276852   3.664   5.618  14.780 -0.1824 -0.3499  1.1486
18454TIP3    H176853   3.663   5.710  14.753  0.3838 -0.7316 -0.1791
18454TIP3    H276854   3.756   5.592  14.772 -0.3680 -1.0837  1.3519
18455TIP3   OH276855   2.959   6.560   1.817  0.0036  0.0910 -0.0365
18455TIP3    H176856   2.937   6.467   1.816  0.6359 -0.0677  0.3046
18455TIP3    H276857   3.020   6.570   1.744 -1.3179  0.5627 -1.0940
18456TIP3   OH276858   0.569   6.140   0.490  0.3796  0.4188 -0.2088
18456TIP3    H176859   0.488   6.187   0.470  0.1505  0.3578  0.5723
18456TIP3    H276860   0.589   6.092   0.409 -1.0182 -0.5050 -0.0193
18457TIP3   OH276861   0.333   5.161  14.407 -0.3941 -0.1377 -0.1939
18457TIP3    H176862   0.416   5.203  14.382 -0.5360  0.8450  0.9437
18457TIP3    H276863   0.281   5.232  14.445 -1.3074 -0.9944  0.1683
18458TIP3   OH276864   5.738   4.861   0.330  0.4147 -0.4193 -0.0475
18458TIP3    H176865   5.744   4.924   0.402  1.5720 -0.2341 -0.3001
18458TIP3    H276866   5.785   4.784   0.361 -1.3554 -1.3383  0.4250
18459TIP3   OH276867   5.715   3.482   3.805  0.0061 -0.2514  0.0070
18459TIP3    H176868   5.757   3.415   3.751  2.0487  1.0904 -0.1400
18459TIP3    H276869   5.770   3.559   3.793 -2.3637  1.4733  0.1137
18460TIP3   OH276870   4.828   3.759   3.233 -0.4966 -0.6503 -0.8352
18460TIP3    H176871   4.740   3.753   3.197 -0.7098 -0.6749 -0.3121
18460TIP3    H276872   4.815   3.787   3.324  0.1109  1.0611 -1.2589
18461TIP3   OH276873   3.792   1.222   1.063 -0.6290 -0.1585  0.2041
18461TIP3    H176874   3.763   1.176   0.984 -1.8665  0.2607  0.3945
18461TIP3    H276875   3.847   1.159   1.109  1.9716  0.3622 -2.0809
18462TIP3   OH276876   3.468   1.790   2.622  0.0138 -0.4341 -0.1343
18462TIP3    H176877   3.421   1.854   2.675  0.3701  0.8422 -1.3073
18462TIP3    H276878   3.406   1.765   2.554  0.2930 -0.3910 -0.4078
18463TIP3   OH276879   2.435   3.545  14.367  0.4116 -0.2619  0.4686
18463TIP3    H176880   2.482   3.464  14.349  0.5368 -0.5768  2.1411
18463TIP3    H276881   2.343   3.518  14.377  0.0990  0.1214 -1.0868
18464TIP3   OH276882   5.567   4.854  12.116  0.0755  0.2120 -0.1545
18464TIP3    H176883   5.627   4.788  12.081 -0.1520  0.4829 -1.0706
18464TIP3    H276884   5.484   4.807  12.127 -0.0088  0.2776 -0.5266
18465TIP3   OH276885   0.728   3.099   3.915  0.5131 -0.3596 -0.1217
18465TIP3    H176886   0.655   3.069   3.861  1.0260  0.7018 -1.4271
18465TIP3    H276887   0.762   3.175   3.869  1.6331 -0.0711  1.1583
18466TIP3   OH276888   3.035   4.939  16.675 -0.1015 -0.5372  0.5225
18466TIP3    H176889   2.968   4.966  16.612 -1.0713 -1.2979  1.2276
18466TIP3    H276890   2.996   4.954  16.760  0.8030 -0.5680  0.9480
18467TIP3   OH276891   2.786   0.623  12.590 -0.1507 -0.1720 -0.3053
18467TIP3    H176892   2.745   0.603  12.675 -2.3305  0.6134 -1.1318
18467TIP3    H276893   2.836   0.703  12.606 -0.3044 -0.1984  0.3223
18468TIP3   OH276894   2.235   2.150   3.510  0.0732  0.4391  0.0511
18468TIP3    H176895   2.194   2.075   3.467 -2.3686  1.2745  0.8307
18468TIP3    H276896   2.219   2.136   3.603  2.1688  0.4823  0.4556
18469TIP3   OH276897   3.227   3.354  14.423  0.6094  0.1961  0.0574
18469TIP3    H176898   3.281   3.310  14.357  2.0159  2.3370 -0.2672
18469TIP3    H276899   3.288   3.408  14.472 -0.8502  0.6444  1.4390
18470TIP3   OH276900   4.881   5.537   0.054 -0.6444  0.4337  0.7913
18470TIP3    H176901   4.814   5.543   0.122 -0.3107 -2.7058  1.4928
18470TIP3    H276902   4.850   5.468  -0.004  0.7843  0.6636 -0.2785
18471TIP3   OH276903   4.074   4.677  13.132 -0.1680 -0.2562 -0.0014
18471TIP3    H176904   4.065   4.746  13.197  0.6226  1.8354 -2.0415
18471TIP3    H276905   4.021   4.707  13.057  1.6668 -0.9336 -1.6150
18472TIP3   OH276906   5.362   0.867  15.518 -0.3511  0.1412  0.4081
18472TIP3    H176907   5.299   0.928  15.480  0.1043 -0.1102 -0.7610
18472TIP3    H276908   5.445   0.889  15.477 -0.2031 -1.3361 -0.1434
18473TIP3   OH276909   6.300   2.894   3.673 -0.4315  0.1111  0.5678
18473TIP3    H176910   6.210   2.879   3.703 -0.1868  1.6808  2.1505
18473TIP3    H276911   6.295   2.974   3.621  0.2595  0.9155  1.7247
18474TIP3   OH276912   0.149   0.945  16.100  0.2483 -0.0256 -0.3045
18474TIP3    H176913   0.121   0.853  16.092  0.4263 -0.2749  1.7405
18474TIP3    H276914   0.167   0.957  16.193  0.3136  2.0831 -0.5659
18475TIP3   OH276915   0.708   5.586  13.198  0.0029 -0.0282  0.4943
18475TIP3    H176916   0.684   5.619  13.112 -0.2179 -1.3043  0.0492
18475TIP3    H276917   0.804   5.577  13.194  0.0465  0.3807  0.5613
18476TIP3   OH276918   1.498   3.520  14.935  0.7228  0.1424 -0.0594
18476TIP3    H176919   1.589   3.503  14.958  0.9749  0.9990 -0.4007
18476TIP3    H276920   1.475   3.449  14.874  1.0421 -0.2858  0.3173
18477TIP3   OH276921   4.897   5.613  15.346 -0.1385 -0.1487 -0.3965
18477TIP3    H176922   4.898   5.635  15.439  0.1789 -0.2847 -0.3687
18477TIP3    H276923   4.817   5.562  15.334 -1.3217  1.7026 -0.6189
18478TIP3   OH276924   3.276   0.509   1.871  0.3891 -0.0954 -0.1061
18478TIP3    H176925   3.259   0.451   1.945  1.5542  1.9611  1.8490
18478TIP3    H276926   3.343   0.570   1.903 -0.4568  2.0454 -2.2200
18479TIP3   OH276927   1.075   4.083   5.246 -0.9653 -0.1553 -0.2897
18479TIP3    H176928   1.165   4.109   5.269 -1.5489  1.1568  0.5677
18479TIP3    H276929   1.060   4.124   5.161 -0.1778 -1.7525 -1.2090
18480TIP3   OH276930   6.307   1.560  15.193  0.3285 -0.4677 -0.9669
18480TIP3    H176931   6.242   1.545  15.262 -0.6731  1.3104 -1.4757
18480TIP3    H276932   6.391   1.540  15.235 -0.4110 -1.2451  0.1888
18481TIP3   OH276933   2.823   3.646  15.620  0.3697 -0.6426 -0.1482
18481TIP3    H176934   2.775   3.572  15.582 -2.0564  0.6877  0.2234
18481TIP3    H276935   2.864   3.690  15.546 -1.4184 -0.1166 -0.8386
18482TIP3   OH276936   3.022   3.622  12.066 -0.3300 -0.2456  0.8096
18482TIP3    H176937   3.004   3.627  12.159 -0.2141  2.2123  0.7159
18482TIP3    H276938   3.058   3.707  12.043 -0.4253 -0.7843 -1.5019
18483TIP3   OH276939   3.425   1.758   0.814  0.1234 -0.3279 -0.5653
18483TIP3    H176940   3.518   1.760   0.837  0.0323 -2.3636  0.1010
18483TIP3    H276941   3.421   1.709   0.732 -0.5309 -1.9246  0.3999
18484TIP3   OH276942   5.525   0.054   5.729  0.4600 -0.0575 -0.3895
18484TIP3    H176943   5.540   0.128   5.670  1.4739  1.9107  2.2402
18484TIP3    H276944   5.480   0.093   5.804  1.4717 -2.0181  1.2734
18485TIP3   OH276945   1.491   6.111   2.796  0.1907  0.3028  0.7825
18485TIP3    H176946   1.501   6.172   2.723  0.7746  0.3520  0.9045
18485TIP3    H276947   1.410   6.140   2.839 -0.8927 -0.5555 -0.6256
18486TIP3   OH276948   3.641   2.677  11.570 -0.4171 -0.4385 -0.2391
18486TIP3    H176949   3.631   2.590  11.531 -0.8599 -0.6555  0.3681
18486TIP3    H276950   3.615   2.737  11.500  1.4669 -0.7158 -1.2322
18487TIP3   OH276951   3.486   0.103   5.931 -0.1789 -0.0135 -0.5964
18487TIP3    H176952   3.452   0.104   6.020  0.5844  0.2473 -0.2976
18487TIP3    H276953   3.533   0.186   5.922  1.9923 -1.1576 -0.3392
18488TIP3   OH276954   5.184   5.745   1.237  0.0026  0.1795  0.0036
18488TIP3    H176955   5.117   5.774   1.299 -0.6274 -1.7272  0.2645
18488TIP3    H276956   5.264   5.788   1.267 -0.8135  1.3356  0.5671
18489TIP3   OH276957   2.304   1.411   5.841  0.5262 -0.4087  0.4579
18489TIP3    H176958   2.374   1.384   5.901  0.4808 -0.4869  0.4752
18489TIP3    H276959   2.310   1.349   5.768  0.8734 -0.0386  0.1672
18490TIP3   OH276960   6.596   6.040   4.732 -0.5321  0.3347  0.1168
18490TIP3    H176961   6.602   5.988   4.812 -0.3118  1.5166  0.8875
18490TIP3    H276962   6.656   6.113   4.747  0.9439 -0.4184 -1.8924
18491TIP3   OH276963   2.729   0.432   2.143 -0.0547  0.3461 -0.4276
18491TIP3    H176964   2.664   0.431   2.073  1.1977  4.0142 -1.7705
18491TIP3    H276965   2.705   0.508   2.197  1.7432  0.3655  0.3883
18492TIP3   OH276966   0.169   3.410  12.399 -0.0369 -0.3897 -0.6704
18492TIP3    H176967   0.246   3.451  12.359 -0.1590  0.6256  0.1104
18492TIP3    H276968   0.123   3.370  12.325  0.3630  0.4490 -1.3937
18493TIP3   OH276969   4.021   1.613   3.372 -0.1070  0.5605  0.0767
18493TIP3    H176970   3.999   1.599   3.464  1.4942  0.1790  0.4247
18493TIP3    H276971   3.943   1.587   3.323 -0.7449  0.1749  1.2972
18494TIP3   OH276972   6.400   3.656   0.530 -0.2100 -0.0878 -0.2989
18494TIP3    H176973   6.306   3.660   0.545 -0.2487  0.6450 -0.7021
18494TIP3    H276974   6.409   3.609   0.447 -0.1548 -1.2203  0.3354
18495TIP3   OH276975   6.273   1.425  14.597  0.2977  0.3231 -0.2170
18495TIP3    H176976   6.274   1.330  14.592  1.1988  0.3181  0.0596
18495TIP3    H276977   6.353   1.453  14.552  1.0085  0.8683  1.3660
18496TIP3   OH276978   5.520   2.064   3.247  0.2279  0.2521  0.1389
18496TIP3    H176979   5.594   2.006   3.264 -0.8833 -0.7671  1.7518
18496TIP3    H276980   5.558   2.151   3.235  1.7027 -0.3557  0.3782
18497TIP3   OH276981   2.128   2.889  16.926 -0.1246 -0.8404  0.3838
18497TIP3    H176982   2.143   2.983  16.926  1.7011 -1.1206 -0.0013
18497TIP3    H276983   2.102   2.869  17.016 -4.2660  0.5590 -0.3874
18498TIP3   OH276984   2.915   4.092   5.988 -0.3865 -0.0512  0.2752
18498TIP3    H176985   2.916   4.009   6.035 -1.3650  0.3016  0.9491
18498TIP3    H276986   2.982   4.083   5.921  0.9596 -0.6022  1.6710
18499TIP3   OH276987   5.621   6.351   4.161  0.2886  0.9098  0.4735
18499TIP3    H176988   5.639   6.344   4.067 -0.2262 -2.9216  0.5621
18499TIP3    H276989   5.527   6.332   4.169  0.3328  1.1895  1.7622
18500TIP3   OH276990   5.480   0.683  14.853 -0.0817  0.0105 -0.2129
18500TIP3    H176991   5.498   0.699  14.760 -0.2519 -2.4421 -0.7032
18500TIP3    H276992   5.542   0.615  14.879 -3.0139 -2.6340  0.2107
18501TIP3   OH276993   3.715   4.299  15.583  0.1323 -0.2416 -0.1565
18501TIP3    H176994   3.643   4.362  15.580  0.8076  0.5410 -0.6975
18501TIP3    H276995   3.699   4.240  15.510 -0.4399 -0.6170  0.2761
18502TIP3   OH276996   5.487   1.901   2.449 -0.4610 -0.1764  0.4200
18502TIP3    H176997   5.421   1.932   2.387  0.0385 -1.1519 -0.6033
18502TIP3    H276998   5.487   1.968   2.517 -2.5583 -0.1943  0.4888
18503TIP3   OH276999   1.037   3.599  16.369  0.3715 -0.2618 -0.3586
18503TIP3    H177000   0.981   3.674  16.355  1.1325  0.2147 -0.9043
18503TIP3    H277001   0.997   3.528  16.318 -1.2599 -0.7009  1.4627
18504TIP3   OH277002   6.317   3.424  11.580  0.4806 -0.2380  0.8415
18504TIP3    H177003   6.305   3.499  11.638  1.6911  0.0771  0.6985
18504TIP3    H277004   6.405   3.435  11.544  0.3157 -1.2337  0.1031
18505TIP3   OH277005   0.668   2.487   3.210  0.0478  0.0074 -0.0154
18505TIP3    H177006   0.761   2.505   3.200  0.5184 -1.2000  1.9251
18505TIP3    H277007   0.644   2.439   3.130  1.8084 -2.3081  0.7799
18506TIP3   OH277008   6.464   1.489   6.107 -0.4565  0.0468 -0.1435
18506TIP3    H177009   6.403   1.438   6.160  0.2352 -0.0477  0.5755
18506TIP3    H277010   6.519   1.535   6.170  1.3593 -1.2307 -0.7186
18507TIP3   OH277011   1.541   4.453  16.000  0.0490  0.5230 -0.1127
18507TIP3    H177012   1.492   4.533  15.981 -0.2587  0.4420  0.3096
18507TIP3    H277013   1.624   4.483  16.035  0.3054  0.6638 -0.8385
18508TIP3   OH277014   1.028   4.554  15.014  0.1575 -0.0842  0.1783
18508TIP3    H177015   1.076   4.508  14.945  0.1666  0.0693  0.0820
18508TIP3    H277016   1.004   4.638  14.975  1.2157  0.4981  0.7469
18509TIP3   OH277017   1.773   4.012  11.139  0.1132 -0.2478  0.3076
18509TIP3    H177018   1.798   4.038  11.051 -0.4742  0.2385  0.2811
18509TIP3    H277019   1.686   3.973  11.129  0.5797 -1.3655  0.4899
18510TIP3   OH277020   2.890   2.595  14.617  0.3314  0.4653 -0.3957
18510TIP3    H177021   2.957   2.526  14.609  0.1817  0.5216 -2.3129
18510TIP3    H277022   2.939   2.677  14.612  0.2174  0.5086 -0.7668
18511TIP3   OH277023   2.116   4.528  16.129 -0.7118  0.3808 -0.2101
18511TIP3    H177024   2.081   4.505  16.215 -1.3388  1.5840 -0.1314
18511TIP3    H277025   2.208   4.501  16.132 -1.1307 -1.0646  0.2517
18512TIP3   OH277026   1.227   1.217  11.729  0.4903 -0.5634 -0.5338
18512TIP3    H177027   1.252   1.307  11.751 -0.2992 -0.8173  1.4666
18512TIP3    H277028   1.258   1.206  11.639 -0.6230  2.1495 -1.3103
18513TIP3   OH277029   5.435   2.519  14.030 -0.7981 -0.1348  0.0152
18513TIP3    H177030   5.436   2.429  13.997 -0.5285  0.0060 -0.3566
18513TIP3    H277031   5.508   2.522  14.092 -0.8856 -0.2049  0.1230
18514TIP3   OH277032   4.419   2.816  14.812  0.1095  0.2342 -0.9717
18514TIP3    H177033   4.395   2.908  14.808 -1.6824 -0.1750 -0.1068
18514TIP3    H277034   4.374   2.776  14.737  1.1469  0.1096 -1.5391
18515TIP3   OH277035   5.717   2.217  11.441  0.0708  0.2249  0.1161
18515TIP3    H177036   5.804   2.185  11.422 -1.2657 -3.0221 -0.8298
18515TIP3    H277037   5.677   2.232  11.355 -0.1907  2.0695  0.5379
18516TIP3   OH277038   4.790   5.998  13.717  0.4858  0.4618 -0.3908
18516TIP3    H177039   4.847   5.972  13.789 -0.2220  0.3732  0.1423
18516TIP3    H277040   4.781   5.918  13.664 -1.1825 -0.2428  0.9070
18517TIP3   OH277041   5.046   2.484  14.872 -0.9583  0.1115 -0.3641
18517TIP3    H177042   5.059   2.578  14.860  0.5464 -0.0606 -0.1951
18517TIP3    H277043   5.071   2.445  14.788  0.6155 -0.3143  0.2838
18518TIP3   OH277044   0.509   4.578  13.687 -1.0858 -0.2445 -0.4798
18518TIP3    H177045   0.600   4.584  13.658 -1.0246 -0.2563 -0.2920
18518TIP3    H277046   0.476   4.498  13.647 -0.0395 -2.0298  2.1287
18519TIP3   OH277047   0.854   3.283  12.900  0.2967  0.1722  0.2342
18519TIP3    H177048   0.811   3.337  12.833  2.4304  0.5066 -0.8828
18519TIP3    H277049   0.870   3.199  12.857 -1.2049 -0.7417  1.3611
18520TIP3   OH277050   3.259   5.450   2.356 -0.0893  0.5153 -0.7228
18520TIP3    H177051   3.184   5.475   2.302  0.3272  2.9721 -0.1883
18520TIP3    H277052   3.292   5.532   2.392  1.4532 -0.7806  0.9121
18521TIP3   OH277053   0.938   1.853  14.450 -0.0019 -0.5641  0.2984
18521TIP3    H177054   0.844   1.857  14.472 -0.5781  0.1355 -2.1136
18521TIP3    H277055   0.964   1.945  14.445  0.7227 -0.7568  0.6314
18522TIP3   OH277056   4.713   0.872  12.722 -0.2490  0.6804  0.3878
18522TIP3    H177057   4.790   0.860  12.777  0.4765  2.7459 -0.1072
18522TIP3    H277058   4.645   0.903  12.782  0.0800  1.3729  0.4157
18523TIP3   OH277059   5.769   2.463  12.878 -0.3575 -0.0359  0.0984
18523TIP3    H177060   5.747   2.428  12.964 -1.8930  0.9886  0.1466
18523TIP3    H277061   5.846   2.518  12.894  0.2505 -1.0142  0.5470
18524TIP3   OH277062   4.495   6.148  11.698  0.2962  0.2201  0.3622
18524TIP3    H177063   4.548   6.222  11.671  3.1379 -2.1058 -0.7266
18524TIP3    H277064   4.469   6.105  11.616 -2.7340  0.8825  0.8933
18525TIP3   OH277065   6.716   1.694   2.552  1.1767 -0.5105 -0.3292
18525TIP3    H177066   6.681   1.695   2.463  0.7705  1.3682 -0.1650
18525TIP3    H277067   6.775   1.768   2.556  0.0335  0.3507  1.4121
18526TIP3   OH277068   4.849   0.373  13.842  0.0706  0.2385 -0.2313
18526TIP3    H177069   4.866   0.441  13.907 -0.1902  0.7577 -0.7038
18526TIP3    H277070   4.918   0.308  13.856 -2.6927 -2.0461  3.7666
18527TIP3   OH277071   2.256   0.096   0.467  0.4555  0.4148  0.5342
18527TIP3    H177072   2.180   0.134   0.510  1.4984  3.0086  0.2145
18527TIP3    H277073   2.232   0.092   0.374 -0.0400 -0.7321  0.7027
18528TIP3   OH277074   5.489   6.316   3.329  0.3154 -0.1919  0.1523
18528TIP3    H177075   5.472   6.334   3.236  0.9976  0.7646  0.2074
18528TIP3    H277076   5.446   6.232   3.345  0.9488 -0.8142 -1.2611
18529TIP3   OH277077   6.530   6.334   1.305 -0.0706 -0.1618 -0.0828
18529TIP3    H177078   6.514   6.245   1.337  0.9807 -0.5583 -0.6285
18529TIP3    H277079   6.587   6.373   1.370 -0.8101  0.2390  0.3332
18530TIP3   OH277080   6.651   0.750   1.944 -0.1230  0.8494  0.5577
18530TIP3    H177081   6.691   0.672   1.905  3.2412  1.8997  1.7499
18530TIP3    H277082   6.684   0.752   2.034 -1.8685  2.5175  1.1996
18531TIP3   OH277083   4.648   1.852   3.125  0.3335 -0.1831 -0.1335
18531TIP3    H177084   4.705   1.916   3.167  1.5930 -1.8796  0.7728
18531TIP3    H277085   4.577   1.839   3.187  0.9146 -0.8591  0.3900
18532TIP3   OH277086   1.175   3.325  11.777 -0.3572 -0.2964 -0.1459
18532TIP3    H177087   1.143   3.326  11.687 -0.3096 -1.0042 -0.1700
18532TIP3    H277088   1.165   3.234  11.805 -0.2756 -0.0995  0.5302
18533TIP3   OH277089   1.938   6.494   6.223  0.2395  0.2449  0.4232
18533TIP3    H177090   2.030   6.476   6.243  0.7677  1.0406 -1.2329
18533TIP3    H277091   1.897   6.506   6.309  1.6599 -0.1829  1.1784
18534TIP3   OH277092   0.014   4.308   2.916 -0.6583  0.0381  0.0341
18534TIP3    H177093   0.051   4.289   2.830 -1.9740  1.0793 -0.7751
18534TIP3    H277094  -0.044   4.234   2.934 -0.7363  0.0503 -0.1717
18535TIP3   OH277095   5.280   0.073   1.437  0.2636 -0.2223 -0.2210
18535TIP3    H177096   5.316   0.158   1.461  0.8689 -0.8150  1.0370
18535TIP3    H277097   5.319   0.054   1.352  0.2872  0.6617 -0.4129
18536TIP3   OH277098   2.163   2.530   3.798 -0.2318  0.6458 -0.2624
18536TIP3    H177099   2.240   2.586   3.795  0.1396  0.1005 -1.2564
18536TIP3    H277100   2.141   2.525   3.891  1.0771  0.6109  0.0642
18537TIP3   OH277101   1.138   3.979   0.824 -0.2268  0.1420 -0.1407
18537TIP3    H177102   1.146   4.064   0.781 -1.9306 -0.1100 -0.9916
18537TIP3    H277103   1.191   3.988   0.904  1.2699  1.3052 -1.2276
18538TIP3   OH277104   3.443   2.544   5.930 -0.5977  0.2488 -0.0458
18538TIP3    H177105   3.538   2.539   5.916 -0.4792  1.8249  0.0427
18538TIP3    H277106   3.430   2.511   6.019 -0.3002 -1.2685 -0.5600
18539TIP3   OH277107   5.848   4.062  12.918  0.4312 -0.4075  0.3130
18539TIP3    H177108   5.834   4.065  12.823  0.1006 -0.5812  0.3558
18539TIP3    H277109   5.831   4.152  12.947  2.0574  0.0223 -0.0004
18540TIP3   OH277110   3.846   6.101   4.130  0.1333  0.4130 -0.3610
18540TIP3    H177111   3.814   6.164   4.065 -0.0946 -0.1911 -0.8488
18540TIP3    H277112   3.838   6.016   4.086  1.9321  0.1929 -0.2928
18541TIP3   OH277113   5.175   5.666  16.975  0.2015 -0.0574  0.2073
18541TIP3    H177114   5.211   5.701  17.057  2.6244  1.3904 -1.3963
18541TIP3    H277115   5.189   5.571  16.982 -0.0677 -0.0106  1.6781
18542TIP3   OH277116   3.445   2.790  11.028  0.1343 -0.6258  0.2563
18542TIP3    H177117   3.419   2.698  11.029  0.8648 -0.8324  0.5149
18542TIP3    H277118   3.536   2.789  10.999  0.3354 -0.0315  0.8583
18543TIP3   OH277119   4.682   5.524   0.224  0.1487 -0.3816 -0.3409
18543TIP3    H177120   4.669   5.504   0.317 -0.0139  1.1064 -0.0364
18543TIP3    H277121   4.598   5.503   0.183  0.8210 -2.9359 -0.5080
18544TIP3   OH277122   5.865   2.460   4.456  0.2947  0.1594 -0.3052
18544TIP3    H177123   5.878   2.555   4.462  2.5698 -0.0466 -1.3198
18544TIP3    H277124   5.903   2.437   4.371 -0.6123 -1.6071 -0.2339
18545TIP3   OH277125   1.972   4.686  15.935  0.0557 -0.1013  0.2817
18545TIP3    H177126   2.012   4.652  16.015  0.0461 -1.7565 -0.3942
18545TIP3    H277127   1.878   4.685  15.953 -0.0212 -1.5151 -0.1186
18546TIP3   OH277128   1.048   2.966   5.252  0.7387 -0.0392 -0.3547
18546TIP3    H177129   1.016   2.963   5.342 -0.4471  0.4305 -0.7492
18546TIP3    H277130   1.008   3.045   5.215  0.7959 -0.5154 -1.4446
18547TIP3   OH277131   2.753   4.216  15.926  0.5486  0.2444  0.0907
18547TIP3    H177132   2.793   4.299  15.953 -1.4766  0.5321  2.3607
18547TIP3    H277133   2.787   4.152  15.988  0.3797 -0.1946 -0.2724
18548TIP3   OH277134   5.913   0.877   3.544  0.0665 -0.0634 -0.6735
18548TIP3    H177135   5.927   0.862   3.638  1.9766  1.6755 -0.6257
18548TIP3    H277136   5.826   0.916   3.539  0.0305  0.0300  0.4256
18549TIP3   OH277137   1.972   4.377   0.400 -0.3294 -0.0503  0.4506
18549TIP3    H177138   1.979   4.282   0.412 -0.8137 -0.2722 -0.9206
18549TIP3    H277139   1.879   4.396   0.413 -0.3429  0.1466  0.0648
18550TIP3   OH277140   3.489   4.443  12.230 -0.1157  0.3330  0.4615
18550TIP3    H177141   3.515   4.353  12.251 -0.2384  0.0030 -0.7270
18550TIP3    H277142   3.394   4.438  12.219 -0.4977  1.1705  3.0356
18551TIP3   OH277143   2.012   0.809  11.474  0.0957  0.2368 -0.0234
18551TIP3    H177144   1.962   0.846  11.547 -0.3071  1.1213 -0.7322
18551TIP3    H277145   2.005   0.875  11.405  2.5676  0.5595 -0.0028
18552TIP3   OH277146   0.804   6.182  14.594 -0.0185  0.3565  0.0041
18552TIP3    H177147   0.877   6.135  14.635 -1.2563  0.4193  2.3263
18552TIP3    H277148   0.845   6.255  14.548  1.5127 -0.4711  0.0161
18553TIP3   OH277149   3.710   2.911  16.511  0.3192 -0.0037 -0.5773
18553TIP3    H177150   3.647   2.840  16.511 -0.3712  0.5721  1.1047
18553TIP3    H277151   3.782   2.880  16.566  0.3096  0.3427 -0.3683
18554TIP3   OH277152   4.436   2.301   4.036 -0.2802 -0.3323 -0.3601
18554TIP3    H177153   4.375   2.239   3.997  0.7359 -2.6679  1.6439
18554TIP3    H277154   4.518   2.288   3.989 -0.1655 -0.2995 -0.1729
18555TIP3   OH277155   2.795   3.190   0.044  0.0895 -0.1060  0.1783
18555TIP3    H177156   2.876   3.228   0.010  0.9060 -1.3555  0.7051
18555TIP3    H277157   2.820   3.102   0.074 -1.3871 -0.3802  0.6459
18556TIP3   OH277158   1.785   1.989   0.433  0.1123 -0.8829  0.5947
18556TIP3    H177159   1.745   1.909   0.400 -2.0167  0.3489  0.0799
18556TIP3    H277160   1.760   2.056   0.369  0.6670  0.4588  1.7572
18557TIP3   OH277161   4.111   1.106  11.921  0.0906  0.0029 -0.1581
18557TIP3    H177162   4.184   1.164  11.945 -0.0373  0.1801 -0.1930
18557TIP3    H277163   4.134   1.073  11.834 -0.0011  0.2747 -0.2856
18558TIP3   OH277164   4.713   1.758  16.451 -0.1297 -0.1362 -0.4943
18558TIP3    H177165   4.786   1.732  16.395  0.3481  0.5831 -0.2305
18558TIP3    H277166   4.636   1.753  16.395  0.4800  1.6188 -1.5481
18559TIP3   OH277167   3.858   1.365  14.669  0.4837  0.1833 -0.0874
18559TIP3    H177168   3.912   1.286  14.673 -0.0992 -0.2163 -0.1204
18559TIP3    H277169   3.921   1.437  14.677  1.1517 -0.2566 -1.2886
18560TIP3   OH277170   6.512   6.218  15.516 -0.0510 -0.8483  0.1338
18560TIP3    H177171   6.557   6.176  15.589 -1.6034  0.4618  1.8732
18560TIP3    H277172   6.466   6.146  15.472  0.5255 -1.5756  0.7133
18561TIP3   OH277173   2.138   1.684  11.469 -0.0215  0.5003 -0.3757
18561TIP3    H177174   2.115   1.619  11.536 -2.7239  1.1493 -0.6268
18561TIP3    H277175   2.217   1.649  11.428  0.9424 -0.5577  2.2685
18562TIP3   OH277176   2.982   5.653   0.081 -0.4211 -0.5899  0.6094
18562TIP3    H177177   2.895   5.692   0.072 -0.2184 -0.3293 -0.2682
18562TIP3    H277178   3.036   5.699   0.016 -0.1598 -2.2570 -0.3855
18563TIP3   OH277179   3.048   3.871  15.560  0.1331 -0.0623 -0.0312
18563TIP3    H177180   3.091   3.812  15.622 -0.6706 -0.7776 -0.1523
18563TIP3    H277181   3.035   3.953  15.609 -0.1404 -0.4914  0.6208
18564TIP3   OH277182   5.242   2.046  11.339 -0.4437 -0.7778 -0.5292
18564TIP3    H177183   5.249   2.139  11.316 -0.2642 -0.8684 -0.8400
18564TIP3    H277184   5.330   2.011  11.322 -0.7866 -1.2318 -1.4098
18565TIP3   OH277185   1.867   3.070  11.153 -0.7052  0.1064  0.0278
18565TIP3    H177186   1.843   3.107  11.068 -0.1435  0.1499 -0.1174
18565TIP3    H277187   1.784   3.046  11.194 -1.0146  0.6591 -0.2754
18566TIP3   OH277188   0.644   3.211  15.166  0.3932 -0.0845 -0.4336
18566TIP3    H177189   0.663   3.271  15.238  0.7334 -0.6128 -0.0766
18566TIP3    H277190   0.578   3.151  15.202 -1.0597  0.9806 -1.2721
18567TIP3   OH277191   4.113   4.948   3.247 -0.1018  0.1211  0.3081
18567TIP3    H177192   4.029   4.974   3.283 -0.8376 -0.8815 -0.6571
18567TIP3    H277193   4.092   4.879   3.184  1.3273  0.5337 -0.6548
18568TIP3   OH277194   4.902   6.565   5.875  0.6025  1.0145  0.0460
18568TIP3    H177195   4.979   6.513   5.896  0.1421  0.2548 -0.0975
18568TIP3    H277196   4.828   6.511   5.905  0.0380  0.9063 -1.4631
18569TIP3   OH277197   3.946   3.387   4.927  0.0811 -0.2683  0.0688
18569TIP3    H177198   4.007   3.387   5.001  0.5384  0.2518 -0.3074
18569TIP3    H277199   3.875   3.330   4.955  0.7154 -0.8391  0.5351
18570TIP3   OH277200   4.992   6.656   4.694  0.6143 -0.3606 -0.0107
18570TIP3    H177201   4.992   6.603   4.615  0.2227 -0.4659  0.0604
18570TIP3    H277202   5.051   6.610   4.754  0.2629 -0.7237  0.0563
18571TIP3   OH277203   3.150   3.891   2.789  0.2843 -0.6857 -0.7237
18571TIP3    H177204   3.200   3.961   2.746 -0.7897  1.4073  1.3439
18571TIP3    H277205   3.190   3.882   2.875 -1.4687 -0.5121  0.1333
18572TIP3   OH277206   2.984   3.733  11.625  0.0516  0.5128 -0.3884
18572TIP3    H177207   3.058   3.783  11.658 -1.2803  0.3474  3.0479
18572TIP3    H277208   3.015   3.643  11.621 -0.2759  0.2524  2.2301
18573TIP3   OH277209   4.753   4.692   6.081  0.3093  0.2375 -0.2255
18573TIP3    H177210   4.727   4.741   6.159  0.2185 -0.2598  0.0579
18573TIP3    H277211   4.677   4.638   6.060  0.5938 -0.1582 -0.2382
18574TIP3   OH277212   2.393   2.988   1.702 -0.3052  0.3246  0.3343
18574TIP3    H177213   2.333   2.915   1.716  0.3795 -0.1463  0.8862
18574TIP3    H277214   2.390   3.004   1.608 -0.6261 -0.2787  0.2407
18575TIP3   OH277215   6.257   6.061  10.893 -0.5116  0.0551  0.8040
18575TIP3    H177216   6.237   6.126  10.825  0.4304  0.3177  0.7732
18575TIP3    H277217   6.303   6.110  10.961  1.3349 -0.8175  0.2116
18576TIP3   OH277218   5.312   1.959   3.125  0.2656 -0.4598 -0.1103
18576TIP3    H177219   5.384   1.994   3.177  0.7776 -1.0206 -0.4379
18576TIP3    H277220   5.350   1.885   3.077 -0.4036 -0.4549 -0.6604
18577TIP3   OH277221   2.495   1.582   2.186  0.1598  0.1842  0.8762
18577TIP3    H177222   2.582   1.616   2.164 -0.1157  0.1961 -0.2192
18577TIP3    H277223   2.436   1.656   2.168 -0.1272  0.0269  1.1738
18578TIP3   OH277224   2.299   3.580   1.447 -0.2194  0.3436  0.0839
18578TIP3    H177225   2.383   3.588   1.493  0.0545  0.2979 -0.4014
18578TIP3    H277226   2.300   3.492   1.410 -0.9283 -0.0252  0.9350
18579TIP3   OH277227   4.331   1.338  12.650  0.4531 -0.6187  0.6735
18579TIP3    H177228   4.422   1.368  12.657  0.1262  0.7133 -0.7023
18579TIP3    H277229   4.337   1.254  12.605  0.8576  0.3843 -1.1730
18580TIP3   OH277230   6.398   6.812  13.736  0.7797 -0.5065  0.1783
18580TIP3    H177231   6.316   6.767  13.720  1.6512 -1.9249 -0.3480
18580TIP3    H277232   6.437   6.766  13.811  0.0636  1.5720  1.8792
18581TIP3   OH277233   2.805   1.917  11.890  0.4367  0.4204  0.2114
18581TIP3    H177234   2.843   1.912  11.978  0.6959 -0.2875  0.0666
18581TIP3    H277235   2.733   1.854  11.891  0.4375  0.4125 -0.0790
18582TIP3   OH277236   6.266   2.853  13.306 -0.2416  0.2953 -0.1252
18582TIP3    H177237   6.336   2.906  13.345 -0.3418 -1.0920  2.0925
18582TIP3    H277238   6.312   2.784  13.258 -0.0432 -0.7531  1.5251
18583TIP3   OH277239   2.271   4.179  16.052  0.3225  0.5298  0.0229
18583TIP3    H177240   2.304   4.122  15.983  0.9134  1.4881 -0.4841
18583TIP3    H277241   2.342   4.241  16.069  1.4124 -1.5374  3.6148
18584TIP3   OH277242   3.062   5.284  11.487 -0.2378 -0.7388  0.3262
18584TIP3    H177243   3.032   5.292  11.577  1.6734 -0.8390  1.0020
18584TIP3    H277244   3.012   5.210  11.451  0.2192 -1.8128  1.8539
18585TIP3   OH277245   2.189   4.467   1.765 -0.0786 -0.3289  0.4812
18585TIP3    H177246   2.174   4.546   1.817  0.6871 -0.2547  0.5986
18585TIP3    H277247   2.229   4.406   1.827 -0.3368 -0.6828  0.2976
18586TIP3   OH277248   2.063   4.544  16.624 -0.3386  0.4298 -0.2068
18586TIP3    H177249   2.020   4.625  16.652  0.0433  0.6416 -0.2186
18586TIP3    H277250   2.055   4.545  16.528 -0.3784  0.4316 -0.2040
18587TIP3   OH277251   4.184   3.107   6.681  0.2774 -0.0313  0.1755
18587TIP3    H177252   4.153   3.127   6.769 -0.3956  0.1767 -0.1086
18587TIP3    H277253   4.250   3.039   6.694  0.5796  0.3966  0.8863
18588TIP3   OH277254   3.322   5.825   1.452  0.1249 -0.0469 -0.5960
18588TIP3    H177255   3.265   5.749   1.457  0.0935 -0.0487 -1.0382
18588TIP3    H277256   3.267   5.895   1.416  0.2701  0.0763 -0.5808
18589TIP3   OH277257   2.942   5.230  12.863  0.9400 -0.0954 -0.1437
18589TIP3    H177258   2.873   5.271  12.914 -0.0803  0.3854 -1.8716
18589TIP3    H277259   2.936   5.137  12.884  0.9999  0.1806  1.1332
18590TIP3   OH277260   2.043   5.726  16.515  0.3619  0.3954 -0.3545
18590TIP3    H177261   1.969   5.665  16.510  0.6594  0.1599 -1.9185
18590TIP3    H277262   2.008   5.802  16.562 -0.8876  0.3039 -1.1225
18591TIP3   OH277263   4.913   0.918  16.634  0.1727 -0.2097  0.1777
18591TIP3    H177264   4.994   0.953  16.671  0.6174 -0.5158 -0.4985
18591TIP3    H277265   4.941   0.870  16.555 -0.7495  0.3412 -0.4949
18592TIP3   OH277266   3.352   2.759  14.666 -0.7973  0.2548  0.2174
18592TIP3    H177267   3.339   2.664  14.655  0.4700  0.2661 -1.5385
18592TIP3    H277268   3.435   2.767  14.711 -0.7533  0.5403  0.0850
18593TIP3   OH277269   4.836   5.740   4.841 -0.7474 -0.3698  0.4836
18593TIP3    H177270   4.824   5.789   4.923  0.7646  1.4970 -0.3607
18593TIP3    H277271   4.751   5.700   4.825 -1.7088  1.0391  1.8415
18594TIP3   OH277272   5.565   6.279   0.537 -0.4049 -0.1544 -0.0134
18594TIP3    H177273   5.578   6.243   0.449 -2.0256 -1.4821  0.2663
18594TIP3    H277274   5.515   6.212   0.583  0.8543  0.3193  2.0948
18595TIP3   OH277275   0.417   5.525  12.209  0.1463  0.1998 -0.1996
18595TIP3    H177276   0.332   5.533  12.166  0.5186  0.1178 -0.9648
18595TIP3    H277277   0.397   5.496  12.298 -0.6168  0.0813 -0.4093
18596TIP3   OH277278   5.380   0.744   1.126  0.0423 -0.2447  0.2197
18596TIP3    H177279   5.319   0.670   1.116  0.3382 -0.1749 -2.6678
18596TIP3    H277280   5.464   0.710   1.094  1.1254  0.1925  2.5213
18597TIP3   OH277281   3.295   6.460   6.057 -0.2994  0.2629 -0.2584
18597TIP3    H177282   3.298   6.481   6.150  2.3676 -0.1737 -0.2083
18597TIP3    H277283   3.236   6.385   6.051  0.0926 -0.1658  1.1659
18598TIP3   OH277284   3.550   0.046   4.882  0.2451 -0.4296 -0.3461
18598TIP3    H177285   3.472   0.043   4.827  0.8682 -1.7889 -1.1603
18598TIP3    H277286   3.546   0.133   4.922 -0.5354  0.3629 -2.0681
18599TIP3   OH277287   1.728   5.419   1.995  0.6154 -0.9766 -0.7032
18599TIP3    H177288   1.775   5.502   1.984 -1.1224 -0.0171 -1.2215
18599TIP3    H277289   1.794   5.357   2.024  1.6529  0.9763  1.2461
18600TIP3   OH277290   3.610   5.035  14.606 -0.2571 -0.4325 -0.3063
18600TIP3    H177291   3.681   5.039  14.670  1.4249  0.2191 -2.1526
18600TIP3    H277292   3.629   5.106  14.545 -2.9416  0.2350 -0.4241
18601TIP3   OH277293   1.644   4.661  14.627 -0.2094  0.1010  0.0207
18601TIP3    H177294   1.557   4.622  14.627 -0.3713  0.4556 -1.2421
18601TIP3    H277295   1.704   4.587  14.627 -0.5164 -0.1498 -0.3184
18602TIP3   OH277296   0.133   2.532   0.669 -0.2917 -0.2168  0.4703
18602TIP3    H177297   0.117   2.438   0.661  0.5342 -0.2577 -0.9646
18602TIP3    H277298   0.053   2.573   0.636 -0.6939 -0.4135  1.1978
18603TIP3   OH277299   6.000   3.646   1.265 -0.3533 -0.0572 -0.5321
18603TIP3    H177300   6.000   3.603   1.180 -3.2701 -1.5598  0.1550
18603TIP3    H277301   5.907   3.657   1.286  0.2840 -0.9007  3.0205
18604TIP3   OH277302   2.987   3.065   2.778  0.3368 -0.5807  0.0708
18604TIP3    H177303   3.062   3.006   2.775  0.9164  0.1486  0.1964
18604TIP3    H277304   2.973   3.090   2.687 -0.3032 -1.4013 -0.0612
18605TIP3   OH277305   5.315   5.863   0.406 -0.3601 -0.2492 -0.0615
18605TIP3    H177306   5.271   5.795   0.457 -0.6592  1.5369  2.1518
18605TIP3    H277307   5.254   5.882   0.334 -1.8261  0.0424  1.2385
18606TIP3   OH277308   4.557   5.339  15.522 -0.6722  0.3962 -0.1803
18606TIP3    H177309   4.469   5.365  15.548 -0.5406 -0.3741  1.0617
18606TIP3    H277310   4.615   5.380  15.586 -0.1867  0.2342 -0.5087
18607TIP3   OH277311   1.284   6.798  12.298  0.0232  0.5791  0.0269
18607TIP3    H177312   1.310   6.719  12.252 -3.4384  0.2730 -1.5957
18607TIP3    H277313   1.262   6.860  12.229 -0.3426  1.8499  1.2625
18608TIP3   OH277314   2.623   2.024   4.970  0.1098  0.4266  0.6469
18608TIP3    H177315   2.552   2.070   4.926  2.5690  2.0548 -1.7910
18608TIP3    H277316   2.655   2.086   5.036  0.3930  0.3669  0.5674
18609TIP3   OH277317   1.614   6.776  15.154 -0.6358 -0.5427  0.3882
18609TIP3    H177318   1.695   6.770  15.204  0.4023  1.6094 -0.9352
18609TIP3    H277319   1.546   6.745  15.213  0.7243  0.7618  2.6924
18610TIP3   OH277320   1.472   0.078   1.136 -1.0350  0.6143 -0.2684
18610TIP3    H177321   1.424   0.000   1.165 -0.8462  0.0539 -1.4328
18610TIP3    H277322   1.510   0.053   1.052  1.4123  1.0094  0.6779
18611TIP3   OH277323   3.017   5.756  16.822  0.0778 -0.7706 -0.5498
18611TIP3    H177324   2.937   5.789  16.782  0.5689  0.2381 -0.7008
18611TIP3    H277325   3.021   5.799  16.907 -0.0475 -1.5759 -0.1291
18612TIP3   OH277326   0.808   5.204  12.391  0.3854  0.3390 -0.0939
18612TIP3    H177327   0.815   5.297  12.412 -0.3559  0.9023 -2.1783
18612TIP3    H277328   0.884   5.187  12.334 -0.1533 -0.0314 -0.7046
18613TIP3   OH277329   3.427   0.023   3.136 -0.5241 -0.4647 -0.1553
18613TIP3    H177330   3.362   0.076   3.091  0.0669 -1.2570 -1.9688
18613TIP3    H277331   3.392  -0.066   3.133  0.1384 -0.7249 -0.2010
18614TIP3   OH277332   1.157   1.174   3.533  0.3481  0.3080 -0.4053
18614TIP3    H177333   1.138   1.223   3.454  1.7779 -3.2436 -3.0903
18614TIP3    H277334   1.075   1.129   3.554 -0.0686  1.3533  0.2425
18615TIP3   OH277335   6.111   1.035  14.374  0.9757 -0.1177  0.0606
18615TIP3    H177336   6.019   1.054  14.391  0.9886 -1.1662  1.3870
18615TIP3    H277337   6.122   1.052  14.281 -0.7000 -0.5375 -0.2288
18616TIP3   OH277338   1.070   6.743   0.044  0.2117 -0.0531 -0.0736
18616TIP3    H177339   1.105   6.807  -0.018  1.5251 -0.2671  0.4263
18616TIP3    H277340   1.010   6.794   0.099  0.8023  0.6297 -0.0490
18617TIP3   OH277341   4.807   1.897  12.716 -0.1642  0.1094 -0.5589
18617TIP3    H177342   4.881   1.899  12.777 -0.2994 -1.4862 -0.3198
18617TIP3    H277343   4.818   1.815  12.668 -2.9669 -1.2158  0.9720
18618TIP3   OH277344   5.290   1.098  16.508  0.1752 -0.6179  0.1399
18618TIP3    H177345   5.251   1.100  16.421 -0.4429 -1.9688  0.3866
18618TIP3    H277346   5.372   1.147  16.498 -0.5926  0.5101 -0.8411
18619TIP3   OH277347   2.884   6.478  15.197  0.0644  0.5653  0.4856
18619TIP3    H177348   2.912   6.432  15.118 -1.2492 -0.7785  0.7805
18619TIP3    H277349   2.789   6.474  15.195 -0.0129  1.4392  1.6033
18620TIP3   OH277350   1.905   0.694  12.564 -0.3347  1.3343  0.6374
18620TIP3    H177351   1.986   0.668  12.608 -1.5539 -0.8581  1.6472
18620TIP3    H277352   1.866   0.759  12.622  0.1658  1.6116  0.6659
18621TIP3   OH277353   5.476   0.910   6.225  0.3852  0.1969  0.3083
18621TIP3    H177354   5.438   0.973   6.286 -2.5423 -0.8065 -0.4022
18621TIP3    H277355   5.405   0.849   6.206  2.7640 -2.5680 -0.0547
18622TIP3   OH277356   3.535   3.380  15.477 -0.1595  0.0327  0.2429
18622TIP3    H177357   3.472   3.428  15.424  0.4251  1.5837  0.9271
18622TIP3    H277358   3.600   3.349  15.414  0.1900  1.3135 -0.0377
18623TIP3   OH277359   0.362   6.555   5.087  0.7308  0.1792 -0.1214
18623TIP3    H177360   0.361   6.648   5.064  0.8142  0.3915  0.7370
18623TIP3    H277361   0.324   6.551   5.175 -0.1832 -0.7071 -0.5403
18624TIP3   OH277362   4.574   2.459  12.733 -0.1288  0.7831 -0.0378
18624TIP3    H177363   4.656   2.474  12.780 -0.5579  0.4430  0.8299
18624TIP3    H277364   4.562   2.538  12.680  2.3174 -0.4018 -2.5483
18625TIP3   OH277365   1.990   0.107  14.395  0.5108 -0.2936 -0.2684
18625TIP3    H177366   2.041   0.168  14.448  0.2208  0.2536 -0.6193
18625TIP3    H277367   1.966   0.037  14.456 -1.1406  1.1011  0.7268
18626TIP3   OH277368   3.725   1.171   5.833  0.4609  0.5540 -0.1905
18626TIP3    H177369   3.662   1.219   5.886  1.0442  0.3950  0.6517
18626TIP3    H277370   3.673   1.105   5.788  0.2178 -0.5676  1.6643
18627TIP3   OH277371   0.208   3.916  13.122 -0.2946  0.2593 -0.1245
18627TIP3    H177372   0.124   3.959  13.138  0.4462  0.8580  2.3750
18627TIP3    H277373   0.209   3.841  13.182  1.1915  0.6007  0.3115
18628TIP3   OH277374   2.493   0.413   1.985 -0.0628 -0.0996  0.1117
18628TIP3    H177375   2.508   0.469   1.909  2.0756  0.8432  1.1709
18628TIP3    H277376   2.406   0.438   2.017 -0.0654  1.0225 -0.7585
18629TIP3   OH277377   1.627   0.242  14.856 -0.2338 -0.3248 -0.0539
18629TIP3    H177378   1.716   0.217  14.879  0.4508  0.7491 -1.4386
18629TIP3    H277379   1.578   0.237  14.939  1.4016  0.3103  0.9712
18630TIP3   OH277380   4.512   1.776  13.633 -0.5683  0.4650 -0.2038
18630TIP3    H177381   4.595   1.814  13.662 -0.2732  0.0654 -0.5055
18630TIP3    H277382   4.511   1.790  13.538  0.0604 -1.2034 -0.4903
18631TIP3   OH277383   3.707   1.149  15.499  0.2903 -0.4517 -0.5125
18631TIP3    H177384   3.647   1.084  15.463 -0.6602 -0.0218  0.2569
18631TIP3    H277385   3.695   1.143  15.593 -1.8503  2.6818 -0.5031
18632TIP3   OH277386   4.607   6.795   2.264 -0.4366 -0.0392  0.4481
18632TIP3    H177387   4.612   6.735   2.189 -0.5769  1.7349 -1.0095
18632TIP3    H277388   4.697   6.802   2.295  0.1215  1.5661 -1.4582
18633TIP3   OH277389   6.324   5.409   0.120  0.2962 -0.6603  0.2271
18633TIP3    H177390   6.262   5.445   0.183  1.6353  0.8175  0.7163
18633TIP3    H277391   6.405   5.397   0.170  1.7525  1.7272 -1.4752
18634TIP3   OH277392   4.569   6.301   2.481 -0.1845 -0.5745  0.2607
18634TIP3    H177393   4.522   6.241   2.538 -1.1716  0.6164  0.7224
18634TIP3    H277394   4.503   6.365   2.454  0.4477 -0.6761 -1.5989
18635TIP3   OH277395   4.472   1.617   1.136  0.0762  0.4850  0.8702
18635TIP3    H177396   4.453   1.627   1.229  1.5176  1.4453  1.0864
18635TIP3    H277397   4.561   1.652   1.126  0.3552 -0.5991 -0.6708
18636TIP3   OH277398   3.005   2.073  13.783 -0.9442  0.0280  0.7088
18636TIP3    H177399   2.921   2.119  13.782  0.1177  2.0437 -0.0070
18636TIP3    H277400   3.034   2.076  13.691 -1.7197 -3.8258  0.2564
18637TIP3   OH277401   1.847   6.068   0.899  0.7981 -0.0045  0.0087
18637TIP3    H177402   1.903   6.129   0.851  0.6300  0.7099  0.7219
18637TIP3    H277403   1.758   6.089   0.870  0.7916 -0.3152 -0.1985
18638TIP3   OH277404   2.786   0.850  14.026 -0.2228 -0.3649 -0.2843
18638TIP3    H177405   2.808   0.900  13.948  0.0830 -0.6772 -0.3975
18638TIP3    H277406   2.856   0.785  14.034  1.0197  1.1311  1.5559
18639TIP3   OH277407   3.357   5.817  13.995  0.3023 -0.0235 -0.0543
18639TIP3    H177408   3.341   5.751  14.062 -0.6985 -1.5836 -1.8062
18639TIP3    H277409   3.423   5.779  13.937 -1.5828 -0.2963 -2.1111
18640TIP3   OH277410   1.581   3.118   1.879 -0.0129  0.2382 -0.0619
18640TIP3    H177411   1.666   3.112   1.836 -1.3479 -1.5202 -2.5760
18640TIP3    H277412   1.522   3.149   1.811 -1.7712 -0.4913  1.0983
18641TIP3   OH277413   1.917   3.458   5.029  0.1101 -0.3303  0.0958
18641TIP3    H177414   1.907   3.415   4.944  0.9562 -1.2972  0.4787
18641TIP3    H277415   1.971   3.535   5.011 -1.0945  0.3859 -0.5247
18642TIP3   OH277416   4.102   1.892  16.847 -0.2371  0.3198  0.1785
18642TIP3    H177417   4.174   1.881  16.909 -0.1404  1.0793  0.1936
18642TIP3    H277418   4.076   1.983  16.855 -0.7462  0.2250 -0.3344
18643TIP3   OH277419   1.940   6.552  14.432  0.1124  0.1182  0.0842
18643TIP3    H177420   1.883   6.476  14.442 -0.1263  0.3432  0.4424
18643TIP3    H277421   2.028   6.515  14.419  0.1739 -0.2064  1.3632
18644TIP3   OH277422   1.172   4.247   0.691  0.3499  0.7898 -0.3314
18644TIP3    H177423   1.265   4.258   0.710  0.5878 -0.5026 -0.6693
18644TIP3    H277424   1.159   4.294   0.609  0.6098  1.3205 -0.0740
18645TIP3   OH277425   6.560   6.352   0.989 -0.1385 -0.1628  0.2464
18645TIP3    H177426   6.555   6.344   1.084  0.5464  0.0621  0.3063
18645TIP3    H277427   6.469   6.360   0.960 -0.4990 -2.1584  0.7137
18646TIP3   OH277428   1.111   3.969  12.749  0.0710  0.3636  0.2540
18646TIP3    H177429   1.203   3.953  12.772  0.3733  1.6258 -0.0597
18646TIP3    H277430   1.066   3.889  12.776  0.9269  0.5303  2.2579
18647TIP3   OH277431   5.556   2.494  13.393  0.2102  0.5496 -0.5955
18647TIP3    H177432   5.473   2.448  13.404 -0.0791  1.4448  1.1284
18647TIP3    H277433   5.619   2.441  13.442  0.4771  0.3756 -1.1241
18648TIP3   OH277434   4.473   2.406  16.019  0.0108 -0.1579  0.3853
18648TIP3    H177435   4.556   2.453  16.030  1.2354 -2.1974  0.0485
18648TIP3    H277436   4.498   2.314  16.015 -2.5145 -0.9784  2.6278
18649TIP3   OH277437   3.421   0.258   6.209 -0.1427 -0.0727  0.4684
18649TIP3    H177438   3.333   0.294   6.220  0.2722  0.9339  0.5294
18649TIP3    H277439   3.447   0.229   6.296 -0.1919  0.1411  0.5536
18650TIP3   OH277440   3.518   2.728  16.437  0.3102  0.1847  1.3168
18650TIP3    H177441   3.563   2.674  16.373 -0.2995  1.6792 -0.4077
18650TIP3    H277442   3.427   2.696  16.436  0.3165  0.1567  1.5062
18651TIP3   OH277443   1.032   4.536   1.978 -0.2173 -0.1552  0.1098
18651TIP3    H177444   1.028   4.501   2.067 -0.2613  3.1445  1.4595
18651TIP3    H277445   0.977   4.477   1.927  2.0594 -3.7988  1.6072
18652TIP3   OH277446   5.237   4.814  12.241 -0.3428  0.2693  0.1583
18652TIP3    H177447   5.235   4.908  12.223 -1.7951  0.3275  0.5568
18652TIP3    H277448   5.176   4.776  12.178 -0.0995 -0.3587  0.2964
18653TIP3   OH277449   4.408   2.104   6.915 -0.0624 -0.0986  0.4490
18653TIP3    H177450   4.390   2.169   6.984 -0.1187  0.4623 -0.0915
18653TIP3    H277451   4.464   2.039   6.958 -0.0686  0.2630  1.0197
18654TIP3   OH277452   1.287   4.536   1.852  0.0349  0.0645  0.6349
18654TIP3    H177453   1.210   4.497   1.892 -0.4302 -0.0343 -0.3431
18654TIP3    H277454   1.332   4.463   1.809  0.5160  0.1707  0.9509
18655TIP3   OH277455   0.467   0.832  11.761 -0.1534 -0.1250  0.3615
18655TIP3    H177456   0.534   0.870  11.819  0.8973 -1.2708 -0.0741
18655TIP3    H277457   0.490   0.865  11.674  1.8394 -3.0748 -0.3153
18656TIP3   OH277458   2.765   3.797  14.795 -0.5623  0.5806 -0.4101
18656TIP3    H177459   2.696   3.819  14.733 -1.8744 -0.2951  0.7034
18656TIP3    H277460   2.818   3.876  14.801  0.9148 -0.0116 -4.2898
18657TIP3   OH277461   3.255   2.067  12.356  0.3153 -0.2031 -0.1171
18657TIP3    H177462   3.246   1.985  12.404  0.7131 -0.2056 -0.0398
18657TIP3    H277463   3.317   2.047  12.286 -1.3104 -0.5637 -1.4742
18658TIP3   OH277464   6.803   3.128   2.398 -0.4494  0.2237 -0.7242
18658TIP3    H177465   6.853   3.177   2.333 -0.1266  0.6936 -0.1248
18658TIP3    H277466   6.832   3.038   2.389 -0.1874  0.3381 -1.0214
18659TIP3   OH277467   0.594   5.299  14.400 -0.0577  0.1037  0.0488
18659TIP3    H177468   0.634   5.215  14.420  0.2607 -0.0042 -1.0447
18659TIP3    H277469   0.639   5.361  14.458 -0.4041 -0.4875  0.9718
18660TIP3   OH277470   1.658   3.174  11.753  0.5512 -0.0470  0.0445
18660TIP3    H177471   1.726   3.192  11.818 -1.8456  0.0718  2.6339
18660TIP3    H277472   1.582   3.224  11.783 -1.1458 -1.3643 -1.9101
18661TIP3   OH277473   3.050   6.022   3.359 -0.1064 -0.2513 -0.2448
18661TIP3    H177474   3.054   6.115   3.381  1.1513  0.1725 -2.1456
18661TIP3    H277475   3.100   5.979   3.428 -0.1647  0.5524  0.3043
18662TIP3   OH277476   3.891   0.992  17.044 -0.3510 -0.4731 -0.2269
18662TIP3    H177477   3.897   1.077  17.001  0.1560 -1.3709 -1.9754
18662TIP3    H277478   3.925   1.008  17.132 -0.8519  1.2678 -0.3224
18663TIP3   OH277479   2.015   1.184  11.055  0.4100 -0.2695 -0.0153
18663TIP3    H177480   1.970   1.182  11.140 -0.4667 -0.6622 -0.4749
18663TIP3    H277481   2.074   1.258  11.061 -0.4316  0.3650  0.5540
18664TIP3   OH277482   1.535   5.818  16.483 -0.0166  0.3010 -0.6109
18664TIP3    H177483   1.611   5.853  16.437  0.4945 -3.3190 -2.7229
18664TIP3    H277484   1.488   5.767  16.417 -2.2173 -0.6303  1.5779
18665TIP3   OH277485   0.554   3.846   0.932  0.5693  0.3577  0.1195
18665TIP3    H177486   0.552   3.769   0.876  2.9529 -0.4934  1.1189
18665TIP3    H277487   0.635   3.891   0.908  0.1206  1.5683  0.8196
18666TIP3   OH277488   2.583   2.135   1.610 -0.1725 -0.3000 -0.2884
18666TIP3    H177489   2.502   2.084   1.619 -1.1341  1.0270 -1.1937
18666TIP3    H277490   2.637   2.083   1.551 -0.4081 -1.1610  0.2509
18667TIP3   OH277491   2.472   0.714   5.213  0.5066 -0.3401  0.1692
18667TIP3    H177492   2.397   0.671   5.255 -0.4321  0.3767 -0.7429
18667TIP3    H277493   2.531   0.736   5.286 -0.8185  0.3470  1.0577
18668TIP3   OH277494   5.080   4.073   2.253  0.1793  0.2288  0.3608
18668TIP3    H177495   5.170   4.102   2.263  0.0185  0.8453  0.0623
18668TIP3    H277496   5.030   4.126   2.315  0.0579 -0.2986  0.7208
18669TIP3   OH277497   3.728   6.701  15.099 -0.0485  0.6591  0.0322
18669TIP3    H177498   3.740   6.704  15.004 -0.4274  0.9650 -0.0115
18669TIP3    H277499   3.712   6.609  15.118  2.1001  0.2692  0.0757
18670TIP3   OH277500   4.917   6.164   1.897 -0.1558  0.3844 -0.0325
18670TIP3    H177501   5.009   6.190   1.898 -0.5056  1.8318 -2.2694
18670TIP3    H277502   4.916   6.077   1.858  0.4029 -0.3096  1.4774
18671TIP3   OH277503   3.786   2.435   4.820  0.2977 -0.1291 -0.0253
18671TIP3    H177504   3.794   2.371   4.750 -0.6943 -0.6659  0.3412
18671TIP3    H277505   3.873   2.473   4.827  1.0031 -1.6903 -0.0108
18672TIP3   OH277506   5.006   3.298   0.575  0.0866 -0.7550  0.3016
18672TIP3    H177507   4.967   3.284   0.488 -1.1342 -0.3271  0.7667
18672TIP3    H277508   5.055   3.380   0.566  0.0218 -0.7466  0.0010
18673TIP3   OH277509   3.578   2.124   4.498 -0.1937  0.0329  0.6583
18673TIP3    H177510   3.561   2.090   4.411  0.4024  0.2654  0.4461
18673TIP3    H277511   3.501   2.176   4.520 -0.4025 -0.1409  0.3309
18674TIP3   OH277512   1.558   0.873  13.783 -0.3888  0.2723  0.1717
18674TIP3    H177513   1.502   0.796  13.775  1.6515 -1.2184 -0.0215
18674TIP3    H277514   1.538   0.926  13.705 -0.7930 -0.7267 -0.4070
18675TIP3   OH277515   5.384   1.049  11.030  0.4660 -0.0742  0.1382
18675TIP3    H177516   5.379   1.015  10.941  0.1331  2.8851 -1.0325
18675TIP3    H277517   5.297   1.034  11.067 -0.1022  0.8140 -0.8430
18676TIP3   OH277518   3.035   2.186   3.677  0.7510 -0.1079  0.5145
18676TIP3    H177519   3.083   2.106   3.695  1.1065 -0.3635 -1.4758
18676TIP3    H277520   3.042   2.198   3.582 -0.2388  1.6718  0.6367
18677TIP3   OH277521   1.831   0.730   2.907  0.4956  0.0077  0.4582
18677TIP3    H177522   1.827   0.809   2.853  0.7467 -0.2852  0.0092
18677TIP3    H277523   1.764   0.743   2.974  1.9013  1.5006  1.6045
18678TIP3   OH277524   5.071   0.100   4.669  0.3494 -0.5886 -0.8953
18678TIP3    H177525   5.026   0.118   4.586 -1.8854 -0.7743  0.2256
18678TIP3    H277526   5.049   0.009   4.688  1.6997 -0.8554 -0.6039
18679TIP3   OH277527   3.737   3.217  11.885 -0.2926  0.1069 -0.2023
18679TIP3    H177528   3.696   3.135  11.859 -3.5430  0.9788  1.9481
18679TIP3    H277529   3.802   3.192  11.951 -1.5221 -0.7306  0.7140
18680TIP3   OH277530   1.793   0.928   0.213 -0.4132  0.4350 -0.2777
18680TIP3    H177531   1.750   0.962   0.134  0.1076  0.4574 -0.5488
18680TIP3    H277532   1.741   0.964   0.285 -1.6796 -0.6475 -0.6379
18681TIP3   OH277533   5.586   2.820  16.394 -0.3579  0.3813  0.3469
18681TIP3    H177534   5.628   2.893  16.440  1.6034  0.4612 -1.5000
18681TIP3    H277535   5.538   2.774  16.462 -0.7376  2.7518  1.7554
18682TIP3   OH277536   5.312   3.287  14.574  0.9954  0.7596 -0.4004
18682TIP3    H177537   5.313   3.203  14.528 -0.2606  1.5848 -1.9898
18682TIP3    H277538   5.237   3.280  14.634  0.4024  1.0481 -1.1089
18683TIP3   OH277539   2.382   4.505   0.882  0.4171  0.0689 -0.0712
18683TIP3    H177540   2.331   4.586   0.879 -0.0249 -0.1162  1.8123
18683TIP3    H277541   2.318   4.435   0.874  0.5442 -0.1303  0.5869
18684TIP3   OH277542   1.167   2.330  15.508  0.7116 -0.0514  0.4366
18684TIP3    H177543   1.140   2.272  15.437 -0.4218  0.7732  0.1649
18684TIP3    H277544   1.213   2.273  15.570 -0.2856 -1.2145  0.1297
18685TIP3   OH277545   5.045   2.322  16.860  0.3505 -0.5119 -0.0159
18685TIP3    H177546   5.065   2.229  16.855 -0.7609 -0.7476 -0.0564
18685TIP3    H277547   5.012   2.345  16.773 -0.4895 -0.3392  0.3468
18686TIP3   OH277548   6.103   5.285  14.862 -0.0990  0.1633 -0.2793
18686TIP3    H177549   6.102   5.365  14.810  1.1076  1.0524  1.0142
18686TIP3    H277550   6.138   5.218  14.803  3.4433  1.6515 -0.0080
18687TIP3   OH277551   4.344   0.395   5.632  0.3992 -0.0960  0.2135
18687TIP3    H177552   4.351   0.480   5.588  1.2302 -0.2090  0.1306
18687TIP3    H277553   4.250   0.377   5.633  0.3968 -0.3839 -2.1014
18688TIP3   OH277554   1.244   1.975  16.828  0.3964  0.2917  0.1291
18688TIP3    H177555   1.303   2.047  16.805  1.5758 -1.1368 -1.3702
18688TIP3    H277556   1.230   1.928  16.746  0.5152 -1.8497  1.3101
18689TIP3   OH277557   6.180   1.062  11.920  0.1770  0.2853  0.7769
18689TIP3    H177558   6.131   1.092  11.996 -1.4069 -0.0107 -0.1010
18689TIP3    H277559   6.121   1.078  11.846  1.9349  1.1592 -0.4640
18690TIP3   OH277560   1.025   1.905  12.366  0.6510  0.2495  0.0446
18690TIP3    H177561   0.974   1.979  12.333 -0.9956 -1.1693 -0.6724
18690TIP3    H277562   1.107   1.909  12.318  0.2992  1.2100 -0.4849
18691TIP3   OH277563   4.589   5.393  11.895  0.0708 -0.6777 -0.1525
18691TIP3    H177564   4.682   5.391  11.871  0.0697 -1.4542 -0.0917
18691TIP3    H277565   4.547   5.334  11.833 -0.2243 -1.1772  0.5204
18692TIP3   OH277566   2.134   4.238   5.737  0.5318  0.2375 -0.2029
18692TIP3    H177567   2.124   4.168   5.801 -0.3972 -0.5769 -1.2211
18692TIP3    H277568   2.046   4.275   5.728  0.5606  0.0370 -1.3412
18693TIP3   OH277569   5.905   3.964  13.184  0.2552 -0.2828  0.9725
18693TIP3    H177570   5.827   3.927  13.225 -0.7929  0.8780  0.0567
18693TIP3    H277571   5.873   4.009  13.106  1.5394  2.2049  1.8206
18694TIP3   OH277572   6.035   4.674   5.906  0.2881 -0.1910  0.6141
18694TIP3    H177573   6.065   4.759   5.937 -2.0477  1.2614 -0.8915
18694TIP3    H277574   6.066   4.612   5.971  2.9284  1.6779  1.2003
18695TIP3   OH277575   5.220   6.499   4.870 -0.5228  0.0894  0.4387
18695TIP3    H177576   5.234   6.592   4.852 -0.3717 -0.2781 -1.5054
18695TIP3    H277577   5.303   6.468   4.907  0.8937 -0.1088 -2.6656
18696TIP3   OH277578   0.585   0.352  14.722 -0.2558 -0.2798 -0.1402
18696TIP3    H177579   0.664   0.303  14.700 -0.2370  0.0601 -0.8363
18696TIP3    H277580   0.611   0.444  14.717 -0.5859 -0.1735  0.0459
18697TIP3   OH277581   5.099   0.481   0.374 -0.2548 -0.2695  0.3837
18697TIP3    H177582   5.114   0.400   0.422  1.6385 -1.0079 -1.3824
18697TIP3    H277583   5.068   0.453   0.288 -2.1671  0.9787  0.6289
18698TIP3   OH277584   6.770   5.244   2.981  0.0366 -0.2228 -0.0782
18698TIP3    H177585   6.839   5.177   2.985 -0.3790 -0.5889  1.2216
18698TIP3    H277586   6.789   5.293   2.901  2.5803  0.5122  0.9156
18699TIP3   OH277587   1.855   2.476  15.516  0.0785  0.1199 -0.2518
18699TIP3    H177588   1.851   2.392  15.562 -0.1304  0.3173  0.0917
18699TIP3    H277589   1.911   2.459  15.441 -1.1143 -0.7011 -0.9695
18700TIP3   OH277590   4.560   6.432   1.780 -0.4000  0.1733 -0.3271
18700TIP3    H177591   4.529   6.521   1.765 -0.0068  0.0214 -2.1135
18700TIP3    H277592   4.498   6.395   1.843  0.0929  2.0741  1.3187
18701TIP3   OH277593   3.034   4.695  14.322 -0.4547 -0.1669  0.7752
18701TIP3    H177594   2.977   4.764  14.356  0.1742  0.2515  1.0052
18701TIP3    H277595   3.052   4.639  14.397  0.6534  0.5616  1.0773
18702TIP3   OH277596   6.454   5.279  12.157 -0.2385 -0.4174  0.5172
18702TIP3    H177597   6.424   5.199  12.200  0.3721  0.3210  2.3454
18702TIP3    H277598   6.534   5.303  12.204 -0.0522  0.9012 -0.4569
18703TIP3   OH277599   0.759   4.091  16.561 -0.6991 -0.2576 -0.1202
18703TIP3    H177600   0.820   4.084  16.635  0.6844  0.5368 -1.1541
18703TIP3    H277601   0.746   4.000  16.532  0.5964 -0.3870 -0.3410
18704TIP3   OH277602   6.820   5.057   5.039  0.1147  0.7707  0.0371
18704TIP3    H177603   6.807   5.064   4.944  0.2333  0.5418  0.0033
18704TIP3    H277604   6.743   5.100   5.077 -1.0166 -0.9949 -0.1653
18705TIP3   OH277605   0.044   3.476   4.310 -0.2858 -0.4099 -0.2001
18705TIP3    H177606   0.054   3.569   4.287 -0.2071 -0.2170  0.5959
18705TIP3    H277607   0.078   3.470   4.399  0.7311 -1.4110 -0.6322
18706TIP3   OH277608   1.723   2.371   4.462  0.3010  0.1746  0.0727
18706TIP3    H177609   1.754   2.284   4.487  1.5446  1.2140  2.3121
18706TIP3    H277610   1.637   2.356   4.423  0.7141 -2.1009 -0.0073
18707TIP3   OH277611   6.415   3.727  11.315  0.3012  0.7202  0.0009
18707TIP3    H177612   6.402   3.633  11.309 -0.8900  0.8411  0.4110
18707TIP3    H277613   6.506   3.738  11.343  0.2305 -0.3232  0.6473
18708TIP3   OH277614   1.127   4.361   6.598  0.0688  0.4069  0.3729
18708TIP3    H177615   1.048   4.336   6.551  1.3610 -0.1456 -1.5890
18708TIP3    H277616   1.146   4.450   6.569 -0.3932  0.9213  1.6264
18709TIP3   OH277617   0.995   3.433   4.792 -0.2671 -0.6372 -0.8194
18709TIP3    H177618   0.964   3.344   4.810 -0.3286 -0.1058  1.9460
18709TIP3    H277619   1.082   3.421   4.755 -0.0656 -1.8425  0.0093
18710TIP3   OH277620   1.942   3.864   2.316  0.2884  0.2091  0.0980
18710TIP3    H177621   1.996   3.942   2.299 -0.1215  0.5615  0.4143
18710TIP3    H277622   1.861   3.881   2.269 -0.5439  0.8315  1.7419
18711TIP3   OH277623   6.181   5.670  13.103  0.2342 -0.3246 -0.6828
18711TIP3    H177624   6.123   5.610  13.150  0.2647 -0.0037 -0.2259
18711TIP3    H277625   6.256   5.680  13.161 -0.3558  1.1844 -0.1397
18712TIP3   OH277626   0.498   3.377   5.892  0.1858  0.4826  0.1177
18712TIP3    H177627   0.524   3.286   5.911  0.5001  0.0277 -2.3015
18712TIP3    H277628   0.468   3.411   5.976  0.9626 -1.5667  1.2775
18713TIP3   OH277629   6.381   3.430   0.309  0.1247  0.1945 -0.3316
18713TIP3    H177630   6.329   3.361   0.348  0.9135  0.4568  1.2122
18713TIP3    H277631   6.318   3.482   0.259 -0.8290 -0.3424  0.2971
18714TIP3   OH277632   6.760   4.315  14.399 -0.6178  0.4388 -0.1456
18714TIP3    H177633   6.674   4.286  14.370  0.3301 -1.4111 -1.1864
18714TIP3    H277634   6.784   4.384  14.338 -0.1286 -1.0530 -1.6779
18715TIP3   OH277635   2.453   0.137   4.703  0.4098  0.7495 -0.3865
18715TIP3    H177636   2.395   0.062   4.716 -0.1240  1.1533 -0.4154
18715TIP3    H277637   2.537   0.099   4.678  0.3033  0.1364  0.1902
18716TIP3   OH277638   4.814   3.874  11.882  0.8600 -0.2391  0.2087
18716TIP3    H177639   4.819   3.871  11.787  0.3181  3.5466 -0.0263
18716TIP3    H277640   4.904   3.860  11.912  1.0223 -1.4587 -0.8320
18717TIP3   OH277641   0.478   4.868   5.536  0.2525 -0.1584 -0.5242
18717TIP3    H177642   0.510   4.941   5.590  0.0152  0.4448 -1.1889
18717TIP3    H277643   0.557   4.832   5.495  0.3096  0.0733 -0.6191
18718TIP3   OH277644   1.013   3.222  15.369 -0.7271  0.4151  0.7950
18718TIP3    H177645   0.971   3.206  15.453  1.7400 -2.5736  1.5748
18718TIP3    H277646   1.025   3.135  15.331  2.6827  1.2746 -0.3531
18719TIP3   OH277647   2.287   6.096  12.145  0.0527  0.2897  0.5199
18719TIP3    H177648   2.235   6.041  12.204 -1.3600 -0.6049 -1.5376
18719TIP3    H277649   2.227   6.119  12.075  1.8292  1.0670 -0.7648
18720TIP3   OH277650   2.190   0.665   4.313 -0.1927  0.0421 -0.2165
18720TIP3    H177651   2.170   0.695   4.401  1.6255  0.1085  0.1997
18720TIP3    H277652   2.275   0.622   4.321  0.7794  1.4712 -2.2151
18721TIP3   OH277653   5.017   0.072  15.001  0.5220  0.0793  0.1040
18721TIP3    H177654   5.050   0.161  15.008  0.1619  0.4065 -2.0923
18721TIP3    H277655   4.980   0.053  15.087  0.7380  1.9932  0.6318
18722TIP3   OH277656   0.739   3.121   6.654 -0.0084 -0.0776  0.2365
18722TIP3    H177657   0.697   3.120   6.568  1.5952  0.3448 -0.5713
18722TIP3    H277658   0.773   3.210   6.663  1.2980 -0.5950  0.5694
18723TIP3   OH277659   1.722   0.813  15.236  0.7647 -0.6810 -0.3895
18723TIP3    H177660   1.709   0.723  15.207 -1.6370 -0.5397  0.1964
18723TIP3    H277661   1.719   0.808  15.332  2.1783 -0.1860 -0.2971
18724TIP3   OH277662   2.487   4.483  14.949  0.7112 -0.3536 -0.4657
18724TIP3    H177663   2.393   4.497  14.964  1.3483  0.5769  2.9297
18724TIP3    H277664   2.508   4.406  15.000  2.3013  0.9426  0.8798
18725TIP3   OH277665   1.440   4.506  16.590  0.0872 -0.6085  0.5370
18725TIP3    H177666   1.353   4.544  16.578 -0.0917 -1.1689  0.0624
18725TIP3    H277667   1.487   4.529  16.510 -0.5970 -2.9519 -0.5901
18726TIP3   OH277668   4.431   3.107   5.593 -0.0200 -0.3326 -0.5874
18726TIP3    H177669   4.365   3.160   5.636 -0.7815  0.0841 -2.2332
18726TIP3    H277670   4.436   3.027   5.646  0.1859  0.7866  1.1416
18727TIP3   OH277671   1.470   3.541   6.384  0.0177  0.0669  0.1207
18727TIP3    H177672   1.559   3.508   6.392  0.4018  1.1511  0.5194
18727TIP3    H277673   1.447   3.569   6.473 -1.1911 -1.3509  0.2770
18728TIP3   OH277674   2.591   3.580   0.293 -0.1325  0.6146 -0.3838
18728TIP3    H177675   2.661   3.629   0.251 -0.7860  2.2599  0.3985
18728TIP3    H277676   2.632   3.538   0.368  0.6109 -0.7527 -1.5313
18729TIP3   OH277677   5.015   3.901  16.957 -0.5091 -0.0219  0.2008
18729TIP3    H177678   5.007   3.993  16.932 -1.3135  0.1486  1.0520
18729TIP3    H277679   4.925   3.872  16.970 -0.2582 -0.9347 -0.0706
18730TIP3   OH277680   5.475   5.606   1.406  0.1143 -0.8141  0.2536
18730TIP3    H177681   5.536   5.621   1.334  0.4396  1.8110  1.0137
18730TIP3    H277682   5.415   5.538   1.374 -0.1086  0.7038 -2.7201
18731TIP3   OH277683   6.233   0.592  15.061  0.3540  0.6218 -0.1131
18731TIP3    H177684   6.221   0.593  15.156  0.4273  0.2933 -0.1020
18731TIP3    H277685   6.250   0.684  15.039  3.1138  0.3092  0.5362
18732TIP3   OH277686   3.875   5.895  16.542 -0.4251  0.3525  0.0000
18732TIP3    H177687   3.881   5.980  16.498 -0.6014  0.7604  0.7679
18732TIP3    H277688   3.951   5.846  16.509 -0.0149  1.0008 -0.0275
18733TIP3   OH277689   2.641   5.627  12.037  0.4846  0.3303  0.1620
18733TIP3    H177690   2.662   5.718  12.059 -1.5592  0.4291  1.9414
18733TIP3    H277691   2.654   5.579  12.119  0.7617 -0.8574 -0.5617
18734TIP3   OH277692   0.731   2.506   0.932 -0.1066  0.0312 -0.3219
18734TIP3    H177693   0.723   2.543   1.020  1.4840  0.7764 -0.4774
18734TIP3    H277694   0.664   2.551   0.881 -0.7655 -0.1088  0.4096
18735TIP3   OH277695   0.594   2.476  12.574  0.0247  0.1913  0.2739
18735TIP3    H177696   0.527   2.414  12.604 -0.1115  0.3491  0.2969
18735TIP3    H277697   0.674   2.424  12.570 -0.3638 -0.3340 -1.0654
18736TIP3   OH277698   0.174   4.534  13.782 -0.3026  0.2690  0.4097
18736TIP3    H177699   0.086   4.570  13.773 -1.3194 -2.0024  0.9559
18736TIP3    H277700   0.211   4.538  13.694 -2.2920 -2.0672 -0.5928
18737TIP3   OH277701   4.636   3.272  14.910 -0.1505  0.2266  0.1435
18737TIP3    H177702   4.629   3.354  14.861 -0.7599  0.0563 -0.0531
18737TIP3    H277703   4.722   3.277  14.952 -0.0397  0.8116 -0.1464
18738TIP3   OH277704   1.981   1.848  12.600  0.3404 -0.0608 -0.5649
18738TIP3    H177705   1.943   1.835  12.514 -0.2298  0.3812 -0.3833
18738TIP3    H277706   2.070   1.812  12.593  0.9148  1.5179 -1.8445
18739TIP3   OH277707   2.365   5.613  10.575 -0.0531  0.1124 -0.5331
18739TIP3    H177708   2.382   5.658  10.658 -0.3018  0.4787 -0.6796
18739TIP3    H277709   2.297   5.665  10.533 -2.0143 -1.6857  0.3274
18740TIP3   OH277710   4.429   0.677  12.669 -0.3339 -0.0014 -0.2261
18740TIP3    H177711   4.450   0.685  12.762 -2.2929 -2.6067  0.5197
18740TIP3    H277712   4.503   0.718  12.623  0.7788  1.0815  2.4464
18741TIP3   OH277713   3.244   2.962  16.577 -0.0389 -0.7647  0.2553
18741TIP3    H177714   3.149   2.960  16.583 -0.0708  0.1095  0.1409
18741TIP3    H277715   3.273   2.887  16.630 -0.7044  0.2402  2.0859
18742TIP3   OH277716   5.285   5.248  15.446  0.0984  0.0316 -0.3805
18742TIP3    H177717   5.278   5.162  15.407  1.0952 -1.5284  2.6851
18742TIP3    H277718   5.379   5.264  15.454 -0.0521 -0.3304  2.5901
18743TIP3   OH277719   2.625   4.232   2.016  0.3619  0.0161 -0.8969
18743TIP3    H177720   2.595   4.319   2.044  1.5837  0.3313 -0.4908
18743TIP3    H277721   2.695   4.211   2.078 -1.0686 -2.0293  0.0635
18744TIP3   OH277722   2.857   4.598   5.480 -0.2339 -0.3458 -0.5861
18744TIP3    H177723   2.838   4.523   5.424 -1.4289 -0.3382 -0.1911
18744TIP3    H277724   2.920   4.564   5.544 -2.0871 -1.4985  0.6661
18745TIP3   OH277725   0.834   2.969  15.034 -0.0346  0.5887  0.8209
18745TIP3    H177726   0.823   3.048  14.981  0.9250  0.3110  0.1923
18745TIP3    H277727   0.750   2.925  15.030  0.4335 -0.1393 -1.6567
18746TIP3   OH277728   2.098   6.715  16.835 -0.0686  0.1562  0.6847
18746TIP3    H177729   2.182   6.674  16.814 -0.1503  0.0277  0.6004
18746TIP3    H277730   2.120   6.790  16.890  0.4292  2.3799 -2.4401
18747TIP3   OH277731   4.039   2.123  12.061 -0.2447  0.2766  0.0751
18747TIP3    H177732   4.068   2.205  12.021 -2.0750  2.0878  2.3543
18747TIP3    H277733   4.119   2.071  12.069  0.6566  1.0148 -3.1282
18748TIP3   OH277734   5.491   3.687   1.886  0.2514  0.1963  0.7334
18748TIP3    H177735   5.567   3.695   1.828 -0.6009  0.4669 -0.3463
18748TIP3    H277736   5.485   3.772   1.929  1.2840 -0.2179  1.7454
18749TIP3   OH277737   3.801   1.400   0.396 -0.0388 -0.1129 -0.4804
18749TIP3    H177738   3.844   1.334   0.342 -0.7407 -0.0651 -1.0953
18749TIP3    H277739   3.745   1.350   0.455  0.8736 -0.1778  0.3504
18750TIP3   OH277740   5.647   0.876  14.923 -0.0110 -0.5547 -0.0402
18750TIP3    H177741   5.581   0.807  14.921 -1.3286  0.6963 -0.4147
18750TIP3    H277742   5.650   0.903  15.015 -2.0871  1.2999 -0.4648
18751TIP3   OH277743   5.577   1.855   5.696  0.2505 -0.3957  0.1920
18751TIP3    H177744   5.644   1.786   5.700 -0.3433 -1.0545 -1.1071
18751TIP3    H277745   5.497   1.810   5.671  0.0718  0.9117 -1.7071
18752TIP3   OH277746   2.034   1.747   1.276 -0.0396 -0.1037  0.5679
18752TIP3    H177747   1.955   1.743   1.221 -0.4282  1.0301  1.0221
18752TIP3    H277748   2.018   1.685   1.346  0.2553 -1.2163 -0.3447
18753TIP3   OH277749   1.090   5.636   2.757  0.2224  0.9462  0.4008
18753TIP3    H177750   1.036   5.572   2.803 -2.3402  1.7308 -1.4388
18753TIP3    H277751   1.108   5.703   2.822 -0.7597  0.5142  1.1324
18754TIP3   OH277752   5.561   1.792  14.409  0.1773  0.0083  0.8410
18754TIP3    H177753   5.605   1.803  14.493 -0.7086 -0.1555  1.3340
18754TIP3    H277754   5.628   1.812  14.344 -0.4789  5.4960  1.6208
18755TIP3   OH277755   6.522   6.598  13.935  0.2010  0.1913  0.7962
18755TIP3    H177756   6.597   6.654  13.915 -0.2287  1.0559  1.5863
18755TIP3    H277757   6.499   6.558  13.851  0.0751  1.7437  0.0766
18756TIP3   OH277758   3.926   4.800  11.970  0.2831  0.1905  0.2853
18756TIP3    H177759   3.983   4.876  11.980  1.1111 -0.5754  1.4999
18756TIP3    H277760   3.888   4.787  12.056 -0.0650 -0.6044  0.0162
18757TIP3   OH277761   0.420   3.028   5.881  0.5291 -0.5202  0.1789
18757TIP3    H177762   0.511   2.997   5.879  1.0306  0.9883 -1.9368
18757TIP3    H277763   0.407   3.058   5.971  1.9703 -1.1593  0.6247
18758TIP3   OH277764   2.574   1.399   0.927  0.2963  0.4057 -0.4471
18758TIP3    H177765   2.649   1.445   0.963  0.6284  0.6658 -1.4757
18758TIP3    H277766   2.582   1.408   0.832  0.0788 -1.2911 -0.6502
18759TIP3   OH277767   5.971   6.015   6.639  0.4553 -0.1429 -0.0213
18759TIP3    H177768   5.933   5.935   6.674  1.2056  0.3495  2.0005
18759TIP3    H277769   5.897   6.073   6.624  0.1810 -0.1253  1.4011
18760TIP3   OH277770   3.077   6.274   0.848 -0.3960 -0.0927  0.4513
18760TIP3    H177771   3.019   6.350   0.856 -1.4393 -1.0254  1.9495
18760TIP3    H277772   3.029   6.215   0.790  0.7986  0.7294 -1.4043
18761TIP3   OH277773   2.194   5.159   3.467 -0.2061  0.2410 -0.2019
18761TIP3    H177774   2.138   5.124   3.536  0.5455  1.1508  0.8713
18761TIP3    H277775   2.174   5.253   3.465  3.3135  1.1217  2.1489
18762TIP3   OH277776   3.733   2.140  11.175 -0.1812 -0.5656  0.2305
18762TIP3    H177777   3.743   2.169  11.266 -1.8237  0.3948  0.1387
18762TIP3    H277778   3.822   2.131  11.142  0.4149  0.0820  1.6288
18763TIP3   OH277779   0.395   5.699  14.322 -0.5290  0.5940  0.1416
18763TIP3    H177780   0.318   5.675  14.375 -1.0275  0.4689 -0.6213
18763TIP3    H277781   0.362   5.767  14.264  0.2083  1.2536  0.5026
18764TIP3   OH277782   1.616   0.680  15.821  0.2851  0.5721  0.1487
18764TIP3    H177783   1.559   0.749  15.787  0.4965  1.2648  1.1924
18764TIP3    H277784   1.672   0.724  15.886 -0.9416 -0.9707  2.3013
18765TIP3   OH277785   6.104   6.140   4.362 -0.3308  0.1106  0.2750
18765TIP3    H177786   6.114   6.047   4.343 -1.2500  0.1374 -0.4119
18765TIP3    H277787   6.192   6.176   4.353 -0.2637 -0.3923 -1.1808
18766TIP3   OH277788   6.588   3.068  15.319  0.1790 -0.2847 -0.9670
18766TIP3    H177789   6.561   3.031  15.235  2.4071  0.0345 -1.8696
18766TIP3    H277790   6.554   3.157  15.319  2.5334  0.6597 -2.7906
18767TIP3   OH277791   6.055   6.632   1.599  0.1866  0.1526 -0.0493
18767TIP3    H177792   5.996   6.591   1.536 -0.1341  0.8442 -0.2091
18767TIP3    H277793   6.042   6.583   1.680  1.1697 -1.2338 -0.7148
18768TIP3   OH277794   0.214   0.234  12.350  0.3722 -0.0945 -0.7427
18768TIP3    H177795   0.249   0.249  12.262 -1.6309  0.5231 -1.4693
18768TIP3    H277796   0.119   0.239  12.339 -0.0272 -3.0250  0.9154
18769TIP3   OH277797   6.796   5.043   0.014  0.3137 -0.1870  0.1791
18769TIP3    H177798   6.874   4.995   0.041 -0.4978 -1.3345  0.4877
18769TIP3    H277799   6.788   5.026  -0.080  0.1514 -0.4517  0.2423
18770TIP3   OH277800   0.894   1.528   0.761 -0.0539 -0.2361 -0.8099
18770TIP3    H177801   0.888   1.458   0.827 -1.2888  1.6584  1.1374
18770TIP3    H277802   0.987   1.547   0.755  0.2282 -1.5467 -0.8240
18771TIP3   OH277803   6.003   4.044  11.409 -0.5215 -0.3467  0.0522
18771TIP3    H177804   6.075   4.031  11.471 -0.4846 -0.2103  0.0395
18771TIP3    H277805   5.995   4.139  11.402 -1.2609 -0.3559  0.7044
18772TIP3   OH277806   5.822   4.870  15.274 -0.0753  0.4003 -0.0627
18772TIP3    H177807   5.776   4.947  15.241 -0.1028  0.3632 -0.1099
18772TIP3    H277808   5.802   4.800  15.211  0.0643  0.3897 -0.0962
18773TIP3   OH277809   5.707   6.222   3.463 -0.0371  0.5885  1.0538
18773TIP3    H177810   5.656   6.214   3.544  0.0579  0.5482  1.1101
18773TIP3    H277811   5.658   6.285   3.410  0.4783  1.4560  1.5869
18774TIP3   OH277812   0.248   6.051  15.366  0.3690 -0.3982 -0.1125
18774TIP3    H177813   0.262   5.957  15.349 -0.5210 -1.2856  3.5152
18774TIP3    H277814   0.153   6.062  15.358  0.5740  0.4014 -1.4561
18775TIP3   OH277815   6.522   5.238   5.715  0.5767  0.0839 -0.2007
18775TIP3    H177816   6.464   5.314   5.727 -0.2619 -0.2693 -1.9638
18775TIP3    H277817   6.502   5.181   5.789  1.9265  1.9835  1.7352
18776TIP3   OH277818   4.378   1.853   2.382  0.2582 -0.3781  0.4607
18776TIP3    H177819   4.339   1.926   2.430 -1.4480 -1.4185  0.7175
18776TIP3    H277820   4.353   1.868   2.291  0.6230 -0.1808  0.3961
18777TIP3   OH277821   5.378   2.121   0.451 -0.0847  0.2746  0.6114
18777TIP3    H177822   5.436   2.155   0.519  1.0288  1.5087 -0.9204
18777TIP3    H277823   5.437   2.090   0.382 -1.1463 -2.5254  0.8776
18778TIP3   OH277824   2.924   2.158  12.614 -0.1545  0.1420 -0.5232
18778TIP3    H177825   2.866   2.161  12.690 -0.0116 -0.4448 -0.3862
18778TIP3    H277826   2.997   2.103  12.642 -0.3794 -0.5505 -1.2782
18779TIP3   OH277827   0.800   5.536   2.241  0.4931  0.2787  0.3334
18779TIP3    H177828   0.708   5.555   2.224  0.0764 -2.4318 -0.6667
18779TIP3    H277829   0.834   5.615   2.284 -1.7699  2.0925 -1.1525
18780TIP3   OH277830   2.970   1.123  15.045  0.2949  0.3583  0.3253
18780TIP3    H177831   3.025   1.202  15.048 -0.2352  0.7691 -0.4404
18780TIP3    H277832   2.934   1.115  15.133  1.4069  0.2110  0.7733
18781TIP3   OH277833   0.356   2.614  12.998  0.5450 -0.2990 -0.0598
18781TIP3    H177834   0.339   2.543  13.061  1.1729  1.5492  2.2542
18781TIP3    H277835   0.446   2.599  12.969  1.1563  0.3188  1.4716
18782TIP3   OH277836   1.789   0.054  13.581 -0.0741  0.3338 -0.5752
18782TIP3    H177837   1.761   0.106  13.657  0.6232 -0.2121  0.0644
18782TIP3    H277838   1.884   0.067  13.578  0.4949 -2.9369  1.1727
18783TIP3   OH277839   5.637   2.262   5.868 -0.6938  0.1150  0.1054
18783TIP3    H177840   5.549   2.234   5.893 -0.3641 -0.1232  1.0266
18783TIP3    H277841   5.660   2.207   5.793 -1.0409 -0.3212  0.3183
18784TIP3   OH277842   1.723   0.669  10.677 -0.1838 -0.2277 -0.3073
18784TIP3    H177843   1.676   0.743  10.639 -1.3640  0.0359  1.5943
18784TIP3    H277844   1.742   0.612  10.602  1.4670  2.3393 -1.9260
18785TIP3   OH277845   2.466   3.005  16.495  0.3494  0.3638 -0.2022
18785TIP3    H177846   2.404   3.065  16.455  0.3676  0.0294 -0.7567
18785TIP3    H277847   2.466   3.027  16.588 -0.8240  0.1549 -0.1512
18786TIP3   OH277848   3.457   2.325   2.963 -0.5934 -0.4010 -0.0444
18786TIP3    H177849   3.436   2.326   2.870 -1.9013  0.7046  0.2394
18786TIP3    H277850   3.444   2.415   2.991  0.4691 -0.5870  1.0647
18787TIP3   OH277851   3.401   4.475  12.653  0.4260 -0.1468 -0.3454
18787TIP3    H177852   3.323   4.468  12.599  0.8301 -1.9451 -0.7103
18787TIP3    H277853   3.456   4.401  12.628  2.4826  1.3446 -0.4338
18788TIP3   OH277854   3.666   3.737   3.857 -0.1754  0.4969 -0.3295
18788TIP3    H177855   3.605   3.725   3.784 -0.6393  1.0394 -0.0360
18788TIP3    H277856   3.744   3.775   3.816 -0.3936  0.6998 -0.5603
18789TIP3   OH277857   0.198   5.632  15.476  0.8835 -0.0514 -0.2449
18789TIP3    H177858   0.151   5.551  15.454  2.2918 -0.7316 -0.8431
18789TIP3    H277859   0.157   5.699  15.421  2.3549 -1.1596 -2.8132
18790TIP3   OH277860   4.531   5.318   0.891 -0.0841 -0.2716 -0.1807
18790TIP3    H177861   4.460   5.258   0.866 -1.0214  1.3203 -1.5353
18790TIP3    H277862   4.524   5.325   0.986 -0.8390 -1.2549 -0.1515
18791TIP3   OH277863   1.538   1.438   2.153 -0.1348 -0.0909  0.6187
18791TIP3    H177864   1.538   1.344   2.165 -0.7654 -0.3160 -1.0223
18791TIP3    H277865   1.521   1.451   2.059 -0.2699  1.6468  0.8541
18792TIP3   OH277866   1.188   6.578  11.869 -0.1159  0.1609 -0.4603
18792TIP3    H177867   1.110   6.631  11.858 -1.3031 -1.4919 -0.2376
18792TIP3    H277868   1.230   6.580  11.783 -0.2408  1.2948 -0.5006
18793TIP3   OH277869   6.692   2.646   4.986 -0.4405 -0.3382  0.0962
18793TIP3    H177870   6.733   2.730   5.007  0.1475 -1.2338  2.7024
18793TIP3    H277871   6.691   2.644   4.890 -0.8036  2.7876 -0.0407
18794TIP3   OH277872   2.883   3.952   1.065  0.7664  0.4794 -0.1477
18794TIP3    H177873   2.972   3.948   1.031  0.5165  0.7056 -0.8504
18794TIP3    H277874   2.841   4.022   1.015 -0.3596 -0.9109 -1.2232
18795TIP3   OH277875   0.768   2.996  16.855 -0.2512  0.3343  0.3593
18795TIP3    H177876   0.825   2.964  16.925 -0.2413 -2.2662 -0.7561
18795TIP3    H277877   0.688   3.024  16.900  0.6361  0.9015  1.6136
18796TIP3   OH277878   4.592   5.624   4.861 -0.3275  0.3668  0.3178
18796TIP3    H177879   4.567   5.568   4.934 -3.8374  0.5714 -0.6124
18796TIP3    H277880   4.536   5.702   4.870 -0.3319  0.6966 -2.1596
18797TIP3   OH277881   1.214   1.476   1.512  0.1520 -0.3691 -0.1453
18797TIP3    H177882   1.304   1.489   1.483 -0.1077 -0.4619 -0.9874
18797TIP3    H277883   1.160   1.517   1.445 -0.4259  0.0588  0.5674
18798TIP3   OH277884   5.420   1.089  14.077  0.1582  0.0787 -0.4764
18798TIP3    H177885   5.396   1.073  13.986  1.1978  0.1682 -0.7789
18798TIP3    H277886   5.491   1.154  14.072 -0.7225  1.1236  0.4732
18799TIP3   OH277887   1.417   3.658  11.802 -0.1841 -0.2128 -0.4725
18799TIP3    H177888   1.479   3.592  11.772 -0.8069 -0.6744 -0.7683
18799TIP3    H277889   1.438   3.670  11.894 -1.0074 -1.9182 -0.0349
18800TIP3   OH277890   2.306   2.493   2.462  0.7221 -0.0098  0.6098
18800TIP3    H177891   2.329   2.584   2.443 -0.2397  0.1514  0.2105
18800TIP3    H277892   2.354   2.442   2.396  0.5559  0.2714  0.2671
18801TIP3   OH277893   6.203   4.855   4.909  0.2298 -0.2365  0.4370
18801TIP3    H177894   6.285   4.824   4.872  0.8587  1.0074  0.7428
18801TIP3    H277895   6.186   4.796   4.982  0.5732 -0.8211  0.0546
18802TIP3   OH277896   3.299   5.139  11.303 -0.0160  0.0602  0.2234
18802TIP3    H177897   3.271   5.149  11.212  2.0174  0.9494 -0.3318
18802TIP3    H277898   3.287   5.046  11.322 -0.8758 -0.0493 -0.8120
18803TIP3   OH277899   1.738   1.214   1.039  0.3276  0.7278  0.4314
18803TIP3    H177900   1.797   1.145   1.007  0.9856  1.2831  0.4221
18803TIP3    H277901   1.678   1.168   1.098 -0.1394 -0.0986 -0.6706
18804TIP3   OH277902   2.419   2.395   1.576  0.0449 -0.1955  0.0531
18804TIP3    H177903   2.484   2.330   1.603 -0.5508 -0.5796  0.5794
18804TIP3    H277904   2.470   2.473   1.555  0.6789 -0.5105  0.4172
18805TIP3   OH277905   5.163   4.167  16.866  0.0604  0.4746  0.2064
18805TIP3    H177906   5.195   4.095  16.810 -0.3315 -0.1055  0.7274
18805TIP3    H277907   5.191   4.246  16.820  1.7952 -0.0178  0.3831
18806TIP3   OH277908   6.600   5.124  14.462  0.4095  0.5398  0.3132
18806TIP3    H177909   6.681   5.161  14.427  0.2390  0.5929 -0.0318
18806TIP3    H277910   6.536   5.194  14.450  0.3975  0.6397  0.9357
18807TIP3   OH277911   6.807   0.328   0.208  0.2506  0.1099  0.6767
18807TIP3    H177912   6.722   0.308   0.248 -0.0210 -0.2556 -0.0506
18807TIP3    H277913   6.804   0.422   0.190 -0.1422  0.0353  0.3412
18808TIP3   OH277914   0.513   6.486   3.463  0.2725  0.1073  0.8537
18808TIP3    H177915   0.543   6.408   3.417  0.1061 -0.3058  1.4371
18808TIP3    H277916   0.587   6.510   3.520  1.5406  2.1902 -1.5502
18809TIP3   OH277917   0.649   2.691   0.304  0.0900  0.6153  0.1325
18809TIP3    H177918   0.555   2.687   0.321  0.2337  2.1234  1.3654
18809TIP3    H277919   0.661   2.772   0.254  0.7988  0.6826  0.4025
18810TIP3   OH277920   0.461   4.298   2.809 -0.1600  0.3583  0.1020
18810TIP3    H177921   0.499   4.244   2.879 -0.9199 -0.6068 -0.2277
18810TIP3    H277922   0.493   4.386   2.828 -0.3191  0.1038  1.6500
18811TIP3   OH277923   4.425   0.848   3.009  0.3228  0.0445 -0.2580
18811TIP3    H177924   4.393   0.900   3.082  0.1720 -0.0347 -0.2667
18811TIP3    H277925   4.507   0.810   3.040  0.7966  0.8601 -0.5048
18812TIP3   OH277926   0.856   0.423   4.804 -0.0754  0.6561  0.2865
18812TIP3    H177927   0.891   0.435   4.716 -0.4670 -0.0578  0.0288
18812TIP3    H277928   0.774   0.472   4.805 -1.3457 -1.3702 -0.5584
18813TIP3   OH277929   5.769   3.305  16.438 -0.0459 -0.2163  0.4546
18813TIP3    H177930   5.683   3.344  16.449 -0.5333 -0.6397 -1.6490
18813TIP3    H277931   5.826   3.355  16.497 -1.6773  0.1552  1.7593
18814TIP3   OH277932   3.886   5.378  15.390  0.0041 -0.7432 -0.4342
18814TIP3    H177933   3.842   5.347  15.469  1.3718  0.4234  0.8068
18814TIP3    H277934   3.878   5.474  15.393 -1.3310 -0.7379 -2.5543
18815TIP3   OH277935   2.128   6.122  12.943 -0.3649 -0.4873 -0.6704
18815TIP3    H177936   2.101   6.194  12.885 -1.9501 -0.3013  0.3064
18815TIP3    H277937   2.048   6.093  12.985  0.7644 -0.6680  1.4135
18816TIP3   OH277938   3.698   5.749   3.969 -0.4839  0.2527  0.0388
18816TIP3    H177939   3.683   5.723   4.060 -1.7924 -1.3693 -0.6357
18816TIP3    H277940   3.737   5.672   3.928 -2.9286 -0.1511 -1.5804
18817TIP3   OH277941   3.553   6.037   4.318  0.0222  0.6428  0.0698
18817TIP3    H177942   3.621   6.105   4.312  1.6680 -0.7081  2.4126
18817TIP3    H277943   3.590   5.962   4.271  0.1700 -0.0821  1.3163
18818TIP3   OH277944   4.343   4.711   4.360  0.0222 -0.3907 -0.3095
18818TIP3    H177945   4.431   4.741   4.380  0.5258 -1.8688 -0.2413
18818TIP3    H277946   4.355   4.624   4.321 -1.2302  0.3959 -2.5875
18819TIP3   OH277947   0.986   6.800   4.513 -0.1987 -0.2690  0.4423
18819TIP3    H177948   0.978   6.767   4.603 -0.7884  1.0709  0.8923
18819TIP3    H277949   0.899   6.834   4.492  0.0323 -0.2622 -0.5134
18820TIP3   OH277950   5.959   1.563  13.250  0.3014  0.5929 -0.5272
18820TIP3    H177951   5.910   1.546  13.169  0.6387  1.6766 -0.9677
18820TIP3    H277952   5.969   1.658  13.253 -0.2649  0.6152  1.1323
18821TIP3   OH277953   2.188   1.260  16.773 -0.2717 -0.7536 -0.2540
18821TIP3    H177954   2.279   1.272  16.800 -0.4863  0.0100  0.1484
18821TIP3    H277955   2.192   1.200  16.699  0.4820 -1.4482  0.3368
18822TIP3   OH277956   0.959   2.080  15.640 -0.2432  0.2442 -0.0548
18822TIP3    H177957   0.977   1.986  15.647 -0.3024  0.1354 -1.3834
18822TIP3    H277958   1.045   2.121  15.635 -0.1392  0.4394  2.3711
18823TIP3   OH277959   2.066   0.364  16.661 -0.3598  0.6051  0.6148
18823TIP3    H177960   2.010   0.338  16.734  1.7138  0.3557  2.1347
18823TIP3    H277961   2.064   0.288  16.602 -1.5443  0.5689  0.6885
18824TIP3   OH277962   2.746   3.378   1.464  0.2547 -0.2079 -0.4217
18824TIP3    H177963   2.828   3.404   1.423  1.5909  0.6477  2.6725
18824TIP3    H277964   2.713   3.458   1.504 -0.6035 -1.1862  0.8650
18825TIP3   OH277965   6.579   5.578   0.936 -0.2515 -0.6664 -0.0871
18825TIP3    H177966   6.484   5.580   0.923 -0.3865  0.5034  1.0246
18825TIP3    H277967   6.596   5.645   1.003  1.2962 -1.2250  0.0984
18826TIP3   OH277968   4.680   6.104  17.005 -0.2589 -0.1150  0.4018
18826TIP3    H177969   4.683   6.188  17.051 -0.3157  0.0474  0.1117
18826TIP3    H277970   4.675   6.038  17.074 -1.3263  0.1788  0.6132
18827TIP3   OH277971   3.600   5.054   0.143 -0.2517  0.6490 -0.4205
18827TIP3    H177972   3.625   5.062   0.235  0.4695  1.4214 -0.6755
18827TIP3    H277973   3.560   5.139   0.121  2.1046  1.5000 -1.5598
18828TIP3   OH277974   6.724   2.844  16.305 -0.4439 -0.0544 -0.0617
18828TIP3    H177975   6.781   2.772  16.282  1.9710  0.8553  2.6579
18828TIP3    H277976   6.767   2.922  16.270 -0.9879  0.4620  0.3894
18829TIP3   OH277977   6.727   0.655   5.012 -0.4773  0.0355  0.4834
18829TIP3    H177978   6.644   0.695   4.985 -0.3993 -0.8949 -1.2229
18829TIP3    H277979   6.718   0.642   5.106 -1.8824  0.8164  0.4756
18830TIP3   OH277980   6.283   2.054   2.511  0.1615  0.3583 -0.3666
18830TIP3    H177981   6.337   2.083   2.585  1.3529 -1.3241 -0.5464
18830TIP3    H277982   6.264   2.134   2.463 -0.2652  1.4252  1.5121
18831TIP3   OH277983   6.240   5.403  13.823 -0.0775 -0.1433  0.2568
18831TIP3    H177984   6.230   5.309  13.836  0.5124 -0.0422  1.5685
18831TIP3    H277985   6.330   5.413  13.790  0.1993  0.0335  1.0506
18832TIP3   OH277986   4.296   1.327   4.176  0.3717  0.0361 -0.4894
18832TIP3    H177987   4.387   1.298   4.188 -0.0186 -0.6293  0.9497
18832TIP3    H277988   4.244   1.247   4.184 -0.8425  1.1744  5.0213
18833TIP3   OH277989   1.166   1.552  16.504  0.3861  0.0930 -0.3334
18833TIP3    H177990   1.071   1.561  16.498  0.3564 -0.8360 -1.4876
18833TIP3    H277991   1.185   1.558  16.597 -0.7897  0.4716 -0.1129
18834TIP3   OH277992   5.915   0.073  14.330  0.1662 -0.4074  0.5109
18834TIP3    H177993   5.880   0.031  14.409  2.9446 -0.1335  1.9654
18834TIP3    H277994   5.916   0.167  14.351 -0.3658 -0.1969 -0.3856
18835TIP3   OH277995   1.545   3.617   4.879 -0.3699 -0.9263  0.0117
18835TIP3    H177996   1.578   3.628   4.790 -2.7694 -0.7831 -0.8821
18835TIP3    H277997   1.508   3.702   4.902 -1.8324 -1.6218  0.2796
18836TIP3   OH277998   1.922   3.556   5.695 -0.3901  0.0186  0.0340
18836TIP3    H177999   1.967   3.552   5.610 -1.9720  1.3053 -0.8983
18836TIP3    H278000   1.843   3.607   5.678 -0.6280  0.4897  2.3504
18837TIP3   OH278001   4.702   0.628   2.109 -0.2983  0.2110 -0.2653
18837TIP3    H178002   4.616   0.668   2.102 -0.7166 -0.9074 -1.7678
18837TIP3    H278003   4.763   0.697   2.080 -0.7932  0.5515 -0.4951
18838TIP3   OH278004   3.094   4.020   5.785  0.1355 -0.3081  0.2642
18838TIP3    H178005   3.118   3.946   5.841 -0.6838  0.1242  1.2084
18838TIP3    H278006   3.177   4.060   5.761  0.4229  0.9791  3.2250
18839TIP3   OH278007   5.629   5.133  13.873  0.0403  0.4816 -0.0170
18839TIP3    H178008   5.595   5.196  13.938 -0.8859  0.5197 -0.5214
18839TIP3    H278009   5.551   5.105  13.825  0.5834 -0.3565 -0.4076
18840TIP3   OH278010   5.204   0.453   2.435  0.0166  0.5462 -0.3065
18840TIP3    H178011   5.267   0.479   2.501 -0.0193 -0.3650  0.1041
18840TIP3    H278012   5.119   0.467   2.477 -0.0099  0.1516 -0.2250
18841TIP3   OH278013   1.814   4.703  17.041  0.2619  0.2253  0.2825
18841TIP3    H178014   1.766   4.747  17.111  2.2314  2.6326  0.2080
18841TIP3    H278015   1.850   4.625  17.083 -3.1895 -1.3590  0.4536
18842TIP3   OH278016   5.544   5.524  16.759 -0.0094  0.2494  0.1598
18842TIP3    H178017   5.580   5.440  16.731 -1.5338 -0.2302 -0.4399
18842TIP3    H278018   5.553   5.581  16.683 -0.5714  0.1112 -0.0088
18843TIP3   OH278019   4.544   0.722  11.728 -0.2955 -0.6455  0.1154
18843TIP3    H178020   4.559   0.639  11.682  0.8192 -0.8889  0.8890
18843TIP3    H278021   4.468   0.705  11.783  0.5959 -1.5074  1.0909
18844TIP3   OH278022   1.659   2.764  13.975 -0.2927  0.5887 -0.0435
18844TIP3    H178023   1.571   2.726  13.967 -0.8725  1.3547  2.3704
18844TIP3    H278024   1.707   2.728  13.900 -2.3356 -0.6971 -0.7878
18845TIP3   OH278025   6.062   1.445  13.765 -0.5859  0.7534  0.9230
18845TIP3    H178026   6.011   1.370  13.734  0.3325  0.0491  1.0814
18845TIP3    H278027   6.101   1.481  13.685  1.6349 -0.9528  1.1976
18846TIP3   OH278028   3.233   3.962   0.332  0.1269 -0.6599  0.3739
18846TIP3    H178029   3.262   3.916   0.253  0.1011  1.5374 -0.9461
18846TIP3    H278030   3.204   3.892   0.391 -0.8173 -2.2848 -1.9363
18847TIP3   OH278031   6.068   3.588   1.872 -0.1114  0.2345 -0.0838
18847TIP3    H178032   6.143   3.644   1.854 -0.0574  0.2308  0.1296
18847TIP3    H278033   5.992   3.643   1.852 -0.0432 -0.0820 -1.2455
18848TIP3   OH278034   5.191   3.776  15.667  0.0089 -0.0798 -0.1125
18848TIP3    H178035   5.161   3.696  15.623 -2.3114  0.9540 -0.4605
18848TIP3    H278036   5.264   3.747  15.722  1.8038 -1.7388 -3.2087
18849TIP3   OH278037   3.884   0.788   0.546  1.0425 -0.0741 -0.5040
18849TIP3    H178038   3.928   0.704   0.553  1.4029  0.2421  1.1637
18849TIP3    H278039   3.803   0.769   0.499  2.2232 -0.9207 -2.2832
18850TIP3   OH278040   3.212   2.744   4.706  0.4081 -0.4108  0.3278
18850TIP3    H178041   3.235   2.795   4.783 -0.4594  0.3314  0.1001
18850TIP3    H278042   3.155   2.675   4.738  0.2328 -0.2399  0.3821
18851TIP3   OH278043   6.022   3.067   1.480 -0.0106  0.3460 -0.2055
18851TIP3    H178044   5.958   3.076   1.410 -1.5009  0.3218  1.1201
18851TIP3    H278045   6.107   3.077   1.437 -0.9041  0.4741 -1.9723
18852TIP3   OH278046   5.589   1.928  15.824  0.1887  0.4396 -0.6125
18852TIP3    H178047   5.523   1.886  15.879  0.9722 -0.8128 -0.6050
18852TIP3    H278048   5.661   1.947  15.884  0.4778  0.3433 -0.9269
18853TIP3   OH278049   2.190   5.857  17.122 -0.9757  0.7455  0.4850
18853TIP3    H178050   2.273   5.877  17.165 -0.3526 -2.3479  0.8564
18853TIP3    H278051   2.133   5.827  17.192 -0.4796 -2.7752 -0.5315
18854TIP3   OH278052   6.381   5.152   5.490 -0.3272  0.1780 -0.1107
18854TIP3    H178053   6.436   5.221   5.453  0.2661 -0.6375 -0.7712
18854TIP3    H278054   6.402   5.152   5.583  1.0538 -0.3409 -0.4080
18855TIP3   OH278055   4.630   0.332   4.688  0.0782 -0.2866  0.3511
18855TIP3    H178056   4.545   0.376   4.683 -0.0177 -0.5864 -1.0426
18855TIP3    H278057   4.619   0.267   4.757 -1.3775 -1.4040 -0.8896
18856TIP3   OH278058   4.463   3.700   4.850 -0.1722 -0.2880 -0.3763
18856TIP3    H178059   4.371   3.713   4.824  0.0925  1.1653 -0.6297
18856TIP3    H278060   4.508   3.679   4.768  0.1661  1.5396 -0.6774
18857TIP3   OH278061   0.848   6.660  12.968 -0.5807 -0.6096 -0.4462
18857TIP3    H178062   0.932   6.701  12.946 -0.1578 -2.0720 -1.5924
18857TIP3    H278063   0.857   6.636  13.060  0.6181 -1.5806 -0.7996
18858TIP3   OH278064   0.022   3.610   3.750  0.3272  0.1035 -0.0183
18858TIP3    H178065   0.025   3.703   3.725 -1.1101  0.3258  0.6020
18858TIP3    H278066   0.111   3.590   3.779  0.5123  1.4242  0.3462
18859TIP3   OH278067   4.860   3.002  15.632  0.0433  0.5645  0.3855
18859TIP3    H178068   4.895   3.091  15.629  1.7117  0.0041  2.3445
18859TIP3    H278069   4.928   2.948  15.592 -0.4060  0.0028  0.3700
18860TIP3   OH278070   1.124   6.394   2.240  0.2307  0.2322  0.5353
18860TIP3    H178071   1.064   6.406   2.314 -1.5138 -0.9730 -0.6446
18860TIP3    H278072   1.072   6.346   2.175  2.1609  0.1007 -0.9369
18861TIP3   OH278073   1.153   3.344  14.860  0.1349 -0.1841  0.4226
18861TIP3    H178074   1.079   3.298  14.900  1.4696 -1.8252  1.0877
18861TIP3    H278075   1.225   3.332  14.921  1.7738 -1.3062 -1.6354
18862TIP3   OH278076   0.724   0.306  11.356  0.8547  0.0722 -0.4044
18862TIP3    H178077   0.745   0.272  11.269 -0.8114 -1.8786 -0.0720
18862TIP3    H278078   0.806   0.345  11.386  2.5503 -2.6625 -1.2931
18863TIP3   OH278079   1.926   4.217   6.053 -0.3583 -0.2080  0.4220
18863TIP3    H178080   1.836   4.197   6.079 -0.3026  0.5301  1.1890
18863TIP3    H278081   1.979   4.181   6.123  0.0925 -2.4987 -1.0268
18864TIP3   OH278082   3.936   0.067  12.836  0.9086 -0.6713 -0.5044
18864TIP3    H178083   3.899   0.121  12.767  1.5045  1.2072  0.6155
18864TIP3    H278084   3.869   0.001  12.854  1.2216 -1.9407 -3.6597
18865TIP3   OH278085   2.129   6.059  16.749  0.5677  0.3865 -0.3710
18865TIP3    H178086   2.180   6.133  16.717 -1.0601  0.9292 -1.7986
18865TIP3    H278087   2.115   6.078  16.842  0.9979  1.3793 -0.4978
18866TIP3   OH278088   5.682   4.578  10.832  0.3451  0.1881  0.1775
18866TIP3    H178089   5.735   4.508  10.793 -0.8336 -1.1901  0.9599
18866TIP3    H278090   5.624   4.532  10.893  0.3668  1.9970  1.6126
18867TIP3   OH278091   5.896   3.041  11.001  0.3642 -0.0819 -0.2021
18867TIP3    H178092   5.839   2.965  11.008  2.2462 -1.5395 -0.1945
18867TIP3    H278093   5.867   3.087  10.922 -0.1135 -1.4079 -0.8046
18868TIP3   OH278094   4.760   0.409   1.017 -0.2538  0.4682  0.0726
18868TIP3    H178095   4.678   0.459   1.017 -0.3272  0.3751 -1.2207
18868TIP3    H278096   4.761   0.365   1.101 -1.1886  1.0435  0.3976
18869TIP3   OH278097   5.188   3.490   4.184  0.5842 -0.3249  0.3254
18869TIP3    H178098   5.236   3.460   4.107  0.3946  0.3309 -0.0534
18869TIP3    H278099   5.197   3.585   4.182  1.4701 -0.3607  1.7013
18870TIP3   OH278100   0.610   2.519   2.168 -0.2966  0.0398  0.1265
18870TIP3    H178101   0.599   2.590   2.105  0.4600 -0.5868 -0.7347
18870TIP3    H278102   0.702   2.522   2.193  0.2688 -1.8900 -1.5054
18871TIP3   OH278103   6.091   4.082  10.805 -0.2119  0.1064 -0.3065
18871TIP3    H178104   6.062   4.010  10.861 -1.1071  0.5498 -0.2002
18871TIP3    H278105   6.015   4.140  10.798  0.8766  1.6973  0.6475
18872TIP3   OH278106   1.466   1.720   0.269 -0.1434  0.2533 -0.1545
18872TIP3    H178107   1.385   1.715   0.320 -0.8582 -0.7265 -1.3462
18872TIP3    H278108   1.472   1.812   0.242 -1.8409 -0.0380 -1.6013
18873TIP3   OH278109   0.725   2.166  12.479  0.1669  0.2544  0.0465
18873TIP3    H178110   0.813   2.183  12.444  1.1886 -1.5932  1.6225
18873TIP3    H278111   0.676   2.130  12.405  0.9231  0.6926 -0.6736
18874TIP3   OH278112   6.817   3.239   3.098 -0.2154 -0.2269  0.2587
18874TIP3    H178113   6.766   3.166   3.063  0.7964 -1.5547  1.4637
18874TIP3    H278114   6.843   3.289   3.021 -0.4170 -1.4794 -0.6472
18875TIP3   OH278115   6.670   0.236   0.947  0.6371 -0.0537 -0.0165
18875TIP3    H178116   6.742   0.202   0.895  1.2886 -0.6027  1.2370
18875TIP3    H278117   6.636   0.161   0.995 -1.3663  0.0070 -1.2556
18876TIP3   OH278118   3.009   5.805   4.630  0.4385  0.0436  0.1394
18876TIP3    H178119   3.045   5.889   4.658 -0.4991  0.1285  1.0976
18876TIP3    H278120   2.926   5.797   4.677 -0.2575 -0.6691 -1.1860
18877TIP3   OH278121   3.166   3.942  15.206  0.1752  0.2889  0.0351
18877TIP3    H178122   3.246   3.916  15.251 -0.1123 -1.9385 -0.6831
18877TIP3    H278123   3.104   3.960  15.277  0.5483 -0.5304  0.5855
18878TIP3   OH278124   4.172   1.243   3.720  0.4947  0.2556 -0.4603
18878TIP3    H178125   4.196   1.231   3.628 -0.2379 -0.2523 -0.5822
18878TIP3    H278126   4.243   1.201   3.769 -0.3885 -1.7394 -0.8310
18879TIP3   OH278127   3.213   6.662  13.389  0.2956  0.0895 -0.2383
18879TIP3    H178128   3.136   6.700  13.346  0.2999  1.3315  0.8441
18879TIP3    H278129   3.180   6.630  13.473  0.5776 -1.0949 -0.5710
18880TIP3   OH278130   5.740   1.626   3.976  0.2244  0.3507  0.0406
18880TIP3    H178131   5.684   1.626   4.054 -0.9857 -1.1156 -0.8012
18880TIP3    H278132   5.809   1.690   3.996 -0.4240  0.4575  2.0459
18881TIP3   OH278133   1.054   1.462   1.744  0.1643  0.0894  0.0026
18881TIP3    H178134   1.098   1.481   1.661 -0.4334  1.6314  0.0179
18881TIP3    H278135   1.125   1.458   1.808  0.6260 -1.0612 -0.5567
18882TIP3   OH278136   6.161   0.299  16.800 -0.3818 -0.3204  0.0038
18882TIP3    H178137   6.157   0.357  16.725  0.4150 -0.7227 -0.3541
18882TIP3    H278138   6.121   0.349  16.871 -1.9696 -0.2842 -0.8958
18883TIP3   OH278139   4.474   1.703  12.568  0.0806  0.2978 -0.2479
18883TIP3    H178140   4.415   1.715  12.493  0.1122  0.5513 -0.2337
18883TIP3    H278141   4.540   1.641  12.537 -0.2221 -0.0241 -0.2486
18884TIP3   OH278142   0.142   4.203  15.497 -0.0605  0.8307 -0.1839
18884TIP3    H178143   0.170   4.247  15.577 -0.0912  0.0999  0.2263
18884TIP3    H278144   0.073   4.259  15.462 -0.6928  0.6576  0.7880
18885TIP3   OH278145   1.515   2.707   3.135 -1.0272  0.8980 -0.4112
18885TIP3    H178146   1.462   2.692   3.213 -0.1302  2.5340  0.5247
18885TIP3    H278147   1.595   2.748   3.167 -0.0710  0.3833 -2.0417
18886TIP3   OH278148   3.630   4.398  13.134 -0.4445 -0.0383 -0.1057
18886TIP3    H178149   3.611   4.311  13.170 -1.0372  0.1920  0.1406
18886TIP3    H278150   3.645   4.382  13.041  0.1258 -0.5020  0.0607
18887TIP3   OH278151   4.818   4.485   4.431 -0.6103 -0.2071  0.0423
18887TIP3    H178152   4.861   4.432   4.498  0.6225  1.6420  0.7178
18887TIP3    H278153   4.726   4.462   4.438 -0.1515 -2.0160  0.5428
18888TIP3   OH278154   2.193   4.355  11.029 -0.5114 -0.1626 -0.0879
18888TIP3    H178155   2.106   4.371  10.992 -0.5518 -1.7680 -0.7463
18888TIP3    H278156   2.181   4.279  11.085  0.4175 -0.2111  0.0462
18889TIP3   OH278157   2.984   5.058  13.969  0.1953  0.1770 -0.5368
18889TIP3    H178158   3.003   5.031  14.058  0.7088 -1.1911 -1.0464
18889TIP3    H278159   2.921   5.129  13.978  2.1823  1.8174  1.0161
18890TIP3   OH278160   6.073   0.079   2.264 -0.2798  0.0260 -0.2146
18890TIP3    H178161   6.123   0.160   2.256 -2.4671  1.4037 -0.3393
18890TIP3    H278162   6.072   0.060   2.358 -0.6029  0.6982 -0.0805
18891TIP3   OH278163   1.426   3.218  10.184 -0.0167  0.1747 -0.1210
18891TIP3    H178164   1.454   3.147  10.242  1.3074  0.7551 -0.0229
18891TIP3    H278165   1.369   3.176  10.121  0.5425 -0.9411  0.1002
18892TIP3   OH278166   1.506   5.255  17.227  0.2379 -0.0111 -0.4313
18892TIP3    H178167   1.578   5.281  17.170  0.5679  0.3797  0.1516
18892TIP3    H278168   1.428   5.260  17.172  0.5178  0.6314 -0.7675
18893TIP3   OH278169   1.721   5.459  15.025 -0.0542  0.0936  0.0961
18893TIP3    H178170   1.726   5.538  14.972  2.0834  1.5645  2.3972
18893TIP3    H278171   1.788   5.401  14.988 -0.7830 -0.2008 -0.8032
18894TIP3   OH278172   3.845   0.434   0.366 -0.1577 -0.0698  0.2207
18894TIP3    H178173   3.858   0.513   0.313  0.0505 -0.3893 -0.2016
18894TIP3    H278174   3.751   0.436   0.387 -0.4278 -0.4086 -0.9038
18895TIP3   OH278175   5.818   0.147  16.793  0.6271 -0.5542 -0.1814
18895TIP3    H178176   5.824   0.147  16.889 -2.2908 -0.6170  0.0247
18895TIP3    H278177   5.858   0.064  16.767 -1.2965 -1.9758  1.2047
18896TIP3   OH278178   5.694   1.132  13.193 -0.0528  0.9966  0.1897
18896TIP3    H178179   5.758   1.101  13.129 -0.5463 -0.1889  0.2669
18896TIP3    H278180   5.610   1.126  13.148 -0.4277 -0.0284  1.0078
18897TIP3   OH278181   5.429   4.409  16.498 -0.0309  0.3584  0.2281
18897TIP3    H178182   5.414   4.504  16.493  0.7500  0.4877  0.2325
18897TIP3    H278183   5.403   4.386  16.588 -0.5939  0.4936  0.1047
18898TIP3   OH278184   6.522   1.737   5.671  0.0927  0.0915  0.1049
18898TIP3    H178185   6.563   1.822   5.656  2.2558 -0.8405  0.5177
18898TIP3    H278186   6.431   1.748   5.643  0.0088  2.9037  1.3978
18899TIP3   OH278187   6.015   1.123  12.729  0.0613 -0.2027  0.7124
18899TIP3    H178188   6.035   1.215  12.713  0.1922 -0.2093  0.8374
18899TIP3    H278189   6.085   1.093  12.787 -0.7397 -0.0348  1.7653
18900TIP3   OH278190   3.866   6.356  12.122  0.2035  0.2211 -0.1890
18900TIP3    H178191   3.863   6.405  12.204  1.9247  0.0187 -0.0016
18900TIP3    H278192   3.950   6.311  12.123 -0.3886 -0.9563 -1.3926
18901TIP3   OH278193   0.587   6.026  17.157  0.4063 -0.0013  0.3831
18901TIP3    H178194   0.528   6.080  17.209 -0.3203  1.1786 -1.6001
18901TIP3    H278195   0.534   5.953  17.127 -0.0999  1.0741 -1.4231
18902TIP3   OH278196   3.031   5.227  15.266 -0.1020 -0.0292  0.2803
18902TIP3    H178197   2.994   5.189  15.345  0.1649 -0.6030  0.1349
18902TIP3    H278198   3.071   5.153  15.220  0.7120  0.4760  0.1516
18903TIP3   OH278199   4.801   2.144  15.364 -0.3354 -0.2492 -0.2807
18903TIP3    H178200   4.844   2.061  15.342 -0.7531 -0.1813 -1.4174
18903TIP3    H278201   4.871   2.209  15.356  0.5819 -0.7725  3.0144
18904TIP3   OH278202   6.784   0.164   5.219  0.2486  0.3714  0.2453
18904TIP3    H178203   6.714   0.099   5.210 -0.0487  0.6824  0.3003
18904TIP3    H278204   6.791   0.204   5.132  0.2987  0.4010  0.2625
18905TIP3   OH278205   6.058   5.992  16.741 -0.5385 -0.1882 -0.4234
18905TIP3    H178206   5.975   6.039  16.746 -1.5853 -2.1159  0.7780
18905TIP3    H278207   6.066   5.967  16.648 -1.4876 -0.3156 -0.4724
18906TIP3   OH278208   0.786   0.044  16.095  0.2160  0.3521  0.0869
18906TIP3    H178209   0.789   0.120  16.154  0.9023 -0.4783  1.1491
18906TIP3    H278210   0.741   0.076  16.017  1.2528  2.0917  0.1696
18907TIP3   OH278211   4.852   3.420   1.638 -0.3109  0.1827 -0.7870
18907TIP3    H178212   4.885   3.344   1.686 -1.2050 -0.8568 -1.7953
18907TIP3    H278213   4.839   3.487   1.705  0.9193 -0.3878  0.0502
18908TIP3   OH278214   3.338   6.580   5.445  0.1201  0.1751  0.0965
18908TIP3    H178215   3.427   6.613   5.459 -0.0352  0.1083  1.3102
18908TIP3    H278216   3.351   6.493   5.407  0.5428  0.8329 -1.3133
18909TIP3   OH278217   3.636   2.880   4.039  0.0840 -0.3659  0.0824
18909TIP3    H178218   3.591   2.914   3.961 -0.0691  1.3104  0.8967
18909TIP3    H278219   3.623   2.947   4.106  1.4412 -1.1473  1.1475
18910TIP3   OH278220   1.856   5.643   1.884 -0.2454  0.2953 -0.2849
18910TIP3    H178221   1.810   5.652   1.800 -0.1659 -0.0782 -0.3697
18910TIP3    H278222   1.942   5.608   1.860 -0.7217 -1.1705  0.0743
18911TIP3   OH278223   4.414   2.145  14.557  0.3864  0.3012  0.0115
18911TIP3    H178224   4.381   2.059  14.580 -0.0224 -0.0366 -1.7377
18911TIP3    H278225   4.345   2.206  14.584  1.0636  0.1849  2.0783
18912TIP3   OH278226   4.300   3.655  14.233  0.0740 -0.1858 -0.1182
18912TIP3    H178227   4.275   3.598  14.160 -2.3121  1.5864 -0.7444
18912TIP3    H278228   4.380   3.699  14.204 -1.5472  1.4533 -2.2621
18913TIP3   OH278229   3.154   0.404   5.162 -0.9097 -0.1890  0.2105
18913TIP3    H178230   3.074   0.381   5.115 -1.7546  1.8712  0.5965
18913TIP3    H278231   3.192   0.475   5.111  0.2479 -0.5806  0.5028
18914TIP3   OH278232   2.028   0.445   1.816  0.2961 -0.1133  0.0857
18914TIP3    H178233   1.971   0.378   1.777 -0.2815 -0.1517  0.9766
18914TIP3    H278234   1.972   0.523   1.823  0.6753  0.1697 -0.0478
18915TIP3   OH278235   6.115   6.767  13.301  0.1396  0.6444  0.1514
18915TIP3    H178236   6.155   6.811  13.227 -0.3510  1.5766  0.4367
18915TIP3    H278237   6.060   6.833  13.343 -0.9381 -0.3362  0.3355
18916TIP3   OH278238   0.254   2.842   4.599 -0.4327 -0.1508 -0.0820
18916TIP3    H178239   0.197   2.856   4.675 -1.1634 -1.0901 -0.4454
18916TIP3    H278240   0.194   2.817   4.529  0.2891  0.2471 -0.8453
18917TIP3   OH278241   5.200   4.430  14.992  0.6837 -0.6748 -0.4321
18917TIP3    H178242   5.140   4.498  14.960  0.4841  0.2773  1.8686
18917TIP3    H278243   5.273   4.432  14.930 -0.6496 -0.3508 -2.0328
18918TIP3   OH278244   5.251   1.300   2.444 -0.1696 -0.3786  0.4456
18918TIP3    H178245   5.184   1.302   2.513  0.0579 -1.2242  0.6903
18918TIP3    H278246   5.330   1.335   2.486 -0.0861 -0.6954  0.5494
18919TIP3   OH278247   2.760   6.035   5.518  0.9133  0.8592 -0.6744
18919TIP3    H178248   2.754   5.979   5.440 -0.9158 -1.1823  0.8810
18919TIP3    H278249   2.677   6.083   5.519  0.5513  0.2122  0.5099
18920TIP3   OH278250   5.750   6.518   1.758 -0.3079 -0.4591  0.0479
18920TIP3    H178251   5.732   6.424   1.751  1.3116 -0.6345 -2.1454
18920TIP3    H278252   5.841   6.523   1.786  0.2455  0.4447 -1.8121
18921TIP3   OH278253   0.082   0.526   3.802 -0.8398 -0.2846  0.2076
18921TIP3    H178254   0.066   0.470   3.878 -1.9132  2.0078  1.7032
18921TIP3    H278255   0.009   0.506   3.742 -0.0479 -2.0121 -0.2153
18922TIP3   OH278256   3.249   2.878  13.454 -0.2183 -0.0336 -0.7172
18922TIP3    H178257   3.185   2.948  13.452 -0.0863  0.0781 -1.1069
18922TIP3    H278258   3.334   2.922  13.445 -0.0603 -0.1503  0.1110
18923TIP3   OH278259   4.934   3.583  14.849 -0.1154  0.2728 -0.6292
18923TIP3    H178260   4.940   3.573  14.944 -0.4670  1.5453 -0.4634
18923TIP3    H278261   4.983   3.663  14.830  0.8842 -0.5606 -1.6566
18924TIP3   OH278262   3.793   1.945   0.196 -0.2018  0.1497 -0.0414
18924TIP3    H178263   3.845   1.876   0.155  0.5332 -0.3519  1.7389
18924TIP3    H278264   3.724   1.899   0.243  0.2210  0.6234  1.0572
18925TIP3   OH278265   5.976   5.274   4.505  0.1923 -0.0469 -0.2677
18925TIP3    H178266   5.895   5.238   4.541 -1.0264  2.6582 -0.1908
18925TIP3    H278267   6.044   5.247   4.567 -0.9055 -0.9112  0.5718
18926TIP3   OH278268   2.457   6.708  17.013 -0.3522  0.0123  0.1036
18926TIP3    H178269   2.407   6.707  17.095  0.0200 -3.8337  0.3621
18926TIP3    H278270   2.547   6.691  17.039 -0.3528 -2.0508 -1.1617
18927TIP3   OH278271   3.683   0.018   2.320  0.1600 -0.4058  0.1871
18927TIP3    H178272   3.664   0.001   2.412  1.8967 -2.6551  0.1864
18927TIP3    H278273   3.657   0.109   2.306 -0.2995 -0.0909  2.8344
18928TIP3   OH278274   0.951   4.093   0.503 -0.4824  0.3783  0.2510
18928TIP3    H178275   0.942   4.088   0.408 -0.2780 -0.6560  0.2799
18928TIP3    H278276   0.974   4.184   0.521  1.7590  0.0580 -0.8711
18929TIP3   OH278277   6.326   1.355  12.816 -0.5403  0.3573 -0.5818
18929TIP3    H178278   6.325   1.366  12.911 -1.3598  1.9343 -0.7555
18929TIP3    H278279   6.351   1.264  12.802 -0.5714  0.0801  1.1526
18930TIP3   OH278280   0.708   0.320   1.780 -0.5599 -0.4337  0.0544
18930TIP3    H178281   0.660   0.323   1.863  2.4577  0.9290  1.8297
18930TIP3    H278282   0.727   0.411   1.760  0.9425 -0.9279 -0.8311
18931TIP3   OH278283   5.663   0.752   0.914  0.0326  0.1968 -0.0157
18931TIP3    H178284   5.700   0.813   0.850 -0.0152  0.6391  0.3750
18931TIP3    H278285   5.630   0.808   0.984  1.9707 -0.3579  1.4009
18932TIP3   OH278286   2.834   4.083   4.108 -0.1497 -0.2895 -0.0155
18932TIP3    H178287   2.772   4.010   4.098  0.6588 -0.9990  0.0716
18932TIP3    H278288   2.918   4.047   4.077  0.3548  0.4604  0.4686
18933TIP3   OH278289   2.206   3.929  13.009  0.8749  0.4343  0.0739
18933TIP3    H178290   2.267   3.967  13.072 -0.8000 -0.7485  2.4680
18933TIP3    H278291   2.219   3.835  13.016 -1.5493  0.1285  1.0203
18934TIP3   OH278292   2.838   6.701  14.860  0.1170  0.2994 -0.1149
18934TIP3    H178293   2.768   6.758  14.891  0.7935  0.7243  0.6797
18934TIP3    H278294   2.863   6.737  14.775 -0.2050  0.5166 -0.1191
18935TIP3   OH278295   6.246   2.573  13.387 -0.0593  0.1262 -0.6274
18935TIP3    H178296   6.233   2.483  13.358  1.2977 -0.4987  0.6815
18935TIP3    H278297   6.277   2.618  13.308 -1.6620 -0.2974 -1.5372
18936TIP3   OH278298   3.040   0.467  15.654  0.1180  0.2446 -0.0419
18936TIP3    H178299   3.102   0.448  15.725 -0.3054 -0.1614  0.2239
18936TIP3    H278300   3.081   0.429  15.577  0.4298  0.4021  0.0450
18937TIP3   OH278301   5.747   6.094  15.369  0.7071 -0.2281 -0.3138
18937TIP3    H178302   5.820   6.046  15.410  0.7543  0.2147  0.1305
18937TIP3    H278303   5.784   6.179  15.345  0.0893  0.3944  0.8533
18938TIP3   OH278304   6.271   3.157  11.129 -0.5508 -0.8451  0.3304
18938TIP3    H178305   6.277   3.089  11.062 -1.0599 -0.4779 -0.0944
18938TIP3    H278306   6.219   3.117  11.200 -1.2679 -0.7399 -0.1262
18939TIP3   OH278307   2.547   3.661   1.553 -0.0495  0.0457  0.1641
18939TIP3    H178308   2.635   3.656   1.591  0.3587 -0.3667 -0.8340
18939TIP3    H278309   2.552   3.732   1.489 -0.1001 -0.7892 -0.7738
18940TIP3   OH278310   0.944   2.290   1.716  0.1387  0.0215 -0.8898
18940TIP3    H178311   0.861   2.272   1.760  0.9949  1.3659  1.3453
18940TIP3    H278312   1.011   2.263   1.780  1.4247 -0.1482 -2.2877
18941TIP3   OH278313   0.278   5.141   2.641 -0.5135 -0.4336 -0.1606
18941TIP3    H178314   0.283   5.082   2.566 -0.0423 -1.0402  0.3360
18941TIP3    H278315   0.192   5.125   2.679 -1.1689  0.6384 -1.1818
18942TIP3   OH278316   0.590   2.082  11.241  0.2829  0.5265  0.4221
18942TIP3    H178317   0.617   2.174  11.241 -1.9342  1.1999  0.0788
18942TIP3    H278318   0.546   2.070  11.157  0.7433 -0.9125  0.3788
18943TIP3   OH278319   4.586   1.325   5.194 -0.2639 -1.0207  0.2429
18943TIP3    H178320   4.613   1.234   5.210 -0.0880 -0.8713  0.8026
18943TIP3    H278321   4.551   1.354   5.278 -0.2938 -0.5622  0.0697
18944TIP3   OH278322   5.168   3.633  15.134 -0.2050 -0.5418  0.4318
18944TIP3    H178323   5.130   3.701  15.078 -0.8155 -1.1750  0.0765
18944TIP3    H278324   5.246   3.605  15.087 -0.7192 -1.0762 -0.1126
18945TIP3   OH278325   4.851   0.011   0.596 -0.6358  0.0560  0.5020
18945TIP3    H178326   4.946   0.014   0.597 -0.6534  0.4932  0.8511
18945TIP3    H278327   4.826  -0.001   0.687 -0.9535  1.2763  0.5820
18946TIP3   OH278328   4.899   2.219  11.101 -0.5824 -0.8106  0.0386
18946TIP3    H178329   4.992   2.242  11.097 -0.8496  0.4805  1.1108
18946TIP3    H278330   4.899   2.124  11.110  0.6794 -0.6994  1.4021
18947TIP3   OH278331   3.936   3.331   1.727 -0.3848 -0.2311  0.2538
18947TIP3    H178332   3.933   3.292   1.640 -0.4439 -1.2622  0.7123
18947TIP3    H278333   4.001   3.402   1.719  0.9524 -1.4664 -0.1702
18948TIP3   OH278334   4.054   3.377   5.763  0.2219  0.4228 -0.1752
18948TIP3    H178335   4.146   3.348   5.764 -0.1520 -0.7992  0.5901
18948TIP3    H278336   4.058   3.469   5.739  1.5383 -0.0118 -1.6859
18949TIP3   OH278337   6.294   1.281  12.116 -0.4165 -0.4205  0.2838
18949TIP3    H178338   6.311   1.342  12.187  0.7460 -1.2232  0.7191
18949TIP3    H278339   6.200   1.266  12.119 -0.3688 -0.4930  1.6933
18950TIP3   OH278340   3.174   0.117   1.137 -0.6721 -0.0965 -0.1977
18950TIP3    H178341   3.256   0.094   1.093 -0.5175  0.5126 -0.2408
18950TIP3    H278342   3.178   0.071   1.221 -0.2355  0.0128 -0.1540
18951TIP3   OH278343   5.704   4.037  15.033  0.4133  0.0866  0.5628
18951TIP3    H178344   5.627   4.091  15.053  0.3428 -0.3908  1.5855
18951TIP3    H278345   5.767   4.099  14.996 -0.4536  0.4905 -0.2782
18952TIP3   OH278346   0.757   0.677   6.519  0.1713  0.1116 -0.1486
18952TIP3    H178347   0.667   0.667   6.489  0.2010 -1.0813  0.1485
18952TIP3    H278348   0.787   0.759   6.478 -1.1443  0.6936  0.0254
18953TIP3   OH278349   4.844   4.935  16.900 -0.6822  0.6717 -0.5832
18953TIP3    H178350   4.867   4.844  16.918 -0.7402  0.3594 -2.0323
18953TIP3    H278351   4.922   4.985  16.924 -0.6526  0.2460  0.2256
18954TIP3   OH278352   4.121   1.306  14.851 -0.4421 -0.1297  0.2850
18954TIP3    H178353   4.103   1.267  14.936 -0.3251 -2.6432 -0.7846
18954TIP3    H278354   4.211   1.337  14.856 -0.0781 -1.2637  0.7184
18955TIP3   OH278355   3.454   2.890  12.908 -0.5648 -0.1286 -0.1266
18955TIP3    H178356   3.413   2.805  12.896  0.1553 -0.7366  1.5349
18955TIP3    H278357   3.479   2.892  13.001  0.5727  1.3638 -0.4390
18956TIP3   OH278358   6.671   4.773   4.489  0.4625 -0.2810 -0.5116
18956TIP3    H178359   6.642   4.716   4.560  0.6128 -0.0035 -0.2274
18956TIP3    H278360   6.706   4.713   4.423  3.7907 -0.3498  1.2249
18957TIP3   OH278361   6.200   0.082  11.674  0.3840 -0.2525  0.3573
18957TIP3    H178362   6.243   0.167  11.687 -0.1727  0.2755 -1.1729
18957TIP3    H278363   6.259   0.019  11.715  1.2555  0.7730  0.7103
18958TIP3   OH278364   6.452   1.771   2.599  0.1120  0.3685  0.1219
18958TIP3    H178365   6.530   1.717   2.617 -0.3900  0.1335  1.6455
18958TIP3    H278366   6.487   1.860   2.589  0.6506  0.1753  0.2369
18959TIP3   OH278367   0.091   2.804  13.874 -0.2610  0.7674 -0.0278
18959TIP3    H178368   0.058   2.893  13.879 -0.6007  0.7839 -2.3084
18959TIP3    H278369   0.185   2.812  13.891 -0.9272  0.9831  4.1930
18960TIP3   OH278370   4.787   4.476   4.857 -0.8014  0.0453  0.0025
18960TIP3    H178371   4.807   4.424   4.780 -1.4374 -2.3700  1.4330
18960TIP3    H278372   4.698   4.451   4.881 -0.6491  0.8418  1.4548
18961TIP3   OH278373   6.399   2.879   0.886  0.8118  0.4742  0.4815
18961TIP3    H178374   6.390   2.969   0.917  3.7582  0.6396  0.9190
18961TIP3    H278375   6.492   2.860   0.894  0.6296 -1.7146 -2.1096
18962TIP3   OH278376   1.435   3.986   0.234  0.2536 -0.2168  0.0722
18962TIP3    H178377   1.524   4.013   0.210  0.1296 -0.4223 -0.6199
18962TIP3    H278378   1.385   3.992   0.153  0.6351 -4.2190 -0.5637
18963TIP3   OH278379   1.248   1.597   4.331  0.2257  0.2771 -0.4961
18963TIP3    H178380   1.238   1.691   4.316  0.5539  0.5646  0.9563
18963TIP3    H278381   1.343   1.584   4.339  0.2223 -0.2880 -1.3366
18964TIP3   OH278382   0.796   1.586  11.747  0.2211  0.1326  0.0809
18964TIP3    H178383   0.772   1.647  11.677  1.3671 -0.1078 -0.5419
18964TIP3    H278384   0.853   1.522  11.704  2.3167  0.9432  1.5747
18965TIP3   OH278385   4.620   2.781   0.891  0.5984 -0.2845  0.3570
18965TIP3    H178386   4.548   2.770   0.953 -0.3386 -2.2915 -1.0458
18965TIP3    H278387   4.577   2.801   0.808  1.6318 -1.8865 -0.5805
18966TIP3   OH278388   5.339   2.358  14.492 -0.6401  0.1446 -0.0919
18966TIP3    H178389   5.380   2.276  14.519 -1.6503  0.2056  1.7044
18966TIP3    H278390   5.302   2.338  14.405 -2.2585 -1.8255  0.9769
18967TIP3   OH278391   6.524   4.884   2.207  0.0900 -0.4062  0.6214
18967TIP3    H178392   6.459   4.821   2.176 -0.1705 -0.2995  0.9534
18967TIP3    H278393   6.524   4.954   2.141 -1.2635  0.3680  1.4223
18968TIP3   OH278394   0.317   5.732  14.796 -0.0912 -0.4793  0.6546
18968TIP3    H178395   0.304   5.713  14.889  0.8851  0.2796  0.9551
18968TIP3    H278396   0.386   5.799  14.795  1.4445 -2.0255 -0.7044
18969TIP3   OH278397   0.348   3.193  15.627 -0.1282 -0.2198 -0.0718
18969TIP3    H178398   0.259   3.162  15.608 -0.4015 -0.4367  1.4249
18969TIP3    H278399   0.363   3.165  15.718  0.7821  1.3933  0.2901
18970TIP3   OH278400   0.362   5.219  13.771 -0.2176  0.5271 -0.2810
18970TIP3    H178401   0.344   5.213  13.678  2.5317 -0.0933 -0.8074
18970TIP3    H278402   0.445   5.267  13.777  1.0083 -1.7225  1.6949
18971TIP3   OH278403   5.984   3.238   0.117  0.0626 -0.1021 -0.1467
18971TIP3    H178404   5.907   3.277   0.074 -0.4655  0.0444  0.9187
18971TIP3    H278405   5.977   3.145   0.098 -1.8782 -0.4930  2.1804
18972TIP3   OH278406   3.941   4.346   6.596 -0.0441 -0.7858  0.5379
18972TIP3    H178407   3.973   4.427   6.635 -1.7851 -0.4269  1.2695
18972TIP3    H278408   4.007   4.280   6.618  1.0944  0.3154  0.4212
18973TIP3   OH278409   5.897   4.222   5.177  0.0132 -0.7195  0.2654
18973TIP3    H178410   5.976   4.193   5.132 -0.4988  2.2241 -2.8250
18973TIP3    H278411   5.927   4.290   5.237  0.2269 -2.0281  1.6623
18974TIP3   OH278412   1.633   3.761   2.378 -0.1282  0.8012 -0.1870
18974TIP3    H178413   1.659   3.805   2.296  2.0221  0.4103  0.2393
18974TIP3    H278414   1.599   3.677   2.349  3.7920 -0.7529 -0.5590
18975TIP3   OH278415   4.598   1.411   1.675  0.1854 -0.5953  0.1094
18975TIP3    H178416   4.590   1.381   1.766 -2.7912  0.2798  0.1904
18975TIP3    H278417   4.536   1.357   1.627  0.0873  0.4809 -0.9986
18976TIP3   OH278418   4.543   6.406   3.029  0.0781 -0.0652 -0.0419
18976TIP3    H178419   4.580   6.318   3.038 -0.3350 -0.2592 -0.2625
18976TIP3    H278420   4.449   6.393   3.024 -0.0790  0.4818  1.2392
18977TIP3   OH278421   1.075   3.659   5.808 -0.1064 -0.5638 -0.5758
18977TIP3    H178422   1.050   3.568   5.793 -0.0379 -0.6596 -0.0897
18977TIP3    H278423   1.051   3.677   5.898 -1.1518  0.2378 -1.0050
18978TIP3   OH278424   6.366   2.035  11.291  0.2071 -0.6845 -0.0701
18978TIP3    H178425   6.289   1.983  11.266 -0.6079  0.7125 -0.5373
18978TIP3    H278426   6.377   2.097  11.219  1.0884 -0.1226  0.5456
18979TIP3   OH278427   1.990   6.499   4.871 -0.0309 -0.0866  0.3999
18979TIP3    H178428   1.911   6.445   4.875  0.7544 -1.2519  0.5244
18979TIP3    H278429   2.060   6.439   4.897  0.8803  0.9558  0.3471
18980TIP3   OH278430   3.247   1.870   0.993 -0.5452  0.2399  0.0256
18980TIP3    H178431   3.315   1.879   0.926  1.0150  1.2631  1.6963
18980TIP3    H278432   3.271   1.791   1.041 -1.8368 -0.6661 -0.7958
18981TIP3   OH278433   5.291   5.046  13.308  0.0502  0.0846  0.4860
18981TIP3    H178434   5.233   5.007  13.373  0.4728  0.5441  1.1357
18981TIP3    H278435   5.346   4.974  13.278  1.0918  0.2441  1.9655
18982TIP3   OH278436   2.342   0.461  15.768  0.5261  0.0790 -0.4709
18982TIP3    H178437   2.423   0.452  15.818 -0.1750 -0.1622  0.6478
18982TIP3    H278438   2.334   0.378  15.721  0.3546 -0.3479  0.3007
18983TIP3   OH278439   6.293   4.022  15.815 -0.1390 -0.3315  0.2980
18983TIP3    H178440   6.366   4.048  15.758 -1.5905  1.5699 -0.7887
18983TIP3    H278441   6.246   3.957  15.764  0.0634 -0.5911  0.4430
18984TIP3   OH278442   0.545   5.915  14.785 -0.2857 -0.7119  0.3262
18984TIP3    H178443   0.482   5.921  14.857 -0.3521  1.8731  0.1046
18984TIP3    H278444   0.541   6.001  14.743  2.1563 -1.0930 -0.7445
18985TIP3   OH278445   6.643   0.553   1.723 -0.5230 -0.1212  0.4528
18985TIP3    H178446   6.569   0.513   1.767  0.1385 -0.5421  1.1916
18985TIP3    H278447   6.719   0.533   1.779  0.0180  1.0373  0.1664
18986TIP3   OH278448   2.793   5.803  16.566 -0.0250  0.4647  0.6483
18986TIP3    H178449   2.760   5.780  16.653 -0.1211 -4.5549 -0.5338
18986TIP3    H278450   2.719   5.786  16.507  1.5648 -1.2220 -0.9333
18987TIP3   OH278451   4.079   6.479  14.651 -0.0836 -0.3019 -0.4587
18987TIP3    H178452   3.995   6.433  14.645  0.5090 -1.3586 -0.7621
18987TIP3    H278453   4.141   6.411  14.675  0.7434  0.4343 -0.5045
18988TIP3   OH278454   3.823   4.566  13.937  0.1847 -0.7508 -0.1565
18988TIP3    H178455   3.797   4.513  13.861 -1.6743  1.5576 -1.1712
18988TIP3    H278456   3.744   4.614  13.961  1.7555  1.3321  0.9537
18989TIP3   OH278457   0.755   2.128   1.922 -0.0738 -0.2883 -0.3307
18989TIP3    H178458   0.804   2.048   1.940 -1.9577 -1.0854  1.3863
18989TIP3    H278459   0.672   2.098   1.886 -0.9695  0.8798  0.7416
18990TIP3   OH278460   4.349   6.171   0.754  0.4152  0.0980 -0.9164
18990TIP3    H178461   4.286   6.241   0.743  0.8683  0.6901  0.1444
18990TIP3    H278462   4.434   6.212   0.740  0.8223  0.2522  1.6535
18991TIP3   OH278463   4.273   4.910  11.569  0.2792 -0.2172  0.0440
18991TIP3    H178464   4.181   4.934  11.559  0.2833  0.6943  2.0361
18991TIP3    H278465   4.272   4.834  11.628  0.8057 -0.2592  0.0032
18992TIP3   OH278466   5.869   4.597   6.263  0.6218  0.0327  0.1951
18992TIP3    H178467   5.849   4.526   6.324 -2.7456 -0.5678 -1.4727
18992TIP3    H278468   5.943   4.564   6.211  0.8172 -1.1326  1.1897
18993TIP3   OH278469   4.575   4.017   0.690 -0.5395  0.5143 -0.4046
18993TIP3    H178470   4.578   3.967   0.771 -1.1197  0.4692 -0.4090
18993TIP3    H278471   4.586   4.108   0.718  3.8103  0.1662 -0.6801
18994TIP3   OH278472   4.642   2.562   0.060 -0.8582  0.2823 -0.4804
18994TIP3    H178473   4.718   2.525   0.105 -2.0248 -1.1721  0.3385
18994TIP3    H278474   4.667   2.563  -0.032 -0.2631 -1.2446 -0.3512
18995TIP3   OH278475   5.380   1.612   1.722 -0.6100 -0.2566 -0.3169
18995TIP3    H178476   5.301   1.614   1.667 -0.2836  1.1169 -0.7495
18995TIP3    H278477   5.443   1.665   1.675 -0.3002  0.8859  1.3585
18996TIP3   OH278478   4.468   0.353  16.084  0.4334  0.1576 -0.1447
18996TIP3    H178479   4.455   0.264  16.117  2.3807 -0.3060 -0.5513
18996TIP3    H278480   4.538   0.389  16.138  2.3630  0.0479 -2.4804
18997TIP3   OH278481   6.182   0.881  11.530  0.5440  0.2929 -0.3465
18997TIP3    H178482   6.184   0.801  11.582 -0.7386  0.0011 -0.7349
18997TIP3    H278483   6.091   0.890  11.502  0.9160  1.2355 -1.3090
18998TIP3   OH278484   5.639   1.953  14.699 -0.3981  0.1387  0.0813
18998TIP3    H178485   5.610   1.862  14.709 -3.3176  1.2082  1.8950
18998TIP3    H278486   5.600   1.981  14.616 -0.9863  0.2554  0.3930
18999TIP3   OH278487   4.528   0.303  12.079  0.1311  0.4129 -0.0106
18999TIP3    H178488   4.447   0.344  12.111 -0.8387 -1.7214  0.3935
18999TIP3    H278489   4.547   0.235  12.144  1.6387  0.1565 -0.7074
19000TIP3   OH278490   3.188   3.326  11.031 -0.2864  0.3524 -0.0147
19000TIP3    H178491   3.224   3.415  11.033  1.9886 -0.5796  1.8312
19000TIP3    H278492   3.235   3.283  10.959  1.8548 -0.6250  1.8921
19001TIP3   OH278493   1.513   4.758   4.095  0.2993  0.9107 -0.4102
19001TIP3    H178494   1.588   4.733   4.150 -1.6261 -0.6656  1.5627
19001TIP3    H278495   1.493   4.848   4.122 -0.2847  0.3434  1.1028
19002TIP3   OH278496   3.848   3.410   6.060 -0.3895  0.2218  0.0493
19002TIP3    H178497   3.897   3.482   6.020 -0.3865  0.0354 -0.2770
19002TIP3    H278498   3.798   3.452   6.130  0.5401  0.3543  0.6511
19003TIP3   OH278499   5.191   4.922   5.537  0.3713  0.1130  0.3758
19003TIP3    H178500   5.139   5.001   5.520  1.5142  0.8198  0.1147
19003TIP3    H278501   5.164   4.860   5.469  0.3292  0.6929 -0.1400
19004TIP3   OH278502   5.908   6.697   3.634  0.4027 -1.0911 -0.1905
19004TIP3    H178503   5.918   6.613   3.678  0.7288 -1.8245 -1.6237
19004TIP3    H278504   5.818   6.723   3.652  0.7223 -1.0574  1.4281
19005TIP3   OH278505   4.057   3.182  10.784 -0.5599  0.0292 -0.7047
19005TIP3    H178506   4.046   3.112  10.720  0.4546 -0.1100 -0.7297
19005TIP3    H278507   4.021   3.260  10.741 -1.5179 -0.4222 -0.7468
19006TIP3   OH278508   4.413   3.300   4.726  0.1571  0.2938  0.4100
19006TIP3    H178509   4.440   3.208   4.726 -1.8611 -0.3249  0.4028
19006TIP3    H278510   4.341   3.304   4.789 -0.5791  1.6176 -0.4862
19007TIP3   OH278511   5.552   3.679  16.416 -0.6254 -0.0431 -0.1005
19007TIP3    H178512   5.526   3.730  16.492  0.8622 -0.4684  0.7254
19007TIP3    H278513   5.524   3.590  16.436  0.4535 -0.3005  0.3161
19008TIP3   OH278514   4.339   4.740  12.153 -0.2589 -0.3586 -0.5484
19008TIP3    H178515   4.429   4.747  12.184 -0.4306 -0.3128 -0.0596
19008TIP3    H278516   4.338   4.791  12.071  0.1411 -0.3017 -0.5173
19009TIP3   OH278517   0.016   2.149   0.880  0.2352  0.7076 -0.4994
19009TIP3    H178518  -0.045   2.212   0.918  0.8069 -0.0888  1.8102
19009TIP3    H278519  -0.040   2.091   0.828 -0.7355  1.1079  0.0722
19010TIP3   OH278520   6.524   2.651   0.119  0.0530  0.0667  0.4428
19010TIP3    H178521   6.484   2.591   0.056  1.1898 -2.0053  1.6274
19010TIP3    H278522   6.453   2.708   0.147 -0.7624  0.1625 -1.7038
19011TIP3   OH278523   5.498   4.798   3.643  0.5512  0.2388 -0.2625
19011TIP3    H178524   5.450   4.841   3.571  0.1644  2.0713  1.0566
19011TIP3    H278525   5.576   4.851   3.654  0.1046  0.5767  1.3403
19012TIP3   OH278526   3.381   6.611  13.856 -0.2955 -0.0010  0.6108
19012TIP3    H178527   3.447   6.586  13.792 -0.2625  0.3196  0.5180
19012TIP3    H278528   3.425   6.675  13.912 -0.0882 -0.8143  1.4078
19013TIP3   OH278529   0.466   6.661   4.091  0.3022  0.2932  0.2493
19013TIP3    H178530   0.398   6.645   4.157  0.2735  0.7749  0.3411
19013TIP3    H278531   0.548   6.652   4.138  0.2844  0.5052  0.3223
19014TIP3   OH278532   2.501   3.074  10.487  0.2867 -0.4218  0.2175
19014TIP3    H178533   2.519   2.980  10.481  3.0935  0.2296 -3.7682
19014TIP3    H278534   2.466   3.097  10.401  0.1426  2.3000  0.9527
19015TIP3   OH278535   6.175   3.916   2.676  1.0929  0.0344 -0.2739
19015TIP3    H178536   6.241   3.959   2.623 -1.3546  1.3850 -2.3362
19015TIP3    H278537   6.147   3.841   2.624  0.1821  0.1343  0.0646
19016TIP3   OH278538   3.014   6.588  13.601  0.1185  0.2751  0.5887
19016TIP3    H178539   2.938   6.590  13.658 -1.3776 -1.0391 -1.2847
19016TIP3    H278540   3.066   6.514  13.631 -0.0788  0.2923  0.9624
19017TIP3   OH278541   0.449   4.659   0.767 -0.2681  0.0508 -0.6719
19017TIP3    H178542   0.464   4.569   0.736 -0.0908 -0.0969 -0.1622
19017TIP3    H278543   0.526   4.707   0.740 -0.9237  0.3357 -2.0419
19018TIP3   OH278544   5.091   6.267   4.752 -0.2182 -0.2135 -0.5338
19018TIP3    H178545   5.122   6.357   4.754  0.2817 -0.3862 -0.4782
19018TIP3    H278546   5.168   6.214   4.773 -0.3289 -0.6960 -1.3219
19019TIP3   OH278547   3.047   4.786  13.065  0.1723 -0.7260 -0.1050
19019TIP3    H178548   3.141   4.786  13.047  0.1951 -1.3990  0.0084
19019TIP3    H278549   3.031   4.702  13.107 -0.0239  0.5101  2.3549
19020TIP3   OH278550   5.628   6.780  17.012 -0.6863 -0.3515 -0.1835
19020TIP3    H178551   5.656   6.693  17.041  1.6792 -0.1365 -1.6900
19020TIP3    H278552   5.614   6.771  16.918  0.4027  1.0641 -0.4993
19021TIP3   OH278553   3.565   2.034   1.850  0.0575 -0.1176  0.9843
19021TIP3    H178554   3.605   2.120   1.835  1.7195 -1.0419 -0.1690
19021TIP3    H278555   3.625   1.991   1.911 -0.5662 -0.6120  1.2531
19022TIP3   OH278556   3.558   3.387   2.377 -0.1262  0.4634  0.0986
19022TIP3    H178557   3.552   3.421   2.466 -0.9491 -0.3932  0.3825
19022TIP3    H278558   3.587   3.297   2.388  1.9858  1.0263 -0.6445
19023TIP3   OH278559   2.413   3.598  17.064 -0.2943  0.0314 -0.7002
19023TIP3    H178560   2.464   3.579  17.143 -1.1814  1.6926  0.3078
19023TIP3    H278561   2.327   3.560  17.082 -0.3679  0.0302 -1.0580
19024TIP3   OH278562   5.189   6.573   3.771 -0.3536  0.2020  0.4171
19024TIP3    H178563   5.152   6.643   3.716  1.6135  1.5363  0.7537
19024TIP3    H278564   5.203   6.500   3.710 -0.4906  0.8224 -0.3729
19025TIP3   OH278565   5.750   6.522  16.287 -0.2561  0.3938  0.6047
19025TIP3    H178566   5.757   6.501  16.194  1.2761 -0.4615  0.9076
19025TIP3    H278567   5.766   6.617  16.291  0.4670  0.2956  0.0823
19026TIP3   OH278568   4.914   1.559   2.778 -0.2957  0.1057  0.4078
19026TIP3    H178569   4.862   1.587   2.853 -0.4334  1.1774 -0.0781
19026TIP3    H278570   4.961   1.638   2.750  1.5333 -0.8324  0.7812
19027TIP3   OH278571   4.710   2.902   0.084 -0.2646  0.1969 -0.2903
19027TIP3    H178572   4.720   2.890  -0.010 -0.0395  0.9868 -0.3694
19027TIP3    H278573   4.682   2.816   0.117  0.5145 -0.3064 -0.9517
19028TIP3   OH278574   1.194   1.936  17.097  0.0834 -0.3663 -0.6700
19028TIP3    H178575   1.214   1.938  17.003  3.2787 -1.5250 -0.0755
19028TIP3    H278576   1.207   2.026  17.126  0.4789 -0.2782 -1.1002
19029TIP3   OH278577   3.863   5.795   6.300  0.1292 -0.6905 -0.0389
19029TIP3    H178578   3.771   5.791   6.273  0.3544  0.8382 -1.0818
19029TIP3    H278579   3.864   5.856   6.374  0.2210 -1.2104  0.3943
19030TIP3   OH278580   3.492   5.355   3.149  0.5166 -0.3426  0.3905
19030TIP3    H178581   3.570   5.362   3.204 -1.2672  0.2757  2.9299
19030TIP3    H278582   3.465   5.445   3.132 -0.2679 -0.5656  0.4282
19031TIP3   OH278583   1.000   5.353  13.899 -0.0989  0.4422 -0.4748
19031TIP3    H178584   1.007   5.275  13.954  1.2261  1.1766  0.4222
19031TIP3    H278585   1.064   5.340  13.830 -0.4337  0.3694 -0.7691
19032TIP3   OH278586   5.600   1.159   4.255  0.1827 -0.3637 -0.0650
19032TIP3    H178587   5.601   1.181   4.162  1.1143 -0.0983  0.0045
19032TIP3    H278588   5.635   1.237   4.298 -1.0643 -0.1431  0.5896
19033TIP3   OH278589   2.690   6.008   2.814  0.8362 -0.6404 -0.4923
19033TIP3    H178590   2.679   5.915   2.794 -2.4576 -0.6849  1.2086
19033TIP3    H278591   2.659   6.053   2.735  1.3681 -0.9728 -0.8924
19034TIP3   OH278592   1.070   1.937  13.129 -0.9985 -0.0546  0.0316
19034TIP3    H178593   1.033   1.849  13.117 -1.7480  0.3502 -0.6463
19034TIP3    H278594   1.014   1.994  13.077  0.4978  0.5980 -0.9043
19035TIP3   OH278595   3.272   1.082  14.649 -0.1239  0.1221 -0.6909
19035TIP3    H178596   3.216   1.040  14.583 -1.2968  0.2071  0.2324
19035TIP3    H278597   3.317   1.010  14.692 -0.0676  0.0043 -0.9456
19036TIP3   OH278598   5.992   2.146   2.163  0.2242  0.6374 -0.4867
19036TIP3    H178599   5.932   2.220   2.170  0.1465  0.8084 -2.7574
19036TIP3    H278600   5.955   2.091   2.094  1.3761 -0.4858 -0.2239
19037TIP3   OH278601   3.132   0.203  11.692  0.1457  0.4459 -0.3447
19037TIP3    H178602   3.074   0.272  11.662 -0.6398 -0.8463 -1.8503
19037TIP3    H278603   3.146   0.222  11.785 -1.2329  1.7752 -0.4001
19038TIP3   OH278604   3.919   3.102   5.911  0.0609  0.0962 -0.2561
19038TIP3    H178605   3.983   3.093   5.841 -1.0181  0.5027 -1.3281
19038TIP3    H278606   3.953   3.173   5.966  2.6962 -2.5629  1.6795
19039TIP3   OH278607   0.428   2.150   4.146  0.7861 -0.1060  0.4549
19039TIP3    H178608   0.372   2.165   4.222  0.2422  0.3719 -0.0301
19039TIP3    H278609   0.515   2.177   4.174  0.7599 -0.7695  1.1871
19040TIP3   OH278610   1.241   1.635  13.506 -0.0428 -0.6115 -0.6339
19040TIP3    H178611   1.243   1.707  13.569  2.3177 -0.9118 -0.2949
19040TIP3    H278612   1.196   1.564  13.552  1.1481 -0.6370  0.5537
19041TIP3   OH278613   3.857   4.858  11.696 -0.3306  0.0322 -0.2482
19041TIP3    H178614   3.898   4.887  11.778 -0.8899 -2.1974  0.8519
19041TIP3    H278615   3.773   4.821  11.723 -0.5460 -0.6714 -1.8468
19042TIP3   OH278616   1.833   2.121   4.475  0.1434  0.5433  0.8085
19042TIP3    H178617   1.831   2.107   4.381  1.2265  1.7555  0.6084
19042TIP3    H278618   1.903   2.064   4.507  1.0552  1.5665  0.6417
19043TIP3   OH278619   1.189   0.996  14.907  0.1999  0.2746 -0.4090
19043TIP3    H178620   1.273   1.002  14.863  0.7002 -0.4288  0.4493
19043TIP3    H278621   1.167   0.903  14.904  0.7747  0.0484  1.8148
19044TIP3   OH278622   5.469   4.835   5.528 -0.3638  0.1279 -0.2563
19044TIP3    H178623   5.409   4.863   5.597  1.1382  1.8546  0.4079
19044TIP3    H278624   5.427   4.862   5.447 -1.7515 -1.1565  0.0127
19045TIP3   OH278625   0.628   2.204   4.748  0.7070 -0.2575  0.4806
19045TIP3    H178626   0.627   2.122   4.798 -2.4424 -0.1852  0.6525
19045TIP3    H278627   0.546   2.247   4.772  0.5876  1.2278 -2.4205
19046TIP3   OH278628   0.770   0.847  15.301  0.6214  0.3983  0.6144
19046TIP3    H178629   0.744   0.938  15.311 -1.3696 -0.3861  2.9089
19046TIP3    H278630   0.767   0.832  15.206  1.7965  2.9018  0.1418
19047TIP3   OH278631   5.647   2.598   5.448  0.2306  0.1601  0.4673
19047TIP3    H178632   5.718   2.539   5.474  0.9526  1.2679  1.0208
19047TIP3    H278633   5.601   2.551   5.378  2.8026  0.3771 -1.3940
19048TIP3   OH278634   5.513   3.323   2.313 -0.3672 -0.0510 -0.8672
19048TIP3    H178635   5.499   3.229   2.313 -0.8777 -0.0059  0.7093
19048TIP3    H278636   5.597   3.335   2.356 -0.4584  0.2241 -0.7637
19049TIP3   OH278637   6.248   4.701   1.954 -0.3271  0.4502  0.0518
19049TIP3    H178638   6.220   4.618   1.916 -0.5175  0.9785 -0.9814
19049TIP3    H278639   6.273   4.679   2.043 -2.2579 -0.3833  0.4266
19050TIP3   OH278640   6.623   3.314   1.015  0.4061  0.0642 -0.3132
19050TIP3    H178641   6.558   3.329   0.946  0.2126 -4.6913 -1.3536
19050TIP3    H278642   6.580   3.344   1.095 -2.7010 -1.9150 -1.1542
19051TIP3   OH278643   2.955   0.291  11.425 -0.0990  0.1070 -0.3965
19051TIP3    H178644   3.016   0.364  11.430 -0.4148  0.3503 -0.1006
19051TIP3    H278645   2.936   0.282  11.331 -0.0970  0.4374 -0.4288
19052TIP3   OH278646   0.635   3.963  10.523  0.4609  0.7514  0.0660
19052TIP3    H178647   0.626   3.982  10.616  1.3802 -0.5458  0.4283
19052TIP3    H278648   0.551   3.926  10.498 -0.3481  2.5670 -0.0017
19053TIP3   OH278649   6.709   1.195   3.508  0.1412  0.0911 -0.2181
19053TIP3    H178650   6.747   1.260   3.450  0.2796 -0.5543 -0.8581
19053TIP3    H278651   6.784   1.153   3.550  0.0976 -0.4873 -0.7174
19054TIP3   OH278652   3.727   4.880   2.802 -0.6627 -0.4374 -0.4378
19054TIP3    H178653   3.814   4.843   2.782  0.3726  0.2191  2.5212
19054TIP3    H278654   3.742   4.932   2.881 -3.7149 -0.0545 -0.0824
19055TIP3   OH278655   4.475   1.139  13.393 -0.0571  0.2988 -0.5536
19055TIP3    H178656   4.422   1.128  13.314  0.9447 -0.2306 -1.1536
19055TIP3    H278657   4.480   1.234  13.404  0.3647  0.3953 -1.5110
19056TIP3   OH278658   0.187   4.226  13.728  0.5139 -0.1792  0.4598
19056TIP3    H178659   0.227   4.172  13.796 -0.1006  0.7242  1.5657
19056TIP3    H278660   0.143   4.296  13.776  0.1858  0.5577 -0.8820
19057TIP3   OH278661   0.517   1.269  15.547  0.0875  0.2353 -0.6293
19057TIP3    H178662   0.539   1.362  15.538  0.1251  0.2237 -0.6586
19057TIP3    H278663   0.575   1.237  15.615 -1.1387  0.6319  0.6253
19058TIP3   OH278664   3.602   5.736  11.301  0.9439  0.2759  0.4084
19058TIP3    H178665   3.552   5.761  11.223 -1.0709 -0.1960  1.5064
19058TIP3    H278666   3.585   5.806  11.364 -0.3641 -1.1105  1.6363
19059TIP3   OH278667   6.409   2.725  15.445 -0.1084 -0.1585 -0.4272
19059TIP3    H178668   6.397   2.809  15.488 -0.1435 -0.8364  0.9040
19059TIP3    H278669   6.396   2.660  15.514 -0.1032 -1.2604 -1.4446
19060TIP3   OH278670   2.552   0.420   3.726  0.2912 -0.4113  0.5781
19060TIP3    H178671   2.457   0.431   3.726  0.1608 -1.5135  0.4794
19060TIP3    H278672   2.585   0.497   3.679 -0.7138 -1.3422 -1.7355
19061TIP3   OH278673   2.985   6.142  15.585  0.4096 -0.0104  0.1571
19061TIP3    H178674   3.017   6.105  15.502 -0.3796 -0.2947 -0.0274
19061TIP3    H278675   3.047   6.110  15.651  1.0020  0.1596 -0.3137
19062TIP3   OH278676   1.360   5.642  11.427  0.0473 -0.2085  0.2021
19062TIP3    H178677   1.294   5.711  11.420 -1.0227 -1.1897  0.5069
19062TIP3    H278678   1.435   5.685  11.470 -0.4801  0.8365  0.1009
19063TIP3   OH278679   1.774   5.191   1.665  0.1140 -0.2208  0.4940
19063TIP3    H178680   1.792   5.119   1.725 -0.7174  0.3822  1.4869
19063TIP3    H278681   1.681   5.210   1.676  0.0047  0.0772 -0.7983
19064TIP3   OH278682   3.296   4.360  13.607 -0.2110 -0.2127 -0.1003
19064TIP3    H178683   3.280   4.407  13.690 -0.7974  0.5099 -0.6094
19064TIP3    H278684   3.339   4.279  13.633 -1.1719 -0.3870  0.9975
19065TIP3   OH278685   0.777   6.095  12.478 -0.2408 -0.0246  0.7828
19065TIP3    H178686   0.767   6.073  12.385 -2.0396  0.8401  0.7587
19065TIP3    H278687   0.729   6.026  12.524  0.9019 -0.6231  1.1152
19066TIP3   OH278688   5.197   2.517   4.713  0.1549  0.4723 -0.2398
19066TIP3    H178689   5.149   2.574   4.653 -0.7765 -1.2227 -1.1585
19066TIP3    H278690   5.203   2.434   4.666  0.6404 -0.4654  1.4610
19067TIP3   OH278691   1.090   6.415   1.851  0.3937  0.1438 -0.1469
19067TIP3    H178692   1.122   6.426   1.762  1.6858 -1.2866  0.1198
19067TIP3    H278693   1.137   6.338   1.884  0.1400  0.8175  1.8497
19068TIP3   OH278694   2.168   4.303   0.854  0.6371 -0.6852 -0.2593
19068TIP3    H178695   2.112   4.256   0.793 -0.8733 -1.7045  1.8476
19068TIP3    H278696   2.118   4.383   0.875  0.8268 -0.6780  0.1644
19069TIP3   OH278697   5.736   1.182  12.635 -0.5109 -0.0754  0.1584
19069TIP3    H178698   5.829   1.191  12.614 -0.1969 -0.3873  1.3669
19069TIP3    H278699   5.703   1.272  12.633  0.8555  0.6644  4.2080
19070TIP3   OH278700   3.462   0.910  12.494 -0.7882 -0.4851  0.2620
19070TIP3    H178701   3.445   0.933  12.585  0.8173  0.4931  0.3315
19070TIP3    H278702   3.485   0.992  12.452  1.3339 -1.3739 -0.3620
19071TIP3   OH278703   2.481   2.907   6.417 -0.3137 -0.4093 -0.1839
19071TIP3    H178704   2.436   2.949   6.491 -0.9684 -1.4270  0.0256
19071TIP3    H278705   2.542   2.846   6.459  0.4858  0.1923 -0.4799
19072TIP3   OH278706   1.073   4.224  17.061  0.5614  1.0476  0.4956
19072TIP3    H178707   1.033   4.280  16.995 -1.9878 -0.9783  0.2135
19072TIP3    H278708   1.043   4.259  17.144 -0.0813  0.8106  0.3673
19073TIP3   OH278709   3.872   4.838  12.455  0.2618 -0.3141 -0.3582
19073TIP3    H178710   3.867   4.930  12.429  0.0736 -0.2472 -0.0951
19073TIP3    H278711   3.956   4.807  12.421  1.0976  0.4044  0.9963
19074TIP3   OH278712   5.795   5.861  16.943  0.1190  0.3572 -0.7065
19074TIP3    H178713   5.799   5.936  17.003  0.6298  0.3457 -0.7318
19074TIP3    H278714   5.768   5.788  16.999 -2.1280  0.9089 -1.0061
19075TIP3   OH278715   3.462   6.493   5.861  0.2556 -0.3069  0.0339
19075TIP3    H178716   3.383   6.496   5.914 -1.1187  3.1043 -2.0588
19075TIP3    H278717   3.527   6.542   5.911 -0.8636  2.3728 -1.0251
19076TIP3   OH278718   3.739   2.225   0.216 -0.2415  0.2125  0.2129
19076TIP3    H178719   3.745   2.130   0.207 -0.7843  0.2449 -0.5776
19076TIP3    H278720   3.648   2.241   0.242 -0.9585  0.6938 -2.4495
19077TIP3   OH278721   3.222   1.310   1.503 -0.3575 -0.4898 -0.2144
19077TIP3    H178722   3.214   1.290   1.596 -1.1134  0.6093 -0.0299
19077TIP3    H278723   3.301   1.364   1.498 -1.2431  0.8605  0.0441
19078TIP3   OH278724   4.346   5.722   6.422 -0.0907 -0.4177 -0.4966
19078TIP3    H178725   4.400   5.711   6.500  0.0179  1.6539 -0.2589
19078TIP3    H278726   4.373   5.651   6.364  1.2107 -0.8149  0.5709
19079TIP3   OH278727   6.410   0.856   3.534 -0.1313  0.5500 -0.4182
19079TIP3    H178728   6.453   0.882   3.453  1.3542  1.7441  0.7327
19079TIP3    H278729   6.480   0.855   3.599 -1.6342  1.3188  1.2311
19080TIP3   OH278730   5.450   5.851  16.386 -0.1678 -0.0034 -0.5505
19080TIP3    H178731   5.381   5.916  16.373 -0.2799 -0.4871 -2.4124
19080TIP3    H278732   5.403   5.769  16.403 -0.0777 -0.4284 -2.2761
19081TIP3   OH278733   4.627   3.699   0.130 -0.2236  1.1718 -0.1240
19081TIP3    H178734   4.592   3.765   0.190  1.0335  1.5180  0.2330
19081TIP3    H278735   4.639   3.621   0.185 -0.6871  0.9711 -0.3068
19082TIP3   OH278736   2.508   2.241  15.266  0.2953 -0.3168 -0.6221
19082TIP3    H178737   2.483   2.180  15.197  2.2279 -1.1823 -0.6086
19082TIP3    H278738   2.491   2.193  15.348 -0.1146 -0.0557 -0.5546
19083TIP3   OH278739   4.827   3.193   1.805  0.1677 -0.2533  0.4383
19083TIP3    H178740   4.845   3.160   1.893 -1.0589 -3.2720 -0.3755
19083TIP3    H278741   4.733   3.211   1.805  0.5020  1.6062  0.3027
19084TIP3   OH278742   1.122   3.838   1.624 -0.0494 -0.1721  0.2860
19084TIP3    H178743   1.172   3.769   1.668 -0.8215 -0.8235  0.1493
19084TIP3    H278744   1.188   3.904   1.602  0.5182 -0.3510  1.4138
19085TIP3   OH278745   4.204   2.330  14.364 -0.2011 -0.0194  0.5162
19085TIP3    H178746   4.190   2.384  14.442  0.2433 -0.2874  0.7839
19085TIP3    H278747   4.154   2.250  14.380  1.1634 -0.7522  1.2390
19086TIP3   OH278748   3.244   4.753   5.067  0.4021  0.2581 -0.6399
19086TIP3    H178749   3.276   4.807   5.140  1.6421 -0.0398 -0.9547
19086TIP3    H278750   3.321   4.737   5.014 -0.2516 -0.6278 -1.3279
19087TIP3   OH278751   0.200   2.004  16.065  0.1355 -0.5808 -0.1154
19087TIP3    H178752   0.247   1.943  16.121  1.0065 -1.4559 -1.7729
19087TIP3    H278753   0.256   2.015  15.988 -1.3314  0.0891 -1.1199
19088TIP3   OH278754   0.589   4.672  11.300  0.7192 -0.4891 -0.1344
19088TIP3    H178755   0.542   4.756  11.304  0.3223 -0.7701  1.4351
19088TIP3    H278756   0.563   4.634  11.216  1.7180  1.4170 -1.3619
19089TIP3   OH278757   1.915   3.073   2.944  0.3977 -0.0053 -0.0857
19089TIP3    H178758   1.859   3.051   3.018 -0.0254  2.2487  0.3182
19089TIP3    H278759   2.004   3.073   2.980  0.1243  1.8298  0.6428
19090TIP3   OH278760   4.584   1.266   5.872 -0.5037  0.2048  0.3877
19090TIP3    H178761   4.617   1.176   5.877  0.1868  0.5111  1.7530
19090TIP3    H278762   4.644   1.311   5.813 -0.7483 -0.1979 -0.1599
19091TIP3   OH278763   2.790   5.319   4.779  0.4233 -0.4754  0.2677
19091TIP3    H178764   2.868   5.366   4.750  0.7139 -0.0357  1.7150
19091TIP3    H278765   2.729   5.388   4.807 -0.5886 -0.8029 -1.0848
19092TIP3   OH278766   4.320   5.598  13.114  0.8845 -0.0244  0.0178
19092TIP3    H178767   4.229   5.601  13.082  1.2047  1.3056 -0.8191
19092TIP3    H278768   4.325   5.516  13.164 -0.9176  0.1327  0.5010
19093TIP3   OH278769   0.656   0.168  11.598  0.7547  0.0122  0.0797
19093TIP3    H178770   0.563   0.186  11.609  0.7872  0.5979 -0.5960
19093TIP3    H278771   0.678   0.204  11.512  1.6898  0.2149  0.3959
19094TIP3   OH278772   1.070   6.620   1.312 -0.0517 -0.0001 -0.5487
19094TIP3    H178773   1.023   6.624   1.396 -1.8638  0.3348 -1.5538
19094TIP3    H278774   1.016   6.562   1.258  1.5877 -0.9400 -1.1987
19095TIP3   OH278775   2.923   4.015   0.654  0.1252 -0.4762  0.0510
19095TIP3    H178776   3.005   4.001   0.702  1.0816  0.5785 -1.2356
19095TIP3    H278777   2.908   3.933   0.608  0.1673 -0.8589  0.7103
19096TIP3   OH278778   5.042   6.452  14.535  0.2230  0.7593  0.5864
19096TIP3    H178779   5.031   6.438  14.441 -1.9734  0.0740  0.9220
19096TIP3    H278780   5.137   6.460  14.547  0.5422  0.5783 -1.6389
19097TIP3   OH278781   0.075   2.383   0.195  0.0913 -0.3993 -0.0372
19097TIP3    H178782   0.134   2.398   0.269  2.6286 -2.8746 -1.4471
19097TIP3    H278783   0.105   2.444   0.128  0.2878 -0.8578 -0.3641
19098TIP3   OH278784   2.220   0.232   1.469  0.3522  0.5154 -0.1981
19098TIP3    H178785   2.244   0.169   1.537  1.3281 -1.0626 -1.9629
19098TIP3    H278786   2.293   0.294   1.468  1.0406 -0.2881 -0.7767
19099TIP3   OH278787   0.003   3.291  15.295 -0.4166 -0.3165 -0.6620
19099TIP3    H178788  -0.071   3.316  15.240 -1.2462 -0.9393  0.1588
19099TIP3    H278789   0.038   3.212  15.254 -0.7577 -0.5247 -0.5524
19100TIP3   OH278790   3.255   0.186   7.029 -0.1227 -0.7774  0.2861
19100TIP3    H178791   3.262   0.263   6.973 -3.3878  0.4792  1.4984
19100TIP3    H278792   3.311   0.121   6.987  1.1189  1.6063 -1.8636
19101TIP3   OH278793   3.183   6.416   1.661  0.7767  0.5812  0.5222
19101TIP3    H178794   3.216   6.485   1.604 -2.2393  1.7384  0.1164
19101TIP3    H278795   3.171   6.341   1.603  0.8303  0.7449  0.2990
19102TIP3   OH278796   1.706   4.337   0.357 -0.1215 -0.2200 -0.3626
19102TIP3    H178797   1.681   4.388   0.433 -1.0996 -0.1589 -0.7230
19102TIP3    H278798   1.671   4.387   0.282  0.7439 -0.3224 -0.8493
19103TIP3   OH278799   1.968   4.069   5.119 -0.3775  0.2514  0.0438
19103TIP3    H178800   1.996   4.142   5.175 -1.5190  0.4924  0.3205
19103TIP3    H278801   1.979   4.102   5.030 -0.9830  0.8071  0.1678
19104TIP3   OH278802   4.167   1.083   4.175 -0.0544 -0.2881  0.4218
19104TIP3    H178803   4.133   1.009   4.125  0.2957 -0.1821  0.0234
19104TIP3    H278804   4.229   1.045   4.237 -1.1871 -0.5340  1.4328
19105TIP3   OH278805   1.201   4.698  15.878  0.0902  0.1665 -0.2532
19105TIP3    H178806   1.113   4.659  15.875  0.0824  0.2061 -0.5192
19105TIP3    H278807   1.206   4.751  15.799  0.1510  0.5984  0.0399
19106TIP3   OH278808   4.701   3.714  16.773 -0.1325 -0.0942 -0.3329
19106TIP3    H178809   4.714   3.631  16.818 -1.7910  0.3917  1.0986
19106TIP3    H278810   4.710   3.780  16.842  0.1533  0.8524 -1.2565
19107TIP3   OH278811   0.583   6.499   4.513  0.5903  0.4253  0.1130
19107TIP3    H178812   0.558   6.411   4.541 -0.0028  1.2277  2.1701
19107TIP3    H278813   0.674   6.509   4.542  0.3322  0.8453  0.8014
19108TIP3   OH278814   1.555   3.954  14.225  0.4641 -0.2833 -0.2532
19108TIP3    H178815   1.546   3.942  14.320  2.1464 -0.1093 -0.0563
19108TIP3    H278816   1.465   3.956  14.193 -0.1566  0.6335  1.4614
19109TIP3   OH278817   6.546   4.551   2.029  0.4090  0.0053 -0.1432
19109TIP3    H178818   6.621   4.584   1.979 -0.6699  0.5540 -1.4153
19109TIP3    H278819   6.504   4.488   1.970 -0.8116  0.5819  0.0952
19110TIP3   OH278820   5.612   4.874   1.176  0.2134 -0.1373  0.2770
19110TIP3    H178821   5.572   4.810   1.235 -0.4906 -0.0177 -0.0621
19110TIP3    H278822   5.694   4.834   1.149 -0.2273 -0.9020  0.0665
19111TIP3   OH278823   0.284   2.180  10.728  0.0914 -0.7476  0.1631
19111TIP3    H178824   0.279   2.110  10.663  0.9833 -1.0112  0.3703
19111TIP3    H278825   0.377   2.190  10.744  0.0237  1.0530 -0.4626
19112TIP3   OH278826   3.116   1.121   0.644 -0.1790 -0.0125 -0.0559
19112TIP3    H178827   3.184   1.147   0.707 -0.1688 -0.0973 -0.0316
19112TIP3    H278828   3.099   1.029   0.664  1.2472 -0.6051 -1.4798
19113TIP3   OH278829   0.910   1.669  13.342  0.7456  0.3747  0.4243
19113TIP3    H178830   0.909   1.757  13.306 -0.5151 -0.5532 -1.8808
19113TIP3    H278831   0.832   1.665  13.397  0.3365  0.4258 -0.1492
19114TIP3   OH278832   5.354   2.315   4.541 -0.3597  0.7705  0.1290
19114TIP3    H178833   5.382   2.404   4.519  0.6456  0.7420  1.2336
19114TIP3    H278834   5.404   2.293   4.619  0.2729 -1.2361 -0.8150
19115TIP3   OH278835   6.339   1.086   3.683  0.0162 -0.1761 -0.2869
19115TIP3    H178836   6.369   1.086   3.774 -0.2800  2.1048 -0.1732
19115TIP3    H278837   6.405   1.034   3.636  0.5394 -0.7909  1.1075
19116TIP3   OH278838   2.847   4.405  14.268  0.0038 -0.1320 -0.1909
19116TIP3    H178839   2.889   4.438  14.348 -0.7417 -1.6519  0.8670
19116TIP3    H278840   2.772   4.462  14.255 -0.1193 -0.1468  0.4406
19117TIP3   OH278841   3.064   2.807   2.972 -0.4624  0.2119  0.4622
19117TIP3    H178842   2.982   2.810   2.924 -0.4005 -0.7916  0.2901
19117TIP3    H278843   3.132   2.821   2.905 -0.4725  0.8002  0.5681
19118TIP3   OH278844   5.005   0.551  14.643  0.3464  0.4560 -0.2273
19118TIP3    H178845   5.092   0.525  14.673  0.0826  0.2565  0.3686
19118TIP3    H278846   4.946   0.529  14.716 -0.4962 -1.2736 -1.3921
19119TIP3   OH278847   0.068   1.012  14.500  0.2000 -0.1549 -0.0279
19119TIP3    H178848   0.133   1.082  14.505 -1.0930  1.1281 -0.6980
19119TIP3    H278849   0.024   1.013  14.585  0.4643 -0.4363  0.1130
19120TIP3   OH278850   4.862   1.630   3.719 -0.6467  0.0682 -0.1428
19120TIP3    H178851   4.901   1.704   3.672 -1.4715  0.0384 -0.8794
19120TIP3    H278852   4.937   1.577   3.746 -0.1164  0.5603 -0.6318
19121TIP3   OH278853   4.175   6.146  13.165 -0.4649 -0.1059 -0.5269
19121TIP3    H178854   4.258   6.192  13.149  0.3181 -1.3743 -0.1697
19121TIP3    H278855   4.182   6.066  13.112 -1.1881 -0.5290  0.0225
19122TIP3   OH278856   1.475   4.021   0.548  0.0942  0.7383  0.3662
19122TIP3    H178857   1.493   3.988   0.460  2.8774 -0.6604  1.3803
19122TIP3    H278858   1.415   4.094   0.535  0.3040  0.4150 -2.6742
19123TIP3   OH278859   4.609   2.550  11.203  0.3377 -0.1997 -0.2950
19123TIP3    H178860   4.591   2.587  11.289  0.9869 -0.2328 -0.1390
19123TIP3    H278861   4.660   2.471  11.222 -1.0985 -1.2161 -0.6183
19124TIP3   OH278862   3.073   1.579  13.905 -0.2676 -0.0170  0.2732
19124TIP3    H178863   3.073   1.559  13.998 -0.9824 -0.2453  0.2319
19124TIP3    H278864   3.048   1.671  13.900 -0.4380 -0.0626  0.2949
19125TIP3   OH278865   5.931   2.702   2.894 -0.2051  0.8107 -0.3070
19125TIP3    H178866   5.844   2.665   2.909  0.4851 -0.2756  1.1987
19125TIP3    H278867   5.970   2.706   2.981  2.2319 -1.2250 -1.2220
19126TIP3   OH278868   2.161   2.582  11.142 -0.0647 -0.0296  0.5495
19126TIP3    H178869   2.126   2.647  11.202 -2.1139 -1.4291  0.9280
19126TIP3    H278870   2.116   2.598  11.059  0.5608  0.0101  0.2135
19127TIP3   OH278871   5.280   4.808   5.020  0.0997  0.7555  0.1870
19127TIP3    H178872   5.184   4.807   5.014 -0.0015  0.5624  1.6156
19127TIP3    H278873   5.308   4.739   4.960 -0.7436 -0.2799  0.9609
19128TIP3   OH278874   3.001   1.973  13.199  0.2552 -0.3993 -0.7244
19128TIP3    H178875   2.976   1.889  13.238  1.6331  0.2983  1.7514
19128TIP3    H278876   2.930   2.033  13.222 -0.9174 -0.9386 -2.8205
19129TIP3   OH278877   3.486   3.287   5.671 -0.4099 -0.5205  0.2768
19129TIP3    H178878   3.457   3.224   5.606 -2.1781  0.8949 -0.3399
19129TIP3    H278879   3.579   3.266   5.685  0.2223 -0.3505 -3.2807
19130TIP3   OH278880   3.977   2.758   1.426 -0.3424  0.9144 -0.1986
19130TIP3    H178881   3.905   2.813   1.395 -1.1873  0.4598  0.9223
19130TIP3    H278882   4.024   2.813   1.488 -1.2592  0.3472  1.0138
19131TIP3   OH278883   3.142   2.373  13.796 -0.7294  0.1489 -0.4114
19131TIP3    H178884   3.154   2.308  13.866 -1.7526 -0.4963 -0.8295
19131TIP3    H278885   3.050   2.399  13.803 -0.4364  1.2290 -0.5342
19132TIP3   OH278886   6.134   4.348   4.403  0.0291  0.4672 -0.7029
19132TIP3    H178887   6.158   4.397   4.481  0.9312 -0.4447 -0.4005
19132TIP3    H278888   6.107   4.262   4.437 -1.6422  0.7708 -1.2107
19133TIP3   OH278889   0.413   3.453  12.814  0.3729 -0.4526  0.1519
19133TIP3    H178890   0.339   3.477  12.759  0.6082  0.4694  0.2282
19133TIP3    H278891   0.381   3.381  12.868 -0.3442 -0.3186 -0.0910
19134TIP3   OH278892   1.345   6.706  17.251 -0.5605 -0.3035 -0.0207
19134TIP3    H178893   1.269   6.697  17.308 -0.1721  1.4583  0.8092
19134TIP3    H278894   1.404   6.636  17.278 -0.5083  0.3308  1.5434
19135TIP3   OH278895   3.408   0.737  13.308 -0.3371 -0.1089 -0.4961
19135TIP3    H178896   3.345   0.731  13.380 -2.0799 -0.0423 -1.9757
19135TIP3    H278897   3.464   0.811  13.331 -1.9117  0.9512  0.0146
19136TIP3   OH278898   5.663   5.259  12.484  0.0652  0.2974  0.1325
19136TIP3    H178899   5.599   5.257  12.555  0.4713  2.1656  0.5850
19136TIP3    H278900   5.731   5.198  12.510 -0.5604 -0.2209  0.5755
19137TIP3   OH278901   1.961   4.399   1.634 -0.4819 -0.6109 -0.1072
19137TIP3    H178902   1.966   4.467   1.567 -1.9268 -1.7461 -1.4059
19137TIP3    H278903   2.038   4.414   1.690 -0.7829  2.0532 -0.3746
19138TIP3   OH278904   2.417   5.968   6.030  1.4602 -0.3823  0.3208
19138TIP3    H178905   2.449   5.893   6.080  1.5343  0.1233  1.0312
19138TIP3    H278906   2.343   6.002   6.081  0.4995 -0.8515 -0.7394
19139TIP3   OH278907   0.077   0.366  15.231 -0.0192 -0.1572  0.0392
19139TIP3    H178908   0.038   0.415  15.304 -1.0894 -0.6204 -0.2075
19139TIP3    H278909   0.011   0.299  15.211 -0.6274  1.2039 -2.6761
19140TIP3   OH278910   5.675   5.417   4.577  0.0379  0.3033  0.3311
19140TIP3    H178911   5.720   5.467   4.644 -0.6671 -1.1329  1.9138
19140TIP3    H278912   5.701   5.326   4.593 -1.4972 -0.2526 -0.2408
19141TIP3   OH278913   1.202   3.775  16.837  0.0325 -0.1266  0.7848
19141TIP3    H178914   1.287   3.736  16.857 -0.9860 -3.3499 -0.8764
19141TIP3    H278915   1.139   3.722  16.886 -1.2374  0.5991 -0.0352
19142TIP3   OH278916   2.359   5.617  11.557 -0.1380  0.8793  0.0234
19142TIP3    H178917   2.316   5.695  11.592 -0.2580  0.8936 -0.1577
19142TIP3    H278918   2.416   5.587  11.628  1.0869  2.0332 -0.4326
19143TIP3   OH278919   2.840   1.419  16.608  0.3239  0.0573  0.7097
19143TIP3    H178920   2.868   1.470  16.532  1.0576  0.0285  0.9563
19143TIP3    H278921   2.754   1.454  16.631  0.1785  0.1828 -0.0262
19144TIP3   OH278922   5.492   6.642   3.135  0.0414  0.2764 -0.0771
19144TIP3    H178923   5.496   6.636   3.230 -0.6506  0.7098 -0.0196
19144TIP3    H278924   5.461   6.730   3.117  0.2671  0.2349 -0.7120
19145TIP3   OH278925   2.268   1.427   3.929  0.4077  0.4192 -0.1367
19145TIP3    H178926   2.245   1.476   3.850  0.7127  0.7365 -0.0291
19145TIP3    H278927   2.354   1.390   3.911 -0.5248 -1.4497 -0.8539
19146TIP3   OH278928   0.197   5.452  16.246  0.0094 -0.0403  0.0712
19146TIP3    H178929   0.197   5.467  16.152 -1.2380 -0.2203  0.0317
19146TIP3    H278930   0.179   5.538  16.284  0.0150 -0.0586  0.1138
19147TIP3   OH278931   0.457   3.664  17.148  0.2658  0.2234  0.2203
19147TIP3    H178932   0.379   3.611  17.133  0.2068  0.4240 -0.2073
19147TIP3    H278933   0.497   3.627  17.227  0.2366 -0.4739 -0.0833
19148TIP3   OH278934   0.215   4.493  11.436 -0.0721 -0.3527 -0.1043
19148TIP3    H178935   0.271   4.546  11.492  0.3446 -0.3847 -0.4830
19148TIP3    H278936   0.206   4.410  11.482 -1.8111  0.4846  1.1378
19149TIP3   OH278937   4.063   6.264  16.027 -0.3882  0.0405  0.2809
19149TIP3    H178938   4.071   6.235  15.936  1.6812  1.1382  0.0785
19149TIP3    H278939   3.975   6.302  16.032 -0.9078 -0.9535 -0.9796
19150TIP3   OH278940   3.851   3.013   1.530  0.0610  0.0647  0.5764
19150TIP3    H178941   3.768   2.967   1.517  1.6894 -2.9393  0.1782
19150TIP3    H278942   3.884   2.979   1.613  2.2598 -1.0621 -0.7097
19151TIP3   OH278943   2.916   2.319  11.283 -0.4706 -0.4439 -0.1950
19151TIP3    H178944   3.004   2.326  11.321 -1.2796  0.4390  1.5908
19151TIP3    H278945   2.908   2.396  11.226  0.1732 -0.9139 -0.9220
19152TIP3   OH278946   0.623   1.990   0.714 -0.0834 -0.2696 -0.9354
19152TIP3    H178947   0.607   1.911   0.662 -1.2568 -0.2617 -0.6031
19152TIP3    H278948   0.666   1.959   0.793 -0.2318 -0.5364 -0.9592
19153TIP3   OH278949   6.756   3.364  13.498 -0.4619 -0.2682  0.8099
19153TIP3    H178950   6.806   3.433  13.541 -0.8050 -1.7044  3.6168
19153TIP3    H278951   6.821   3.316  13.447  0.3068  0.3233  1.2159
19154TIP3   OH278952   0.039   1.020  17.239 -0.1787 -0.0402 -0.5166
19154TIP3    H178953   0.084   1.074  17.304  2.2005 -0.8752 -1.3927
19154TIP3    H278954   0.055   1.065  17.156 -0.3875 -0.7270 -0.9332
19155TIP3   OH278955   1.225   2.436  12.657  0.0283  0.5066 -0.7819
19155TIP3    H178956   1.272   2.515  12.684  0.3147  0.0552  0.0607
19155TIP3    H278957   1.189   2.400  12.739  0.4267 -0.5710 -1.0746
19156TIP3   OH278958   3.400   4.089   6.196 -0.0736 -0.5957 -0.2753
19156TIP3    H178959   3.488   4.073   6.164 -0.4555 -1.7956 -0.7266
19156TIP3    H278960   3.413   4.116   6.287  0.7476 -0.8791 -0.3032
19157TIP3   OH278961   4.234   3.787   4.450 -0.1870 -0.2960 -0.2605
19157TIP3    H178962   4.140   3.790   4.434 -0.2599 -1.0627 -0.0013
19157TIP3    H278963   4.253   3.695   4.466  0.8301 -0.3367 -1.6181
19158TIP3   OH278964   6.267   3.090   1.684  0.3160  0.2519 -0.0747
19158TIP3    H178965   6.317   3.022   1.638  1.6139  0.0674  1.5463
19158TIP3    H278966   6.183   3.049   1.703  0.9453 -0.7916  0.5488
19159TIP3   OH278967   1.778   3.618  15.263  0.2929 -0.3766  0.2652
19159TIP3    H178968   1.839   3.689  15.285  1.0224 -1.4467  1.8600
19159TIP3    H278969   1.827   3.538  15.284 -1.1797 -1.2894  0.2915
19160TIP3   OH278970   3.123   2.495   2.050  0.5206  0.0648 -0.8246
19160TIP3    H178971   3.042   2.539   2.023  1.3566  1.3876 -1.1981
19160TIP3    H278972   3.164   2.555   2.112  0.2848 -1.4588  0.8448
19161TIP3   OH278973   1.470   2.786   5.976 -0.4972 -0.2774  0.8601
19161TIP3    H178974   1.410   2.722   6.015  0.9670 -1.4923  1.1614
19161TIP3    H278975   1.418   2.866   5.968 -2.0374 -1.1994  1.4783
19162TIP3   OH278976   5.510   6.011  15.476 -0.5390  0.5327  0.4373
19162TIP3    H178977   5.581   6.048  15.423  0.4492 -0.6073  0.9432
19162TIP3    H278978   5.494   5.924  15.438 -0.1644 -0.0929  1.6801
19163TIP3   OH278979   0.964   0.690   3.974  0.1850  0.2072  0.0219
19163TIP3    H178980   1.016   0.637   4.035  1.1087 -0.6509 -1.4892
19163TIP3    H278981   0.905   0.627   3.933  1.7921  0.1890 -2.3226
19164TIP3   OH278982   4.178   2.661   1.237  0.6265  0.3698 -0.5216
19164TIP3    H178983   4.121   2.657   1.314  2.9024  0.5024  1.2088
19164TIP3    H278984   4.152   2.741   1.192 -1.5814 -0.3607 -0.5941
19165TIP3   OH278985   3.149   3.685  15.729  0.5761  0.8228  0.3428
19165TIP3    H178986   3.159   3.639  15.812  0.9629 -2.2992 -1.3748
19165TIP3    H278987   3.239   3.710  15.704  0.6069  0.5797  0.2100
19166TIP3   OH278988   1.468   0.787  16.797 -0.3484  0.2805 -0.4238
19166TIP3    H178989   1.504   0.863  16.842  0.7526 -0.0210 -0.7820
19166TIP3    H278990   1.373   0.802  16.797 -0.1538  1.5809 -0.3706
19167TIP3   OH278991   1.808   2.785   4.319  0.6786 -0.0278  0.4680
19167TIP3    H178992   1.785   2.786   4.412  0.0951  0.6560  0.3206
19167TIP3    H278993   1.901   2.805   4.317  0.9598 -1.2625  0.9830
19168TIP3   OH278994   5.490   3.444  16.534  0.0607 -0.1371  0.0732
19168TIP3    H178995   5.402   3.429  16.568 -0.1172 -0.5619 -0.5739
19168TIP3    H278996   5.542   3.465  16.612 -0.6317  0.2285  0.4444
19169TIP3   OH278997   4.899   2.887  12.886 -0.3241  0.0214 -0.0403
19169TIP3    H178998   4.842   2.924  12.954  2.2760  3.2185  0.5208
19169TIP3    H278999   4.975   2.853  12.933  0.2131 -0.3049 -1.1146
19170TIP3   OH279000   0.016   2.755  13.612  0.5558 -0.1747  0.4375
19170TIP3    H179001   0.033   2.782  13.702 -0.2550  0.4263  0.4063
19170TIP3    H279002   0.098   2.714  13.584  1.5919  1.6661  0.6891
19171TIP3   OH279003   3.781   0.547   4.393  0.2879 -0.4735  0.2614
19171TIP3    H179004   3.702   0.544   4.447  1.2476  0.3911  1.7584
19171TIP3    H279005   3.777   0.632   4.349  0.7449 -0.0965  0.9314
19172TIP3   OH279006   3.014   6.534   5.311  0.1335 -1.1361  0.2018
19172TIP3    H179007   3.036   6.594   5.382 -3.2365 -0.0750  0.4553
19172TIP3    H279008   3.028   6.447   5.348 -0.1612 -0.5765  1.6873
19173TIP3   OH279009   0.571   1.678   4.096 -0.4768  0.5729  0.4808
19173TIP3    H179010   0.490   1.699   4.142 -1.8199 -1.5570 -0.8504
19173TIP3    H279011   0.590   1.588   4.121 -1.1916 -0.6097 -2.9640
19174TIP3   OH279012   6.130   4.857  14.059  0.2420  0.6950  0.1811
19174TIP3    H179013   6.203   4.917  14.067  0.4646  0.2000  2.1798
19174TIP3    H279014   6.150   4.786  14.120  0.2573 -1.7266 -2.4844
19175TIP3   OH279015   3.128   3.193   1.407 -0.0700 -0.4573  0.1921
19175TIP3    H179016   3.171   3.122   1.454 -1.6880 -0.6726  1.3927
19175TIP3    H279017   3.034   3.174   1.415 -0.4891  1.3690 -0.1402
19176TIP3   OH279018   1.151   1.014   4.715  0.1202 -0.7385  0.4572
19176TIP3    H179019   1.237   1.046   4.689  0.8347 -1.3233  2.0449
19176TIP3    H279020   1.109   1.090   4.756 -0.0951 -0.4766 -0.2434
19177TIP3   OH279021   3.361   1.725  15.632  0.4123  0.2052  0.3014
19177TIP3    H179022   3.345   1.796  15.569  1.1203  0.3690  0.3005
19177TIP3    H279023   3.417   1.764  15.699  1.4724 -0.5663 -0.1226
19178TIP3   OH279024   4.631   3.965   5.249 -0.2856 -0.3272  0.8447
19178TIP3    H179025   4.689   3.982   5.176  0.0269 -0.8961  0.9544
19178TIP3    H279026   4.577   3.891   5.220 -2.0211  1.1678  0.1452
19179TIP3   OH279027   0.277   2.374   4.557  0.0988  0.5803 -0.0257
19179TIP3    H179028   0.324   2.339   4.633 -0.8791  0.4694  0.5305
19179TIP3    H279029   0.226   2.300   4.524  0.3150  0.6998 -0.6335
19180TIP3   OH279030   6.048   4.411  10.895  0.0438 -0.1602  0.2383
19180TIP3    H179031   5.986   4.340  10.877 -0.0882 -0.5413  2.1019
19180TIP3    H279032   6.077   4.440  10.809 -0.5887 -1.8837 -0.5708
19181TIP3   OH279033   5.107   2.206   0.307  0.4167 -0.2737  0.3193
19181TIP3    H179034   5.190   2.159   0.299 -0.2425 -1.3983 -0.1405
19181TIP3    H279035   5.049   2.162   0.243 -1.2386 -1.0945  2.3311
19182TIP3   OH279036   3.183   5.410  13.483  0.2665 -0.3788  0.2378
19182TIP3    H179037   3.167   5.481  13.421  1.0102 -1.0431 -0.7404
19182TIP3    H279038   3.220   5.454  13.560 -0.2166  0.4064  0.0290
19183TIP3   OH279039   0.409   2.534   5.861 -0.0262 -0.4986  0.0686
19183TIP3    H179040   0.408   2.545   5.766  0.7385  1.0155  0.2188
19183TIP3    H279041   0.329   2.485   5.881 -0.3242 -0.5919 -1.3201
19184TIP3   OH279042   6.355   2.663  15.175 -0.6080  0.0575  0.1245
19184TIP3    H179043   6.260   2.654  15.179 -0.7399 -0.1369 -2.7863
19184TIP3    H279044   6.382   2.662  15.267 -3.4110  0.2668  1.0214
19185TIP3   OH279045   2.252   3.156   0.561 -0.1306  0.1650 -0.2224
19185TIP3    H179046   2.253   3.061   0.569 -2.9253 -0.0264 -1.4209
19185TIP3    H279047   2.325   3.176   0.503  0.3146 -1.2879 -0.1811
19186TIP3   OH279048   6.143   1.794  14.441  0.4729 -0.3774 -0.3719
19186TIP3    H179049   6.187   1.777  14.524  0.7621  2.1655  0.0313
19186TIP3    H279050   6.209   1.775  14.374  0.9687 -0.1868  0.0645
19187TIP3   OH279051   2.324   3.916   0.555 -0.1074 -0.2263 -0.1971
19187TIP3    H179052   2.366   4.002   0.541  0.3413 -0.5850 -1.1134
19187TIP3    H279053   2.247   3.936   0.608  1.3883  0.4080  1.7853
19188TIP3   OH279054   3.347   3.508   3.406  0.1584 -0.1432 -0.2593
19188TIP3    H179055   3.376   3.574   3.469 -0.5254  0.1105 -0.2052
19188TIP3    H279056   3.412   3.511   3.336 -0.4365  1.3443 -0.7739
19189TIP3   OH279057   0.793   0.466   1.510 -0.1968 -0.1398  0.0347
19189TIP3    H179058   0.810   0.500   1.598  0.4943 -1.2978  0.3540
19189TIP3    H279059   0.827   0.534   1.451  1.5713 -0.4556  0.6635
19190TIP3   OH279060   3.704   2.200   5.727  0.0959  0.3210 -0.0545
19190TIP3    H179061   3.699   2.158   5.813 -0.8735 -1.5026 -0.9944
19190TIP3    H279062   3.772   2.153   5.680 -0.3363  0.4051 -0.7827
19191TIP3   OH279063   2.421   6.221   0.926  0.0974  0.0548 -0.2719
19191TIP3    H179064   2.389   6.283   0.991  0.1722  0.5542 -0.7101
19191TIP3    H279065   2.380   6.138   0.950 -0.8601  0.5028 -0.3167
19192TIP3   OH279066   5.963   2.226   0.652 -0.2820 -0.0031  0.2925
19192TIP3    H179067   6.041   2.175   0.675  0.4518 -0.4605 -2.9459
19192TIP3    H279068   5.890   2.177   0.691  0.9374 -0.1002  2.5068
19193TIP3   OH279069   1.417   4.539   5.506 -0.8084 -0.1020  0.0945
19193TIP3    H179070   1.322   4.545   5.509 -0.8419 -0.6936  0.2816
19193TIP3    H279071   1.436   4.482   5.431 -0.5807  0.4565 -0.2766
19194TIP3   OH279072   1.390   3.544   1.689  0.1195  0.5494 -0.2043
19194TIP3    H179073   1.324   3.607   1.718 -0.7561 -0.2964 -0.2994
19194TIP3    H279074   1.414   3.572   1.601  0.7390  1.5264  0.2761
19195TIP3   OH279075   0.093   1.474  13.651  0.4012  0.2650 -0.2608
19195TIP3    H179076   0.074   1.483  13.744  0.8277  0.3789 -0.1843
19195TIP3    H279077   0.160   1.539  13.633  1.9377 -1.2465 -0.1574
19196TIP3   OH279078   2.414   2.467  14.214  0.3542 -0.1403  0.2117
19196TIP3    H179079   2.399   2.559  14.238  0.2809 -0.3241  0.8602
19196TIP3    H279080   2.350   2.451  14.144 -0.7970 -0.1839  1.2523
19197TIP3   OH279081   4.797   3.168  12.658 -0.3621  0.0697 -0.6791
19197TIP3    H179082   4.808   3.181  12.752 -0.8311  3.0290 -1.0034
19197TIP3    H279083   4.879   3.127  12.629  0.1959  0.1148  0.8233
19198TIP3   OH279084   4.816   3.207  12.932 -0.3447  0.1836  0.4379
19198TIP3    H179085   4.905   3.176  12.943 -0.9785 -1.5722  0.7947
19198TIP3    H279086   4.762   3.145  12.980 -1.5750  2.6863  2.4419
19199TIP3   OH279087   1.565   1.395  12.731 -0.6509 -0.5705  0.1090
19199TIP3    H179088   1.573   1.339  12.653  0.8356  0.5965 -0.5943
19199TIP3    H279089   1.591   1.482  12.700 -1.0394  0.1110  1.6792
19200TIP3   OH279090   1.961   3.084   1.183  0.3271  0.1584 -0.4716
19200TIP3    H179091   2.012   3.131   1.117  0.1410  1.4349  0.2891
19200TIP3    H279092   1.991   2.993   1.176  0.1223  0.2098 -2.4964
19201TIP3   OH279093   5.553   1.810   1.652  0.6508 -0.6235  0.5285
19201TIP3    H179094   5.520   1.826   1.563  1.5730 -1.2716  0.0582
19201TIP3    H279095   5.525   1.886   1.702 -0.1148 -0.3741 -0.2549
19202TIP3   OH279096   1.457   0.943  12.813 -0.2638  0.5351  0.2562
19202TIP3    H179097   1.537   0.989  12.840  0.3682  1.2574 -2.7112
19202TIP3    H279098   1.477   0.908  12.727 -3.2167  0.8431 -0.6108
19203TIP3   OH279099   0.536   5.523   0.592 -0.0067 -0.2599 -0.3131
19203TIP3    H179100   0.627   5.518   0.622  0.2348  0.3174 -0.9448
19203TIP3    H279101   0.490   5.569   0.663  0.1939 -0.5371 -0.0010
19204TIP3   OH279102   5.887   6.143  15.714 -0.5324 -0.0834 -0.1476
19204TIP3    H179103   5.810   6.184  15.676 -0.0690  0.6750 -0.2742
19204TIP3    H279104   5.909   6.199  15.789  0.2303  0.0344 -0.4543
19205TIP3   OH279105   3.058   5.955   2.454 -0.5855 -0.2798 -0.0753
19205TIP3    H179106   3.021   6.001   2.378 -1.0078 -1.2487 -0.4717
19205TIP3    H279107   3.034   6.010   2.529 -1.4655 -0.0718 -0.4918
19206TIP3   OH279108   1.353   6.724  15.713 -0.3029 -0.1224  0.3191
19206TIP3    H179109   1.407   6.804  15.715 -1.1755  0.4987 -0.9189
19206TIP3    H279110   1.275   6.747  15.764  0.1286 -0.6978  1.2580
19207TIP3   OH279111   4.389   5.126   3.952 -0.0525  0.0088  0.6873
19207TIP3    H179112   4.442   5.127   4.032 -2.8850  1.3059  2.6129
19207TIP3    H279113   4.395   5.215   3.918 -1.6202  0.3883  1.3678
19208TIP3   OH279114   3.404   3.554   6.685 -0.4195 -0.0699 -0.7972
19208TIP3    H179115   3.407   3.562   6.590 -0.3556 -0.3081 -0.8159
19208TIP3    H279116   3.353   3.474   6.701  1.5458 -1.3372 -0.6797
19209TIP3   OH279117   1.964   5.186   3.933 -0.2795 -0.4917  0.2950
19209TIP3    H179118   1.874   5.199   3.905 -0.3458 -0.1151  0.6894
19209TIP3    H279119   2.010   5.263   3.901  0.0219 -0.9499 -0.4021
19210TIP3   OH279120   1.303   0.747   3.482 -0.5203 -0.0152  0.0679
19210TIP3    H179121   1.331   0.771   3.393  0.7135 -1.5893  0.0124
19210TIP3    H279122   1.384   0.734   3.530 -1.1815 -0.2428  1.1409
19211TIP3   OH279123   4.631   1.131   3.270  0.6194  0.0153 -0.2081
19211TIP3    H179124   4.546   1.141   3.313 -0.0649 -0.5412 -1.4001
19211TIP3    H279125   4.689   1.098   3.338 -0.3101 -0.3022  0.4386
19212TIP3   OH279126   2.081   2.141  13.791 -0.4786  0.4050 -0.4005
19212TIP3    H179127   1.987   2.137  13.774 -0.1956 -2.2697 -1.6300
19212TIP3    H279128   2.089   2.183  13.876 -2.8197 -0.1093  0.0957
19213TIP3   OH279129   2.567   5.247  14.375  0.6670  0.1418 -0.3516
19213TIP3    H179130   2.511   5.264  14.451  1.7225  0.0154  0.4646
19213TIP3    H279131   2.529   5.169  14.334 -0.3877  0.6851 -0.4215
19214TIP3   OH279132   3.496   3.201  16.964  0.2566 -0.2581  0.3953
19214TIP3    H179133   3.528   3.175  17.050  0.3189  2.1595  1.1441
19214TIP3    H279134   3.527   3.291  16.953 -1.7316  0.2759 -1.1504
19215TIP3   OH279135   1.622   0.425   1.054 -0.1200 -0.1335 -0.2216
19215TIP3    H179136   1.714   0.446   1.037 -0.4175  1.4205 -0.0472
19215TIP3    H279137   1.575   0.456   0.976 -0.6297  0.2504  0.2253
19216TIP3   OH279138   4.015   2.298   2.629 -0.2117  0.4555 -0.8520
19216TIP3    H179139   3.978   2.255   2.551 -1.3843  0.6185 -0.3899
19216TIP3    H279140   4.004   2.391   2.612 -0.1912  0.4976 -0.6277
19217TIP3   OH279141   3.379   5.242  14.714 -0.0385  0.0498 -0.2532
19217TIP3    H179142   3.442   5.198  14.772 -1.6137 -1.1678  0.5665
19217TIP3    H279143   3.423   5.324  14.690  0.7680  0.4728  2.4601
19218TIP3   OH279144   0.041   1.641   1.323 -0.0123  0.5043  0.2900
19218TIP3    H179145  -0.001   1.698   1.258 -0.3364 -0.3379 -0.2543
19218TIP3    H279146   0.095   1.699   1.376 -1.6098  1.5721  0.7800
19219TIP3   OH279147   4.813   4.703  11.905  0.2192 -0.6050 -0.1993
19219TIP3    H179148   4.866   4.641  11.855  0.8700 -0.6662  0.5569
19219TIP3    H279149   4.827   4.679  11.996 -1.5098 -0.9235 -0.0000
19220TIP3   OH279150   2.696   6.734  17.224  0.5753 -0.8924  0.1304
19220TIP3    H179151   2.777   6.724  17.175  1.2424 -1.1488  1.2697
19220TIP3    H279152   2.690   6.828  17.241  0.1622 -0.7545 -0.7180
19221TIP3   OH279153   2.864   3.202   1.718  0.2183 -1.1308  0.0542
19221TIP3    H179154   2.934   3.257   1.753  1.0983 -3.0117  1.2793
19221TIP3    H279155   2.902   3.115   1.711 -1.4419 -1.7955 -1.0467
19222TIP3   OH279156   3.822   4.619   1.366  0.6039  0.4228 -0.6202
19222TIP3    H179157   3.887   4.625   1.437 -0.4375 -2.7950  0.6788
19222TIP3    H279158   3.758   4.687   1.387  0.9819  0.3567  0.8333
19223TIP3   OH279159   3.111   4.018   4.062  0.8712  0.1237  0.2093
19223TIP3    H179160   3.175   3.966   4.015  0.7051  0.7879 -0.7765
19223TIP3    H279161   3.138   4.013   4.154  1.6369 -0.5664 -0.0488
19224TIP3   OH279162   2.888   5.084  11.360  0.6018 -0.1335  0.3241
19224TIP3    H179163   2.829   5.077  11.286  0.1957  0.6734  0.5680
19224TIP3    H279164   2.953   5.015  11.346  0.2427 -0.2985 -0.5200
19225TIP3   OH279165   6.534   3.054   4.971  0.4470  0.6064 -0.6212
19225TIP3    H179166   6.458   3.039   4.915  0.4667  0.1627 -0.5325
19225TIP3    H279167   6.500   3.103   5.046  0.1201 -0.1632 -0.2610
19226TIP3   OH279168   2.789   1.233  16.406  0.0275  0.0877 -0.0638
19226TIP3    H179169   2.795   1.260  16.497 -0.4567 -0.8355  0.2470
19226TIP3    H279170   2.872   1.260  16.367  0.6986 -0.5574  0.9291
19227TIP3   OH279171   2.770   6.327  12.238  0.4310  0.2659  0.3568
19227TIP3    H179172   2.694   6.337  12.181  0.9358 -1.0525 -0.5714
19227TIP3    H279173   2.740   6.357  12.323 -1.5877 -1.6427  0.3567
19228TIP3   OH279174   5.443   2.671   0.120  0.4425 -0.3684 -0.1937
19228TIP3    H179175   5.459   2.614   0.045 -0.1446 -1.0982  0.2374
19228TIP3    H279176   5.377   2.626   0.171  0.2097  0.5444  0.3229
19229TIP3   OH279177   0.309   5.908   4.162 -0.0856 -0.0984  0.5833
19229TIP3    H179178   0.378   5.846   4.138 -0.8066 -0.1201 -1.5563
19229TIP3    H279179   0.304   5.902   4.257  2.1704 -0.8287  0.6939
19230TIP3   OH279180   6.807   0.069  15.186  0.3678 -0.1125 -0.0569
19230TIP3    H179181   6.898   0.044  15.170 -0.0435 -0.5911 -1.8134
19230TIP3    H279182   6.756   0.014  15.126 -1.0291  0.5974  0.4504
19231TIP3   OH279183   0.024   6.617  11.666  0.5058 -0.5457  0.0020
19231TIP3    H179184  -0.056   6.573  11.695  1.4763 -0.6907  2.5667
19231TIP3    H279185   0.028   6.697  11.720  1.4767  0.0493 -0.9336
19232TIP3   OH279186   6.505   4.043  17.288 -0.0218  0.0050  0.1791
19232TIP3    H179187   6.562   4.106  17.244  0.2422  0.1388  0.7159
19232TIP3    H279188   6.473   4.090  17.365 -0.4312 -0.2560  0.1650
19233TIP3   OH279189   5.279   2.765  12.732 -0.0258  0.0887 -0.4161
19233TIP3    H179190   5.233   2.803  12.657 -0.2700 -0.4662 -0.5534
19233TIP3    H279191   5.335   2.697  12.694  1.4054  1.1890 -0.3253
19234TIP3   OH279192   6.093   5.008  11.552  0.0561 -0.1274  0.1039
19234TIP3    H179193   6.132   4.971  11.473  0.5295  0.9826 -0.1947
19234TIP3    H279194   6.168   5.028  11.608 -0.3237 -1.7647  1.2285
19235TIP3   OH279195   1.059   0.448  11.805  0.4142 -0.2243  0.1493
19235TIP3    H179196   1.104   0.533  11.805  0.1891 -0.1049  0.1096
19235TIP3    H279197   1.044   0.429  11.712 -0.7348  0.3285  0.2146
19236TIP3   OH279198   3.907   4.290  16.504 -0.2713 -0.2020 -0.1931
19236TIP3    H179199   3.917   4.341  16.423  1.2892  0.4116  0.3614
19236TIP3    H279200   3.848   4.342  16.558 -1.1450 -0.5053 -0.8393
19237TIP3   OH279201   0.955   2.212  11.332  0.6963  0.1167  0.2368
19237TIP3    H179202   0.918   2.281  11.386 -2.9015 -1.9965  0.6176
19237TIP3    H279203   0.919   2.227  11.245 -0.3031 -1.3432  0.3696
19238TIP3   OH279204   0.016   2.206  12.199 -0.0598  0.4182  0.3128
19238TIP3    H179205   0.102   2.247  12.209  0.1294  0.1470 -0.1613
19238TIP3    H279206   0.035   2.123  12.153 -0.6244  0.5615 -0.1823
19239TIP3   OH279207   1.557   4.995  12.439  0.4179  0.0867  0.2586
19239TIP3    H179208   1.526   5.084  12.422  1.1101  0.1350 -0.7953
19239TIP3    H279209   1.607   4.971  12.361 -1.6703 -2.1036 -0.4694
19240TIP3   OH279210   5.271   1.746  17.232  0.1747 -0.5015 -0.2391
19240TIP3    H179211   5.273   1.761  17.326  2.1441 -0.0724 -0.3280
19240TIP3    H279212   5.185   1.779  17.204  0.1429  0.6686  1.1955
19241TIP3   OH279213   6.649   5.523  14.720  0.2174  0.2414  0.1415
19241TIP3    H179214   6.685   5.555  14.637  0.8373  1.9823  1.0650
19241TIP3    H279215   6.659   5.596  14.780 -0.6103 -0.8730  1.6540
19242TIP3   OH279216   5.809   3.851  16.602 -0.0630  0.0292 -0.1749
19242TIP3    H179217   5.736   3.913  16.597  0.7293  0.7400 -3.6738
19242TIP3    H279218   5.806   3.802  16.520  1.0671 -2.6673  1.3130
19243TIP3   OH279219   5.342   1.616  14.387  0.0253  0.2647  0.1678
19243TIP3    H179220   5.402   1.689  14.400 -0.7519  1.0194 -0.4224
19243TIP3    H279221   5.358   1.558  14.461  0.2766  1.2897  0.9213
19244TIP3   OH279222   3.140   4.512   0.147 -0.1393 -0.0918  0.5593
19244TIP3    H179223   3.052   4.486   0.173 -0.6375  0.0950 -0.9183
19244TIP3    H279224   3.181   4.432   0.115  0.3800 -0.2637  1.6289
19245TIP3   OH279225   0.473   3.971   2.562  0.2586  0.3757 -0.1791
19245TIP3    H179226   0.458   3.880   2.536 -0.0218  0.6192 -0.8952
19245TIP3    H279227   0.506   3.966   2.652 -1.7356 -0.3043  0.5383
19246TIP3   OH279228   4.576   1.123  12.081  0.5559 -0.3243 -0.4267
19246TIP3    H179229   4.532   1.134  11.996  0.7788  0.7651 -0.4053
19246TIP3    H279230   4.662   1.163  12.069  0.3879  0.3177  0.4801
19247TIP3   OH279231   6.548   0.060   1.130 -0.0375  0.3863  0.0240
19247TIP3    H179232   6.476   0.101   1.179 -0.8821 -0.7449 -0.2506
19247TIP3    H279233   6.557  -0.027   1.169  1.7066  0.7997  0.5670
19248TIP3   OH279234   2.465   5.007   2.112  0.3095 -0.2376 -0.0232
19248TIP3    H179235   2.383   5.031   2.156 -0.5759  0.5941 -2.0705
19248TIP3    H279236   2.487   4.921   2.147 -0.8861 -0.0187  1.3175
19249TIP3   OH279237   2.311   5.759  16.470  0.5071  0.4742  0.4115
19249TIP3    H179238   2.226   5.727  16.502 -0.4954 -0.0689 -2.5743
19249TIP3    H279239   2.310   5.852  16.489 -0.2636  0.2547  1.4857
19250TIP3   OH279240   1.621   1.985   5.032 -0.4175  0.1729 -0.3430
19250TIP3    H179241   1.652   2.001   4.943 -2.1587 -0.2342 -1.0514
19250TIP3    H279242   1.536   2.030   5.035 -1.0475 -1.0585  0.6315
19251TIP3   OH279243   4.799   3.047   3.422  0.3946 -1.0354  0.5184
19251TIP3    H179244   4.806   2.959   3.385 -0.6347 -0.0537 -2.1716
19251TIP3    H279245   4.778   3.103   3.347  1.6621  1.6099  2.0579
19252TIP3   OH279246   2.142   2.124  13.307 -0.7503  0.3046 -0.1145
19252TIP3    H179247   2.112   2.152  13.221 -0.4337 -2.2491 -1.0985
19252TIP3    H279248   2.222   2.175  13.323 -0.8042  0.7691 -1.3151
19253TIP3   OH279249   4.272   4.071   1.623 -0.7303 -0.4254 -0.2387
19253TIP3    H179250   4.232   4.153   1.595 -0.7230 -0.6674 -0.9582
19253TIP3    H279251   4.289   4.084   1.717 -1.3531  0.1366 -0.1973
19254TIP3   OH279252   6.704   6.467  14.289 -0.5510 -0.3026 -0.4220
19254TIP3    H179253   6.692   6.375  14.268 -1.2872 -0.4671  0.6867
19254TIP3    H279254   6.700   6.512  14.204  1.1205 -1.4050 -1.1027
19255TIP3   OH279255   6.166   2.958  14.478  0.3300 -0.6499 -0.0567
19255TIP3    H179256   6.233   2.916  14.531  0.6440 -2.1842 -1.5972
19255TIP3    H279257   6.211   3.032  14.437 -0.4602  1.8657  3.3830
19256TIP3   OH279258   2.946   3.310   2.032 -0.3033 -0.4485 -0.0097
19256TIP3    H179259   2.852   3.329   2.030  0.0476  1.4551  0.8988
19256TIP3    H279260   2.985   3.380   1.979  0.6381 -1.1065 -0.1943
19257TIP3   OH279261   1.594   0.988  13.210  0.0933 -0.2705 -0.3726
19257TIP3    H179262   1.644   0.978  13.291  0.1101 -2.0668 -0.5738
19257TIP3    H279263   1.507   1.016  13.239  0.3444 -0.0921  0.2114
19258TIP3   OH279264   2.737   2.256  12.830  0.1111 -0.2933 -0.7419
19258TIP3    H179265   2.672   2.309  12.876  3.1063  1.7686  1.3349
19258TIP3    H279266   2.732   2.170  12.871  0.7195  0.7078  1.5152
19259TIP3   OH279267   3.778   0.294  11.012 -0.1489  0.1083 -0.2486
19259TIP3    H179268   3.754   0.207  10.982 -1.5456 -0.2650  1.8522
19259TIP3    H279269   3.867   0.285  11.046  1.1003  0.3383 -3.3321
19260TIP3   OH279270   5.102   3.998  16.331  0.0362  0.5036  0.3681
19260TIP3    H179271   5.120   4.086  16.297  0.9675 -0.7201 -2.4686
19260TIP3    H279272   5.019   3.974  16.290  0.8964 -0.7844 -0.6660
19261TIP3   OH279273   1.885   2.300  12.398 -0.2885 -0.3660 -0.0074
19261TIP3    H179274   1.833   2.321  12.476  1.0761 -2.7614  1.6123
19261TIP3    H279275   1.850   2.216  12.368  0.1593 -0.1476 -1.1692
19262TIP3   OH279276   4.242   1.013   6.360  0.4318  0.1672  0.1976
19262TIP3    H179277   4.174   1.045   6.419 -0.2256  0.1249 -0.5404
19262TIP3    H279278   4.284   0.942   6.409  1.3074  1.5339  1.4866
19263TIP3   OH279279   5.948   2.684  12.162 -0.4348  0.0280  0.1115
19263TIP3    H179280   5.987   2.767  12.135  0.9771 -0.1341  1.5982
19263TIP3    H279281   5.886   2.708  12.230 -0.0998 -0.1145  0.4709
19264TIP3   OH279282   3.381   5.663  14.795 -0.4872  1.0093 -0.6129
19264TIP3    H179283   3.365   5.646  14.702 -2.2107 -1.4450  0.0663
19264TIP3    H279284   3.470   5.633  14.809 -0.1925  1.4488 -1.4765
19265TIP3   OH279285   3.395   4.742  12.747 -0.3342 -0.1290 -0.0233
19265TIP3    H179286   3.473   4.689  12.767 -0.1194  0.0133 -0.4791
19265TIP3    H279287   3.363   4.706  12.664  0.3699  1.0857 -0.8273
19266TIP3   OH279288   5.601   3.658  15.938 -0.5865 -0.4620  0.2785
19266TIP3    H179289   5.686   3.678  15.897  0.0839  1.3713  2.4783
19266TIP3    H279290   5.622   3.637  16.029 -2.6792  2.3629  1.4914
19267TIP3   OH279291   5.387   6.346  13.332 -0.7115  0.5802 -0.0043
19267TIP3    H179292   5.389   6.439  13.350  1.2617  0.8526 -1.4508
19267TIP3    H279293   5.314   6.312  13.384 -0.8413  2.7564  1.2530
19268TIP3   OH279294   5.879   1.263   6.123  0.0199  0.6277 -0.2113
19268TIP3    H179295   5.833   1.346   6.114  0.3902  1.1036  1.8628
19268TIP3    H279296   5.970   1.288   6.142  0.8052 -0.2883 -2.5678
19269TIP3   OH279297   4.992   0.152   3.089 -0.7742 -0.4491  0.0011
19269TIP3    H179298   4.946   0.087   3.142  0.0473 -0.2593  0.9603
19269TIP3    H279299   5.031   0.101   3.018  0.6295 -1.1781  1.2548
19270TIP3   OH279300   2.336   5.555  13.872 -0.1220  0.0925  0.3923
19270TIP3    H179301   2.348   5.520  13.960  0.6662 -1.6158 -0.3864
19270TIP3    H279302   2.294   5.484  13.823  0.3310  0.6830 -0.8725
19271TIP3   OH279303   6.729   3.822  11.666 -0.2734 -0.5460 -0.2042
19271TIP3    H179304   6.824   3.811  11.668 -0.0283  1.2001 -1.2095
19271TIP3    H279305   6.704   3.832  11.758  0.6993  0.4067 -0.0405
19272TIP3   OH279306   1.409   6.132  16.699  0.0734  0.3621  0.8430
19272TIP3    H179307   1.451   6.199  16.644  1.3969 -0.5985  0.6676
19272TIP3    H279308   1.324   6.170  16.721  0.1372  1.4148 -0.6117
19273TIP3   OH279309   3.771   6.091  12.807  0.0677 -0.1426  0.1249
19273TIP3    H179310   3.832   6.068  12.738 -0.7668 -1.2537 -0.2458
19273TIP3    H279311   3.811   6.057  12.887  0.7050  0.5493  0.1049
19274TIP3   OH279312   3.393   1.241  16.245 -0.2107  0.0481 -0.4522
19274TIP3    H179313   3.346   1.295  16.181  0.1404  0.0531 -0.7036
19274TIP3    H279314   3.345   1.158  16.246 -1.5423  0.7892  0.8762
19275TIP3   OH279315   0.150   1.103   3.066 -0.5075  0.0780  0.0596
19275TIP3    H179316   0.059   1.074   3.065 -1.3233  2.4935 -2.0128
19275TIP3    H279317   0.168   1.122   3.158 -1.2236 -2.8785  0.8611
19276TIP3   OH279318   6.281   1.663  11.952  0.1418 -0.3097  0.1934
19276TIP3    H179319   6.302   1.739  12.006  0.8612 -0.5811  0.2948
19276TIP3    H279320   6.237   1.700  11.875 -0.5464  0.1095  0.7759
19277TIP3   OH279321   1.206   2.314  12.278  0.1183 -0.1724  0.2059
19277TIP3    H179322   1.214   2.259  12.200  4.0981  2.1754 -1.1990
19277TIP3    H279323   1.274   2.282  12.337  1.1321  1.9102  0.2011
19278TIP3   OH279324   5.386   3.879   3.535 -0.2066  0.2674 -0.4495
19278TIP3    H179325   5.425   3.794   3.516  0.4343  0.9092 -2.1405
19278TIP3    H279326   5.324   3.894   3.464 -2.0490  0.1760  1.1188
19279TIP3   OH279327   3.191   1.552   3.897  0.3023  0.2978  0.0698
19279TIP3    H179328   3.132   1.534   3.824 -1.3653  0.3040  1.4019
19279TIP3    H279329   3.202   1.647   3.897  0.6425  0.2590 -0.4259
19280TIP3   OH279330   3.584   6.665  12.028 -0.4096 -0.0138 -0.0551
19280TIP3    H179331   3.570   6.586  11.977  0.7496 -0.0172 -0.3644
19280TIP3    H279332   3.496   6.700  12.042 -0.8324 -0.7291 -0.9010
19281TIP3   OH279333   3.313   0.557   1.056 -0.2734  0.3605  0.2747
19281TIP3    H179334   3.356   0.472   1.058 -0.8523  0.0836  1.4399
19281TIP3    H279335   3.229   0.540   1.013  0.2455  0.6528 -0.8697
19282TIP3   OH279336   5.624   6.382  14.235 -0.0872 -0.0288 -0.5110
19282TIP3    H179337   5.641   6.407  14.144  2.0736  1.9035  0.3555
19282TIP3    H279338   5.605   6.465  14.279  0.2744 -0.7679  1.0796
19283TIP3   OH279339   2.590   4.474   1.771  0.2288  0.5794 -0.1305
19283TIP3    H179340   2.666   4.417   1.784 -1.3047 -1.4213  0.2622
19283TIP3    H279341   2.573   4.470   1.677  0.0215  0.2980 -0.0777
19284TIP3   OH279342   2.194   6.145   1.386 -0.6396 -0.0126  0.5008
19284TIP3    H179343   2.233   6.183   1.308 -0.4896 -0.8962  0.1382
19284TIP3    H279344   2.206   6.051   1.376 -2.1023 -0.2425  0.7917
19285TIP3   OH279345   0.785   3.060   5.157 -0.4180 -0.0780  0.8209
19285TIP3    H179346   0.698   3.098   5.143 -0.3734 -0.2902 -0.0359
19285TIP3    H279347   0.826   3.119   5.221 -1.0952  0.1633  1.0386
19286TIP3   OH279348   0.124   6.124   3.960  0.3023  0.1837 -0.4500
19286TIP3    H179349   0.123   6.028   3.958 -0.5865  0.1869 -0.4534
19286TIP3    H279350   0.205   6.146   4.005 -0.1849 -0.5954  0.8374
19287TIP3   OH279351   5.539   2.960   1.104 -0.1637 -0.6158  0.5218
19287TIP3    H179352   5.477   2.923   1.168 -1.4299  2.3285  1.0842
19287TIP3    H279353   5.488   2.968   1.023  0.4892 -1.3550  0.0381
19288TIP3   OH279354   5.304   5.072  13.807 -0.7768 -0.3124  0.0583
19288TIP3    H179355   5.212   5.045  13.806 -1.1105  0.6309  2.2664
19288TIP3    H279356   5.351   4.998  13.844 -0.7306 -0.4996 -0.3645
19289TIP3   OH279357   3.484   3.659  16.500  0.1820  0.2072  0.9402
19289TIP3    H179358   3.519   3.593  16.440 -0.8287  1.4161 -1.0323
19289TIP3    H279359   3.430   3.609  16.562  2.1913 -1.1905  1.5805
19290TIP3   OH279360   2.049   1.654  13.738  0.0285  0.2692 -0.7827
19290TIP3    H179361   1.965   1.694  13.761  0.4844  0.6546  0.2561
19290TIP3    H279362   2.026   1.568  13.704 -0.7586  0.1592  0.0110
19291TIP3   OH279363   5.654   5.288  16.724 -0.3684  0.3713  0.3821
19291TIP3    H179364   5.722   5.227  16.696 -2.1717 -0.8378 -1.5288
19291TIP3    H279365   5.639   5.267  16.816  0.0943 -1.0854  0.1377
19292TIP3   OH279366   6.167   0.743   3.574 -0.2566  0.1774 -0.6557
19292TIP3    H179367   6.100   0.797   3.532 -0.8670  2.4935  3.1071
19292TIP3    H279368   6.248   0.793   3.563  0.2897 -1.0104 -2.2510
19293TIP3   OH279369   4.229   3.347   4.952 -0.1437  0.5280  0.5423
19293TIP3    H179370   4.151   3.355   4.898 -0.3317 -0.3264  0.6792
19293TIP3    H279371   4.237   3.432   4.995 -0.3111  1.0201 -0.3898
19294TIP3   OH279372   3.191   2.544  13.065  0.1365  0.1196  0.0467
19294TIP3    H179373   3.254   2.480  13.101 -1.3918 -1.5528 -0.1730
19294TIP3    H279374   3.150   2.582  13.143 -0.1549 -0.4075  0.1537
19295TIP3   OH279375   1.444   4.018  17.112 -0.0396  0.1745  0.0344
19295TIP3    H179376   1.401   4.060  17.038 -0.1329  0.2341  0.1230
19295TIP3    H279377   1.379   4.017  17.182  0.5698  1.5314  0.6277
19296TIP3   OH279378   1.422   0.557  14.562 -0.4042 -0.5617 -0.3809
19296TIP3    H179379   1.402   0.529  14.473  0.9886  2.5541 -1.7587
19296TIP3    H279380   1.463   0.480  14.603 -0.6114 -1.8790 -2.5714
19297TIP3   OH279381   3.412   6.601  16.665 -0.7262 -0.7878 -0.4762
19297TIP3    H179382   3.389   6.671  16.604 -0.3051  0.3849  0.6782
19297TIP3    H279383   3.470   6.643  16.729 -1.0907 -2.0059  0.6778
19298TIP3   OH279384   5.606   3.892   5.529  0.0899  0.3900  0.3608
19298TIP3    H179385   5.626   3.952   5.458 -0.3604 -0.4508 -0.4815
19298TIP3    H279386   5.512   3.902   5.544  0.0947  0.2179  0.5179
19299TIP3   OH279387   2.624   3.786  13.757 -0.4275 -0.0818 -0.9387
19299TIP3    H179388   2.712   3.799  13.721 -0.4532 -2.2251 -1.8499
19299TIP3    H279389   2.629   3.824  13.845  1.1608  0.5711 -1.2842
19300TIP3   OH279390   5.548   3.982  16.517  0.6074 -0.2335  0.4678
19300TIP3    H179391   5.469   3.974  16.572  1.7217  1.6533  2.4411
19300TIP3    H279392   5.520   4.038  16.444 -0.7408 -2.2916 -0.6419
19301TIP3   OH279393   6.794   4.252   5.970 -0.2514 -0.0830  0.5903
19301TIP3    H179394   6.870   4.286   5.922 -1.9200  1.8393 -0.7650
19301TIP3    H279395   6.762   4.326   6.020 -1.4496 -0.7794  0.8743
19302TIP3   OH279396   0.888   5.998   2.039 -0.3981 -0.7894  0.0763
19302TIP3    H179397   0.899   6.093   2.048  0.1209 -0.7823 -0.5509
19302TIP3    H279398   0.822   5.988   1.971 -1.3504 -0.8712  1.0092
19303TIP3   OH279399   3.984   5.386   3.000  0.2285  0.0120 -0.4651
19303TIP3    H179400   3.910   5.445   2.988 -0.9593 -1.1855  0.8951
19303TIP3    H279401   3.985   5.332   2.921  0.1708  0.5850 -0.8607
19304TIP3   OH279402   5.415   3.497  15.074  0.4765  0.2294  0.0173
19304TIP3    H179403   5.448   3.415  15.037 -0.7566 -0.1816 -0.2063
19304TIP3    H279404   5.484   3.561  15.057  1.6880 -0.8747  0.6663
19305TIP3   OH279405   4.462   2.677   6.096  0.0390  0.1246  0.1829
19305TIP3    H179406   4.547   2.708   6.066 -0.1262  0.4708  0.0620
19305TIP3    H279407   4.460   2.700   6.189 -0.6253  1.7255 -0.2079
19306TIP3   OH279408   3.076   0.536  17.189 -0.0043  0.3145  0.5117
19306TIP3    H179409   3.043   0.570  17.106 -1.1735  0.6978  1.1135
19306TIP3    H279410   2.997   0.522  17.242  0.5260 -2.3935  0.6436
19307TIP3   OH279411   2.809   0.159  16.998 -0.0807 -0.1849 -0.4501
19307TIP3    H179412   2.802   0.248  17.034  2.2251 -0.3556  0.4911
19307TIP3    H279413   2.720   0.139  16.968 -0.9970  1.8308  0.7501
19308TIP3   OH279414   2.949   2.755  12.647 -0.6223  0.3678  0.4216
19308TIP3    H179415   2.915   2.677  12.690 -0.7607  1.1967  1.8338
19308TIP3    H279416   2.939   2.737  12.553 -2.1800 -0.6266  0.7662
19309TIP3   OH279417   5.118   5.928  11.794 -0.3014 -0.1372 -0.6469
19309TIP3    H179418   5.212   5.945  11.787  0.2171 -2.3670  0.4635
19309TIP3    H279419   5.091   5.972  11.874 -0.2068  0.4687 -0.9435
19310TIP3   OH279420   2.870   2.467   5.387  0.3026  0.3081  0.3668
19310TIP3    H179421   2.808   2.537   5.366  0.5615 -0.1633 -2.1660
19310TIP3    H279422   2.945   2.512   5.427 -0.5183  1.1909  0.9259
19311TIP3   OH279423   5.296   4.074  14.226  0.0399  0.4214 -0.1249
19311TIP3    H179424   5.334   4.098  14.311  0.0385  0.1808 -0.0566
19311TIP3    H279425   5.225   4.013  14.248 -0.4675  0.9608 -0.2382
19312TIP3   OH279426   3.565   2.957   1.800 -0.8314  0.2581 -0.2482
19312TIP3    H179427   3.629   3.029   1.795 -0.6964  0.1995  0.5847
19312TIP3    H279428   3.592   2.907   1.877 -0.2824 -1.3080 -1.4406
19313TIP3   OH279429   5.091   0.720  14.927  0.0865 -0.7956  0.1621
19313TIP3    H179430   5.011   0.766  14.903 -0.7430 -0.6440  2.9992
19313TIP3    H279431   5.161   0.784  14.913 -0.6042 -0.0242  0.2101
19314TIP3   OH279432   5.727   1.763   4.865 -0.3481  0.1951 -0.1233
19314TIP3    H179433   5.762   1.762   4.776  0.4367  1.0167  0.1734
19314TIP3    H279434   5.679   1.845   4.871 -0.9706 -0.1702  0.0070
19315TIP3   OH279435   3.712   5.204   5.343 -0.6849 -0.2695  0.1691
19315TIP3    H179436   3.740   5.265   5.411  0.5240 -0.2928 -0.3016
19315TIP3    H279437   3.722   5.254   5.261 -0.6767 -0.7555 -0.1272
19316TIP3   OH279438   4.404   5.841   4.865 -0.0077 -0.4742  0.2841
19316TIP3    H179439   4.403   5.886   4.781 -0.3440 -0.3218  0.3669
19316TIP3    H279440   4.363   5.902   4.926  1.9507  0.1902  0.9780
19317TIP3   OH279441   4.278   3.942   2.527  0.0576  0.1861  0.1831
19317TIP3    H179442   4.241   3.935   2.615  1.5094  0.8642  0.8694
19317TIP3    H279443   4.228   4.012   2.485 -1.9650 -1.4780 -0.2417
19318TIP3   OH279444   6.197   2.588  12.287  0.0637  0.4870  0.0487
19318TIP3    H179445   6.172   2.678  12.310  0.9854  0.5727  0.7306
19318TIP3    H279446   6.136   2.533  12.336 -0.0894  0.7191  0.1216
19319TIP3   OH279447   2.482   3.014  14.835  0.0497  0.5438 -0.0493
19319TIP3    H179448   2.466   2.958  14.911 -0.6866  1.7120  0.6528
19319TIP3    H279449   2.395   3.033  14.800  0.2033  2.2889  0.4669
19320TIP3   OH279450   0.532   4.582  11.040 -0.5657  0.5897 -0.1911
19320TIP3    H179451   0.440   4.610  11.036 -0.5928  0.6212  0.6486
19320TIP3    H279452   0.575   4.634  10.972 -1.1063  0.8204 -0.3645
19321TIP3   OH279453   6.507   2.165  12.615  0.4816 -0.1099  0.3513
19321TIP3    H179454   6.553   2.151  12.698  1.2667  1.0931  0.1360
19321TIP3    H279455   6.556   2.236  12.573 -0.1413 -0.4565 -0.9697
19322TIP3   OH279456   6.389   3.312   5.738 -0.5265  0.3507 -0.0235
19322TIP3    H179457   6.441   3.372   5.684  0.3419  1.1406  1.6620
19322TIP3    H279458   6.424   3.322   5.826 -1.6321 -1.2597  0.6254
19323TIP3   OH279459   5.500   3.340   1.260  0.1745 -0.3109 -0.3336
19323TIP3    H179460   5.439   3.410   1.279 -0.9826 -1.4571  0.2413
19323TIP3    H279461   5.585   3.384   1.252 -0.3225  0.9983  1.2084
19324TIP3   OH279462   6.766   0.649  15.549 -0.3425 -1.0536 -0.1470
19324TIP3    H179463   6.853   0.622  15.519 -0.1465 -1.5232  0.8300
19324TIP3    H279464   6.777   0.666  15.642 -1.3655 -1.3934  0.0429
19325TIP3   OH279465   6.670   4.078   3.760 -0.0701  0.1556  0.1107
19325TIP3    H179466   6.606   4.015   3.726  0.2245 -0.7338  1.1842
19325TIP3    H279467   6.687   4.136   3.686 -3.1896  1.2740  0.2042
19326TIP3   OH279468   5.334   2.602  11.449 -0.1720  0.2892 -0.6548
19326TIP3    H179469   5.242   2.581  11.464 -0.6086  1.4563 -1.5438
19326TIP3    H279470   5.350   2.574  11.358  0.7978 -1.3760  0.0157
19327TIP3   OH279471   4.311   3.656   2.468  0.5325  0.2225  0.0704
19327TIP3    H179472   4.316   3.640   2.374  1.8012 -0.6849  0.2925
19327TIP3    H279473   4.292   3.750   2.475  1.8700  0.5950 -1.0683
19328TIP3   OH279474   1.366   0.582  13.829 -0.1467  0.2898 -0.6156
19328TIP3    H179475   1.315   0.656  13.861 -0.7795 -0.5975  0.4342
19328TIP3    H279476   1.323   0.505  13.865  1.3417 -0.5255 -0.5409
19329TIP3   OH279477   6.034   5.577  15.402 -0.0747  0.4803  0.1342
19329TIP3    H179478   6.000   5.541  15.484  0.0499  1.6173  0.6923
19329TIP3    H279479   6.128   5.564  15.407  0.1987  2.6944  1.2529
19330TIP3   OH279480   6.218   1.495   5.159  0.8335  0.2309  0.3684
19330TIP3    H179481   6.222   1.505   5.254 -0.1042 -0.7934  0.5261
19330TIP3    H279482   6.282   1.426   5.140 -0.8475 -1.4382  0.5745
19331TIP3   OH279483   1.516   1.973  15.599 -0.7172  0.1423 -0.3175
19331TIP3    H179484   1.611   1.963  15.604 -0.8965 -1.3606  0.3932
19331TIP3    H279485   1.482   1.908  15.660 -2.2238  0.2401 -1.0380
19332TIP3   OH279486   3.046   3.030  17.042  0.1431 -0.3020 -0.4714
19332TIP3    H179487   3.082   2.982  16.968  0.9937 -1.7814  0.8677
19332TIP3    H279488   2.953   3.010  17.041  0.2563 -0.8038 -0.7928
19333TIP3   OH279489   4.625   2.532   4.963  0.0394 -0.1338 -0.3868
19333TIP3    H179490   4.684   2.457   4.972 -1.4914 -1.3006  0.1871
19333TIP3    H279491   4.612   2.563   5.053  0.2169  0.4670 -0.5670
19334TIP3   OH279492   0.385   6.302  15.405 -0.1151  0.1866 -0.0740
19334TIP3    H179493   0.331   6.224  15.421  0.0522  0.2242  0.6742
19334TIP3    H279494   0.470   6.266  15.379 -0.6219  0.1240 -1.7619
19335TIP3   OH279495   5.094   4.265  15.871 -0.4067  0.3601  0.4103
19335TIP3    H179496   5.103   4.220  15.787 -1.2695  1.3025 -0.2102
19335TIP3    H279497   5.172   4.241  15.920 -0.6910 -1.5104 -0.0314
19336TIP3   OH279498   3.066   6.378  15.779 -0.5179  0.0441  0.5545
19336TIP3    H179499   3.060   6.343  15.690  0.3638  0.2787  0.4053
19336TIP3    H279500   3.022   6.463  15.773 -0.0345  0.2734  0.2296
19337TIP3   OH279501   1.856   4.492   2.264  0.0863  0.0198  0.0424
19337TIP3    H179502   1.947   4.468   2.246 -0.9754 -3.1875 -1.5212
19337TIP3    H279503   1.805   4.433   2.208 -3.0125  0.2799  2.4745
19338TIP3   OH279504   4.708   4.321  11.674 -0.1450  0.0737 -0.2800
19338TIP3    H179505   4.630   4.348  11.626 -0.2958  1.3261  0.6482
19338TIP3    H279506   4.721   4.229  11.649 -0.8425  0.3824 -1.8612
19339TIP3   OH279507   6.068   0.430   2.904  0.0958  0.2318 -0.3760
19339TIP3    H179508   6.024   0.512   2.929 -1.3633  0.2291 -2.7629
19339TIP3    H279509   6.026   0.363   2.959  0.3068  0.8852  0.5852
19340TIP3   OH279510   2.260   2.936   2.062  0.0872  0.0809 -0.0534
19340TIP3    H179511   2.225   2.847   2.053  0.5792 -0.0045 -1.2615
19340TIP3    H279512   2.197   2.981   2.118 -1.1644 -0.5143 -0.9492
19341TIP3   OH279513   4.464   6.136   4.038  0.2486  0.3478 -0.5391
19341TIP3    H179514   4.453   6.104   4.127  0.4139  1.5816 -0.0713
19341TIP3    H279515   4.394   6.200   4.025  0.4042  0.3970 -1.1961
19342TIP3   OH279516   6.763   3.682   2.822 -0.1114  0.1504 -0.4235
19342TIP3    H179517   6.762   3.697   2.916  0.1341 -0.7600 -0.2677
19342TIP3    H279518   6.759   3.586   2.813 -0.2347  0.2390 -1.3334
19343TIP3   OH279519   4.483   2.913   1.996 -0.1579 -0.0503 -0.1398
19343TIP3    H179520   4.574   2.889   2.014 -0.3666  0.6002  2.0277
19343TIP3    H279521   4.469   2.992   2.048 -2.5266 -1.2435  1.1365
19344TIP3   OH279522   6.660   0.772   1.190 -0.1639  0.1229 -0.1029
19344TIP3    H179523   6.597   0.845   1.194  0.2922  0.4366  2.0593
19344TIP3    H279524   6.746   0.814   1.198  0.0221 -0.7643  2.8449
19345TIP3   OH279525   0.727   4.979   2.600  0.1518  0.6548  0.1211
19345TIP3    H179526   0.763   5.026   2.525 -1.2506 -0.8263 -1.5360
19345TIP3    H279527   0.780   4.899   2.606 -0.4001  0.2732  0.0304
19346TIP3   OH279528   6.381   0.166   1.294 -0.0825  0.4485  0.0477
19346TIP3    H179529   6.385   0.143   1.386  0.7657 -0.1499 -0.1240
19346TIP3    H279530   6.290   0.152   1.269 -0.1685 -0.0336  0.6268
19347TIP3   OH279531   2.221   0.101  15.836  0.3066 -0.3201 -0.2748
19347TIP3    H179532   2.237   0.007  15.826  0.7358 -0.1424 -1.1964
19347TIP3    H279533   2.278   0.143  15.772  0.6053  0.6107  0.5947
19348TIP3   OH279534   5.428   1.306  12.444 -0.1077  0.3807  0.4905
19348TIP3    H179535   5.434   1.340  12.355  1.1922 -0.0635  0.3973
19348TIP3    H279536   5.442   1.212  12.435  0.5580  0.4000  1.2037
19349TIP3   OH279537   3.509   2.404   3.792  0.3983  0.5059  0.0248
19349TIP3    H179538   3.497   2.498   3.807  2.3966  0.6739  0.8157
19349TIP3    H279539   3.596   2.397   3.751 -0.3922 -0.8831 -1.5082
19350TIP3   OH279540   5.332   4.632  14.038  0.3904  0.7176  0.1114
19350TIP3    H179541   5.250   4.602  14.000  0.8722  1.0266 -1.1744
19350TIP3    H279542   5.346   4.718  14.001  0.4540  1.3838  1.6341
19351TIP3   OH279543   2.091   4.080   0.391  0.1975 -0.5662 -0.0502
19351TIP3    H179544   2.071   4.046   0.478 -1.1056  0.9160  0.2519
19351TIP3    H279545   2.170   4.132   0.403  0.5177 -1.0845  0.0727
19352TIP3   OH279546   6.542   1.155  12.291  0.0556 -0.5340 -0.2329
19352TIP3    H179547   6.515   1.230  12.343 -1.6439 -1.2236 -0.0833
19352TIP3    H279548   6.509   1.173  12.203  0.5542 -0.6234 -0.4397
19353TIP3   OH279549   4.738   3.348   5.514 -0.0078  0.0742  0.3586
19353TIP3    H179550   4.707   3.266   5.475  1.3695  0.6536 -2.0620
19353TIP3    H279551   4.725   3.336   5.608 -1.8652 -2.0488 -0.1183
19354TIP3   OH279552   2.587   5.169   3.940  0.3470  0.1009 -0.3366
19354TIP3    H179553   2.534   5.133   4.012  0.6042  2.6495  1.1879
19354TIP3    H279554   2.537   5.149   3.861 -1.8664  0.5614  0.8928
19355TIP3   OH279555   6.261   4.453  16.908  0.6426 -0.5173 -0.0142
19355TIP3    H179556   6.312   4.534  16.918  0.0208 -0.3160  1.7007
19355TIP3    H279557   6.170   4.481  16.913  0.4235 -1.3588  1.0877
19356TIP3   OH279558   5.545   0.305  12.042  0.2312 -0.3702  0.1656
19356TIP3    H179559   5.482   0.321  12.112 -1.0568  1.1309 -1.2955
19356TIP3    H279560   5.507   0.234  11.991  1.0853 -1.3478  0.8788
19357TIP3   OH279561   1.899   1.713   0.418  0.5365  0.6769 -0.4590
19357TIP3    H179562   1.938   1.796   0.448  1.1239  0.4662 -0.6403
19357TIP3    H279563   1.890   1.661   0.498 -1.0992  1.4241 -0.1297
19358TIP3   OH279564   2.705   0.055   5.001  0.1809 -0.3815 -0.1866
19358TIP3    H179565   2.632   0.116   5.001 -0.8716 -1.6199  0.4210
19358TIP3    H279566   2.726   0.044   5.094  1.3504  0.2110 -0.3715
19359TIP3   OH279567   1.824   6.436   2.547 -0.0911 -0.1027 -0.2988
19359TIP3    H179568   1.792   6.474   2.465  0.0291  1.1830  0.2325
19359TIP3    H279569   1.744   6.422   2.599 -0.0222  0.7663  0.0537
19360TIP3   OH279570   5.832   4.819  12.703  0.0753 -0.2780 -0.0189
19360TIP3    H179571   5.747   4.803  12.661  0.2016  1.3169 -0.9304
19360TIP3    H279572   5.816   4.893  12.761  0.5116 -0.8660  0.8539
19361TIP3   OH279573   2.622   4.563  15.617  0.2068 -0.0881  0.3961
19361TIP3    H179574   2.533   4.598  15.627  0.5819  0.6335  1.2744
19361TIP3    H279575   2.666   4.626  15.560  0.0985 -0.5549 -0.2090
19362TIP3   OH279576   3.899   4.169  12.683 -0.3118 -0.2868  0.5289
19362TIP3    H179577   3.990   4.181  12.655 -0.7768  0.6691 -0.6158
19362TIP3    H279578   3.895   4.078  12.714  0.4697 -1.1061 -1.6379
19363TIP3   OH279579   5.986   1.243   2.401 -0.1559  0.1580 -0.4308
19363TIP3    H179580   6.078   1.228   2.424 -0.9801 -0.1349  2.8309
19363TIP3    H279581   5.957   1.159   2.366  0.5760 -0.0058 -0.6584
19364TIP3   OH279582   1.837   2.625  17.130 -0.0239  0.2645 -0.0832
19364TIP3    H179583   1.749   2.596  17.105 -0.1545  0.6487 -0.0717
19364TIP3    H279584   1.887   2.625  17.048 -0.0682  0.1623 -0.1096
19365TIP3   OH279585   6.070   1.750   1.814 -0.5395  0.1573  0.6209
19365TIP3    H179586   5.989   1.726   1.768  0.3594 -0.1852 -0.8425
19365TIP3    H279587   6.041   1.791   1.895 -2.1655 -1.2434  0.7813
19366TIP3   OH279588   1.544   6.052  13.056 -0.8670  0.1244  0.6035
19366TIP3    H179589   1.537   6.131  13.110 -1.5546 -0.6679  1.6930
19366TIP3    H279590   1.630   6.015  13.078 -0.1899  0.9913 -0.5157
19367TIP3   OH279591   0.377   6.211  16.582  0.0304  0.0176 -0.4011
19367TIP3    H179592   0.363   6.163  16.664  0.9850 -1.3269 -1.0032
19367TIP3    H279593   0.292   6.252  16.563 -0.9620 -1.8552 -0.1220
19368TIP3   OH279594   2.675   3.018   5.252 -0.5034  0.3390  0.1697
19368TIP3    H179595   2.588   3.042   5.220  0.5618  1.6182 -1.9112
19368TIP3    H279596   2.701   3.091   5.308 -0.7403 -0.0383  0.7822
19369TIP3   OH279597   0.635   3.804   5.339  0.1222 -0.2772 -0.9022
19369TIP3    H179598   0.578   3.796   5.415  0.2697  0.4009 -0.7172
19369TIP3    H279599   0.575   3.818   5.265 -0.0679 -1.7606 -1.0447
19370TIP3   OH279600   1.593   4.356  11.552  0.2036 -0.0265 -0.3018
19370TIP3    H179601   1.612   4.265  11.527  3.1238  0.1920  0.8953
19370TIP3    H279602   1.676   4.389  11.587 -1.3679  2.4463  1.2750
19371TIP3   OH279603   6.676   1.446  12.984  0.0013 -0.2503  0.1200
19371TIP3    H179604   6.622   1.525  12.991  0.3137  0.1144 -1.4312
19371TIP3    H279605   6.764   1.479  12.967  0.0427 -0.9493 -1.0466
19372TIP3   OH279606   6.225   0.453  11.014  0.1271 -0.4714  0.6551
19372TIP3    H179607   6.230   0.383  10.948  2.4709 -0.0301  0.3311
19372TIP3    H279608   6.174   0.416  11.085 -2.5526 -0.9366 -1.4374
19373TIP3   OH279609   5.258   3.080  14.786 -0.0614  0.1430  0.0522
19373TIP3    H179610   5.182   3.137  14.772  0.1160  0.1023 -1.1329
19373TIP3    H279611   5.224   3.007  14.837 -0.4720  0.9036  0.8739
19374TIP3   OH279612   1.451   2.034  10.648 -0.0859 -0.1234  0.3120
19374TIP3    H179613   1.546   2.031  10.654 -0.1705 -0.4833  1.7745
19374TIP3    H279614   1.424   2.086  10.724 -1.1069 -0.9921  0.5579
19375TIP3   OH279615   4.627   4.735   0.479 -0.6411 -0.2488 -0.0182
19375TIP3    H179616   4.703   4.770   0.524 -0.3118 -1.4540  0.3613
19375TIP3    H279617   4.628   4.641   0.498 -1.6960 -0.4216 -0.7670
19376TIP3   OH279618   3.052   4.771  15.938  0.4788  0.5643  0.2751
19376TIP3    H179619   3.144   4.748  15.932  0.1481 -0.8744  0.5748
19376TIP3    H279620   3.012   4.729  15.861 -0.1829 -0.1189  0.9862
19377TIP3   OH279621   1.941   0.253  13.042 -0.1474  0.5689 -0.4793
19377TIP3    H179622   1.938   0.332  13.097  0.2256  1.2797 -1.4663
19377TIP3    H279623   2.023   0.260  12.994 -0.6763  0.1726 -1.4502
19378TIP3   OH279624   6.546   1.984   4.534  0.7594  0.0021 -0.3344
19378TIP3    H179625   6.627   2.025   4.565 -0.5364 -1.0491  4.8911
19378TIP3    H279626   6.570   1.893   4.520  1.0775  0.2367 -1.3367
19379TIP3   OH279627   2.216   1.372  11.394  0.0373  0.0499 -0.0773
19379TIP3    H179628   2.283   1.440  11.388 -1.2139  1.3310  0.1833
19379TIP3    H279629   2.207   1.340  11.304  1.3607 -0.5003 -0.0267
19380TIP3   OH279630   1.167   3.103   4.733  0.1589  0.2844 -0.1123
19380TIP3    H179631   1.074   3.118   4.719 -0.0575 -0.7631  0.1248
19380TIP3    H279632   1.207   3.113   4.646 -0.1825  0.6478 -0.2262
19381TIP3   OH279633   6.676   0.227  15.572 -0.2477  0.1865 -0.1933
19381TIP3    H179634   6.714   0.279  15.502  1.5235 -0.5884  0.1547
19381TIP3    H279635   6.680   0.137  15.541  0.9384 -0.2105  1.0440
19382TIP3   OH279636   4.411   3.401   3.627  0.2748 -0.2077  0.0004
19382TIP3    H179637   4.402   3.323   3.572  0.3212 -0.0083 -0.2886
19382TIP3    H279638   4.490   3.384   3.679  0.0509 -0.5372  0.2405
19383TIP3   OH279639   0.413   0.842   0.951 -0.1919 -0.3485 -0.2364
19383TIP3    H179640   0.396   0.783   0.877 -2.0168 -0.7144  0.4536
19383TIP3    H279641   0.361   0.920   0.931  0.2829  0.0497  0.0694
19384TIP3   OH279642   6.280   4.283   1.730  0.1677  0.2326  0.1786
19384TIP3    H179643   6.316   4.294   1.642  0.2200  0.3157  0.2106
19384TIP3    H279644   6.197   4.330   1.728 -0.3418 -0.6746 -0.1507
19385TIP3   OH279645   6.654   4.738  16.302  0.6906  0.3374 -0.6605
19385TIP3    H179646   6.745   4.715  16.283  0.3229 -1.6111 -0.0875
19385TIP3    H279647   6.629   4.680  16.374 -0.6637  1.6449 -0.0513
19386TIP3   OH279648   5.232   6.447  15.849  0.3276  0.0869  0.3100
19386TIP3    H179649   5.182   6.477  15.772 -1.5611  0.9468  1.8315
19386TIP3    H279650   5.173   6.388  15.895  0.9554  0.5886  1.7933
19387TIP3   OH279651   6.079   3.457  13.344 -0.3749 -0.0889 -0.5577
19387TIP3    H179652   6.013   3.502  13.292 -0.4886  0.2835 -0.0919
19387TIP3    H279653   6.055   3.475  13.435  0.7476  0.6042 -0.3895
19388TIP3   OH279654   1.577   4.076  12.389  0.2462 -1.0803 -0.6866
19388TIP3    H179655   1.588   4.104  12.298  0.3967 -0.7844 -0.5752
19388TIP3    H279656   1.501   4.018  12.386 -0.5482 -0.0537 -0.7881
19389TIP3   OH279657   1.625   2.523   3.612 -0.3088 -0.5634 -0.5750
19389TIP3    H179658   1.654   2.442   3.570 -0.2682 -1.0603  0.3943
19389TIP3    H279659   1.677   2.529   3.692 -2.7687 -1.4399  1.1599
19390TIP3   OH279660   2.621   4.342  13.359  0.1638 -0.6957 -0.0645
19390TIP3    H179661   2.580   4.375  13.279  1.7836 -2.5744 -1.7164
19390TIP3    H279662   2.558   4.362  13.428 -0.8295  1.8658 -1.6338
19391TIP3   OH279663   6.223   0.728   1.765 -0.0736  0.8949  0.0959
19391TIP3    H179664   6.272   0.706   1.844  0.3590 -0.6476 -0.5878
19391TIP3    H279665   6.133   0.701   1.783  0.1288  0.0611 -0.1272
19392TIP3   OH279666   6.355   4.408   2.298 -1.1260  0.1669 -0.1681
19392TIP3    H179667   6.418   4.384   2.366  0.6373  1.8429 -1.2032
19392TIP3    H279668   6.371   4.345   2.227 -1.6939 -0.3840  0.1805
19393TIP3   OH279669   3.136   1.239   6.437  0.0377  0.3423  0.6893
19393TIP3    H179670   3.200   1.168   6.434  0.5622  0.7810  1.4961
19393TIP3    H279671   3.189   1.318   6.444 -0.6003  0.6919  1.6260
19394TIP3   OH279672   4.894   5.197  12.062  0.5316  0.0710 -0.2593
19394TIP3    H179673   4.968   5.257  12.073 -0.1201  0.5177  1.8135
19394TIP3    H279674   4.895   5.142  12.140 -0.7739 -0.5228 -0.6484
19395TIP3   OH279675   0.231   1.694  13.622 -0.5407  0.8137  0.0843
19395TIP3    H179676   0.176   1.737  13.557 -0.4665  0.3424 -0.2872
19395TIP3    H279677   0.321   1.714  13.595 -0.5162  1.1396  0.3959
19396TIP3   OH279678   5.230   1.626  12.278  0.1423 -0.0453  0.3093
19396TIP3    H179679   5.238   1.680  12.199  0.9996  1.0190  1.1072
19396TIP3    H279680   5.317   1.590  12.292 -0.1130 -0.5843  0.5316
19397TIP3   OH279681   3.031   1.607   0.045  0.3912 -0.5963  0.4131
19397TIP3    H179682   2.938   1.615   0.068  0.8952  2.5589  1.4851
19397TIP3    H279683   3.037   1.642  -0.044  0.6558 -0.2459  0.5683
19398TIP3   OH279684   5.744   4.041  14.321  0.8973 -0.2334 -0.5113
19398TIP3    H179685   5.810   3.973  14.308  3.7260  1.8634  2.1335
19398TIP3    H279686   5.755   4.068  14.412 -1.5913  2.2854 -0.8943
19399TIP3   OH279687   3.998   1.036  11.662  0.3463  0.2041 -0.6199
19399TIP3    H179688   3.903   1.042  11.672  0.5012  1.5574  0.2034
19399TIP3    H279689   4.023   1.119  11.621  1.1625 -0.1940 -0.9390
19400TIP3   OH279690   5.568   0.065  15.811 -0.0061 -0.2974 -0.6144
19400TIP3    H179691   5.602  -0.023  15.793 -1.2591 -0.7312 -0.9085
19400TIP3    H279692   5.551   0.065  15.905 -0.5171 -0.5545 -0.7066
19401TIP3   OH279693   2.400   2.985   3.465 -0.4265  0.7337  0.4296
19401TIP3    H179694   2.488   2.999   3.432  0.5899  1.6549  3.4683
19401TIP3    H279695   2.346   3.047   3.416  0.8415  1.3089 -0.2613
19402TIP3   OH279696   2.975   5.904   3.675 -0.1855  0.0244 -0.3775
19402TIP3    H179697   3.010   5.912   3.764  0.7330 -0.0728 -0.7250
19402TIP3    H279698   2.886   5.940   3.680  0.8080  2.4679 -0.0110
19403TIP3   OH279699   5.116   2.542   6.369  0.1398  0.0926  0.0366
19403TIP3    H179700   5.144   2.576   6.453 -1.2636  1.1388  0.1175
19403TIP3    H279701   5.097   2.620   6.317 -2.2203 -0.5295 -0.1072
19404TIP3   OH279702   0.563   3.181  16.099 -0.1976 -0.3575 -0.1103
19404TIP3    H179703   0.652   3.159  16.072  0.6852  0.5385  1.9576
19404TIP3    H279704   0.540   3.114  16.163 -1.0040 -0.5652 -0.6123
19405TIP3   OH279705   1.303   4.307  17.250 -0.0981 -0.1538 -0.4310
19405TIP3    H179706   1.295   4.355  17.167  0.4704  0.2854 -0.2417
19405TIP3    H279707   1.383   4.255  17.239 -1.5512 -2.2383 -1.2112
19406TIP3   OH279708   3.091   0.848  13.256  0.1704 -0.0191 -0.1967
19406TIP3    H179709   3.059   0.760  13.278  0.2869  0.0213  0.1386
19406TIP3    H279710   3.160   0.865  13.321 -1.0235  1.0260  0.8275
19407TIP3   OH279711   3.053   1.168   2.241  0.6208 -0.5933  0.1945
19407TIP3    H179712   3.025   1.153   2.332 -0.3195 -1.4264 -0.2228
19407TIP3    H279713   2.981   1.134   2.188  1.1630 -0.0966 -0.8713
19408TIP3   OH279714   1.169   4.234   3.602  0.5186  0.0217 -0.2667
19408TIP3    H179715   1.124   4.151   3.586 -0.8236  0.4658  1.1145
19408TIP3    H279716   1.182   4.236   3.696  3.5148 -0.1006 -0.6167
19409TIP3   OH279717   3.420   6.793   2.241 -0.7384  0.4521 -0.0902
19409TIP3    H179718   3.416   6.812   2.147  0.3229  2.8352  0.3266
19409TIP3    H279719   3.508   6.756   2.253 -1.3339 -1.0477 -0.2193
19410TIP3   OH279720   4.420   4.668  12.555  0.1114  0.2936 -0.5567
19410TIP3    H179721   4.487   4.728  12.521  1.1600 -0.2847  0.4320
19410TIP3    H279722   4.400   4.702  12.642  0.4345 -0.5491 -0.1433
19411TIP3   OH279723   2.128   0.906  12.462  0.8023  0.1355 -0.7417
19411TIP3    H179724   2.041   0.945  12.453  0.4502  0.2208  2.5862
19411TIP3    H279725   2.124   0.827  12.407 -1.4548  0.0191 -0.4678
19412TIP3   OH279726   1.288   1.752  15.041 -0.6356  0.3026 -0.2532
19412TIP3    H179727   1.223   1.802  14.993 -0.4587  1.5872  0.8248
19412TIP3    H279728   1.363   1.746  14.983 -1.0373  0.4043 -0.7791
19413TIP3   OH279729   2.795   5.409  13.373  0.2766 -0.1623 -0.1515
19413TIP3    H179730   2.846   5.437  13.298  1.0857  0.4453  0.6172
19413TIP3    H279731   2.733   5.345  13.337  0.2543  0.5629 -1.4313
19414TIP3   OH279732   2.847   1.568   2.429 -0.2364  0.4066  0.7747
19414TIP3    H179733   2.926   1.552   2.480  0.3595 -1.2828 -0.6194
19414TIP3    H279734   2.818   1.481   2.402 -1.1769  1.1786 -0.7911
19415TIP3   OH279735   1.421   4.695  16.018  0.1846  0.4069  0.2108
19415TIP3    H179736   1.333   4.701  15.980  0.4257 -0.4448 -0.5085
19415TIP3    H279737   1.420   4.756  16.092 -1.1809 -0.0222  0.5500
19416TIP3   OH279738   3.938   5.760  11.341 -0.6194 -0.0265  0.0732
19416TIP3    H179739   3.983   5.823  11.285 -0.9682  0.9301  0.8372
19416TIP3    H279740   3.988   5.679  11.333 -0.2428  0.3139 -1.0309
19417TIP3   OH279741   0.231   4.673  14.446 -0.2639  0.1948  0.4330
19417TIP3    H179742   0.211   4.749  14.391 -1.3077 -0.0714  0.4425
19417TIP3    H279743   0.249   4.603  14.383  2.4300  0.8494  0.3846
19418TIP3   OH279744   2.211   6.602  13.835 -0.5967 -0.0155 -0.0054
19418TIP3    H179745   2.137   6.659  13.813  0.4646  0.5699 -2.1495
19418TIP3    H279746   2.224   6.548  13.757  1.7982  0.5066 -0.0087
19419TIP3   OH279747   0.071   4.914  11.395 -0.7808  0.7416 -0.3590
19419TIP3    H179748   0.063   5.008  11.410 -3.0280  0.3244  1.3735
19419TIP3    H279749   0.019   4.898  11.316 -1.6400  0.7660  0.1890
19420TIP3   OH279750   3.013   6.451   1.284 -0.6545  0.7419  0.0929
19420TIP3    H179751   2.985   6.541   1.270 -0.6035  0.6079 -0.9000
19420TIP3    H279752   2.958   6.399   1.226 -2.0277 -0.0817  2.0997
19421TIP3   OH279753   6.505   0.709   2.281  0.2822  0.7033 -0.7681
19421TIP3    H179754   6.600   0.700   2.278  0.5798  3.1349  0.1790
19421TIP3    H279755   6.478   0.654   2.354  0.6204 -2.2367 -2.7849
19422TIP3   OH279756   5.950   0.649   1.696 -0.5047  0.4125 -0.5347
19422TIP3    H179757   5.912   0.593   1.763  0.9113  1.3069  1.0518
19422TIP3    H279758   5.908   0.621   1.614  0.0773 -2.8694  0.2217
19423TIP3   OH279759   1.220   2.557  13.143 -0.4893 -0.0427  0.6655
19423TIP3    H179760   1.150   2.603  13.190 -0.2171  0.6324  0.4112
19423TIP3    H279761   1.291   2.550  13.206 -0.5320 -0.1182  0.7053
19424TIP3   OH279762   1.337   5.131  11.136  0.0992 -0.1394  0.1226
19424TIP3    H179763   1.404   5.170  11.191  0.3735 -0.4594  0.0164
19424TIP3    H279764   1.349   5.172  11.050 -0.6717  0.7552  0.4302
19425TIP3   OH279765   1.050   3.260  13.266 -0.0688 -0.0458  0.0917
19425TIP3    H179766   0.974   3.260  13.208 -0.7194  0.1453  0.9429
19425TIP3    H279767   1.055   3.350  13.298  0.1493 -0.2115  0.5183
19426TIP3   OH279768   3.279   0.100  13.788 -0.6211 -0.0822 -0.2553
19426TIP3    H179769   3.370   0.106  13.818 -0.6727 -0.0642 -0.1045
19426TIP3    H279770   3.246   0.019  13.826 -1.1094  0.6313  0.8851
19427TIP3   OH279771   4.483   1.776   2.702  1.0686  0.0824  0.0877
19427TIP3    H179772   4.507   1.796   2.793  1.1814 -1.0356  0.3135
19427TIP3    H279773   4.563   1.793   2.652  0.8751  1.1474  0.1188
19428TIP3   OH279774   1.716   1.530  15.896  0.1639  0.3904 -0.3553
19428TIP3    H179775   1.802   1.504  15.930 -0.0962 -1.2285 -0.8943
19428TIP3    H279776   1.690   1.604  15.951  1.2036 -0.1025  0.8327
19429TIP3   OH279777   4.744   5.247   2.781  0.2570  0.2686  0.3158
19429TIP3    H179778   4.757   5.153   2.789 -1.2612 -0.1680 -1.8793
19429TIP3    H279779   4.827   5.280   2.747  1.3334 -0.0105  2.5625
19430TIP3   OH279780   6.468   3.599   5.202 -0.1340 -0.2356  0.0167
19430TIP3    H179781   6.430   3.551   5.275 -0.8678 -0.0250 -0.2232
19430TIP3    H279782   6.399   3.603   5.137  1.3455 -2.7643 -1.8153
19431TIP3   OH279783   5.710   6.704   6.236 -0.2922  0.0292  0.2300
19431TIP3    H179784   5.661   6.707   6.318  0.3676 -1.2199  0.6744
19431TIP3    H279785   5.793   6.747   6.257  0.1485 -0.9050  0.4066
19432TIP3   OH279786   5.618   4.356  16.979 -0.2319 -0.0679 -0.5389
19432TIP3    H179787   5.699   4.357  16.928  0.4374 -1.0939  0.4960
19432TIP3    H279788   5.613   4.444  17.016  0.7243 -0.1781 -0.1210
19433TIP3   OH279789   1.353   0.645   4.397  0.0208  0.1816  0.1535
19433TIP3    H179790   1.302   0.650   4.477  0.2376  1.4275  0.2156
19433TIP3    H279791   1.289   0.646   4.326 -0.0391  1.7853  0.2289
19434TIP3   OH279792   6.276   4.893  11.345  0.9025 -0.6040  0.4442
19434TIP3    H179793   6.351   4.876  11.288  1.1956 -0.2079  0.7045
19434TIP3    H279794   6.241   4.807  11.366 -0.1025 -0.7022 -1.5207
19435TIP3   OH279795   2.320   1.102  16.539 -0.1257  0.8757 -0.5089
19435TIP3    H179796   2.257   1.033  16.516  0.6393  0.6294 -1.9264
19435TIP3    H279797   2.366   1.068  16.615 -0.0754  0.0180 -0.9119
19436TIP3   OH279798   0.504   0.566   6.191 -0.1012 -0.2087 -0.2009
19436TIP3    H179799   0.413   0.537   6.181 -0.4929  0.9878 -0.1555
19436TIP3    H279800   0.542   0.504   6.253 -1.4224  0.4239  1.2726
19437TIP3   OH279801   0.238   3.803   6.267  0.0605 -0.1474 -0.3521
19437TIP3    H179802   0.272   3.763   6.347 -0.0809  0.5894  0.0804
19437TIP3    H279803   0.144   3.813   6.283  0.1730  0.8192 -0.2500
19438TIP3   OH279804   2.012   0.289   2.366  0.3669  0.0203 -0.0722
19438TIP3    H179805   2.047   0.322   2.283  0.1610  1.1300  0.2767
19438TIP3    H279806   2.036   0.197   2.367 -2.2125 -0.7852 -2.7966
19439TIP3   OH279807   2.786   0.348   0.538  0.1960 -0.3105 -0.4913
19439TIP3    H179808   2.749   0.276   0.588 -1.0172  1.4144  1.1381
19439TIP3    H279809   2.741   0.345   0.454 -1.0282 -0.4544  0.1637
19440TIP3   OH279810   3.155   1.565  14.902  0.6618  0.5556 -0.6865
19440TIP3    H179811   3.147   1.622  14.978 -0.3217  0.6637 -0.8699
19440TIP3    H279812   3.248   1.543  14.899  0.6275  0.1313  0.8564
19441TIP3   OH279813   5.016   5.709  15.114 -0.1957 -0.4227 -0.4330
19441TIP3    H179814   5.022   5.631  15.059 -0.4348  0.0691 -1.1561
19441TIP3    H279815   4.966   5.680  15.191 -0.8012 -0.8177 -0.9784
19442TIP3   OH279816   6.678   5.075  14.059  0.6335 -0.3160 -0.2368
19442TIP3    H179817   6.699   5.126  14.137  2.1248 -0.3154 -0.6262
19442TIP3    H279818   6.638   5.139  13.999 -1.1827 -0.4682  0.7750
19443TIP3   OH279819   0.825   5.456  16.816  0.2123 -0.5053 -0.3578
19443TIP3    H179820   0.758   5.415  16.870 -0.3723  2.7362  1.5092
19443TIP3    H279821   0.903   5.459  16.873 -0.0144  1.6968 -0.1091
19444TIP3   OH279822   0.102   3.923   5.747  0.4131 -0.4247 -0.1008
19444TIP3    H179823   0.195   3.907   5.764  0.7068  0.1938 -1.0574
19444TIP3    H279824   0.089   3.892   5.657 -0.0827  0.3430 -0.2963
19445TIP3   OH279825   5.778   4.184  11.097  0.3267 -0.8652 -0.6787
19445TIP3    H179826   5.792   4.091  11.113  1.0855 -1.0306 -2.1575
19445TIP3    H279827   5.815   4.199  11.010 -0.5170  0.6475 -0.8000
19446TIP3   OH279828   6.799   6.403   1.972 -0.2789  0.2871  0.0973
19446TIP3    H179829   6.780   6.361   2.056  1.6789 -0.1296  0.3529
19446TIP3    H279830   6.872   6.462   1.990  0.4616 -0.1424 -1.4163
19447TIP3   OH279831   4.140   4.030   2.754  0.0109  0.3935 -0.6559
19447TIP3    H179832   4.224   4.013   2.799 -0.0266 -2.5784 -1.6054
19447TIP3    H279833   4.127   4.124   2.764  1.4198  0.2910  3.1167
19448TIP3   OH279834   5.917   3.612  12.665 -0.5495 -0.7494  0.0145
19448TIP3    H179835   5.844   3.589  12.607  0.5097 -0.8157 -1.3269
19448TIP3    H279836   5.962   3.529  12.682 -1.0740 -0.7892  1.2545
19449TIP3   OH279837   4.034   1.045   2.604  0.2699  0.2191  0.2550
19449TIP3    H179838   4.046   1.107   2.532 -0.6491 -0.8205 -0.8289
19449TIP3    H279839   3.942   1.055   2.629  0.4766  0.2708  1.0102
19450TIP3   OH279840   2.343   4.849  13.480  0.1341  0.2090 -0.0467
19450TIP3    H179841   2.389   4.910  13.421  1.1671 -2.1622 -1.7921
19450TIP3    H279842   2.254   4.846  13.446  0.9251 -1.7781 -2.1227
19451TIP3   OH279843   5.226   1.374  13.488 -0.2979  0.5332 -0.0356
19451TIP3    H179844   5.143   1.395  13.444  0.3350  1.1234 -0.9599
19451TIP3    H279845   5.200   1.347  13.576 -1.5766 -0.5553 -0.7278
19452TIP3   OH279846   4.927   0.216  15.750  0.4644 -0.1173 -0.1424
19452TIP3    H179847   4.859   0.281  15.766 -0.3434 -1.0566  0.2758
19452TIP3    H279848   4.976   0.212  15.832  0.1182 -0.5042  0.0440
19453TIP3   OH279849   5.542   0.532  12.747  0.1101  0.2390  0.1256
19453TIP3    H179850   5.610   0.574  12.799  0.0142 -0.6105  0.9571
19453TIP3    H279851   5.582   0.518  12.662  0.6861  0.5392  0.3451
19454TIP3   OH279852   2.661   3.887   5.167 -0.1081 -0.0579  0.0392
19454TIP3    H179853   2.682   3.875   5.074 -2.0110  1.3178 -0.6100
19454TIP3    H279854   2.647   3.798   5.199  0.3238 -0.5398 -1.0667
19455TIP3   OH279855   1.451   2.513   5.595 -0.2452  0.3705 -0.3758
19455TIP3    H179856   1.505   2.575   5.546 -0.3750  0.9275  0.1767
19455TIP3    H279857   1.499   2.500   5.677 -0.6996  0.4729 -0.0922
19456TIP3   OH279858   6.086   2.773  11.071  0.1407 -0.3890 -0.2329
19456TIP3    H179859   6.002   2.736  11.045  1.0167 -2.5445 -0.0817
19456TIP3    H279860   6.080   2.781  11.166  1.3920 -4.0619  0.2633
19457TIP3   OH279861   1.728   6.238  11.239  0.6462 -0.2038  0.6736
19457TIP3    H179862   1.748   6.332  11.232  0.7338 -0.1203  1.9824
19457TIP3    H279863   1.806   6.194  11.205 -0.0035  0.1971 -1.4287
19458TIP3   OH279864   2.077   6.493   1.807  0.3240 -0.3048  0.2039
19458TIP3    H179865   2.099   6.428   1.740 -0.3261 -1.5068  1.1509
19458TIP3    H279866   2.019   6.555   1.763 -0.6653 -1.4789 -0.1521
19459TIP3   OH279867   0.501   4.460  17.040  0.0015  0.3411  0.0293
19459TIP3    H179868   0.493   4.490  17.130 -2.5360 -0.1950  0.0083
19459TIP3    H279869   0.443   4.517  16.990 -1.8591 -1.9974 -0.6011
19460TIP3   OH279870   2.954   3.743   3.922 -0.6190 -0.1233 -0.1915
19460TIP3    H179871   3.046   3.767   3.929 -0.1946 -1.8501  0.2922
19460TIP3    H279872   2.954   3.648   3.914 -2.1725  0.0814 -3.5720
19461TIP3   OH279873   6.057   5.123   3.311  0.2936  0.0492 -0.4535
19461TIP3    H179874   6.085   5.080   3.392 -0.4310 -0.3137 -0.3873
19461TIP3    H279875   6.132   5.175   3.284  0.3210  0.6925  0.8135
19462TIP3   OH279876   6.004   6.791  15.998  0.5944  0.1220  0.5039
19462TIP3    H179877   6.019   6.717  15.938  2.2148  0.5952  0.2996
19462TIP3    H279878   5.997   6.751  16.084  0.0696 -0.3971  0.2240
19463TIP3   OH279879   5.655   0.513  16.335  0.4083 -0.4187 -0.1028
19463TIP3    H179880   5.703   0.503  16.418  0.6440  1.1113 -0.0420
19463TIP3    H279881   5.695   0.589  16.293  0.7638 -1.6048 -1.9725
19464TIP3   OH279882   4.039   5.389   3.469 -0.0090 -0.5544  0.3692
19464TIP3    H179883   4.075   5.343   3.393  3.6744  2.8201 -0.1107
19464TIP3    H279884   3.991   5.463   3.432 -0.3931 -0.3419  1.2753
19465TIP3   OH279885   4.896   3.802  11.553  0.0748 -0.1711  0.2035
19465TIP3    H179886   4.981   3.843  11.568 -0.9341  1.9808  0.3745
19465TIP3    H279887   4.863   3.845  11.474 -1.4667  0.0882  0.9651
19466TIP3   OH279888   1.009   5.144   2.617 -0.0750 -0.0038  0.0309
19466TIP3    H179889   0.928   5.163   2.664 -0.2756 -1.1104  0.1571
19466TIP3    H279890   0.999   5.190   2.533 -1.4565 -1.2490 -0.5165
19467TIP3   OH279891   3.182   5.212   2.611 -0.6806 -0.8164 -0.0632
19467TIP3    H179892   3.110   5.235   2.669 -0.7435 -0.2877 -0.3426
19467TIP3    H279893   3.155   5.247   2.525 -0.2880 -0.9919 -0.2583
19468TIP3   OH279894   5.941   6.514   0.040 -0.1485 -0.7566  0.3812
19468TIP3    H179895   5.948   6.518  -0.055  0.5862  0.4975  0.4719
19468TIP3    H279896   5.882   6.586   0.062  1.9917  0.8437  1.0724
19469TIP3   OH279897   2.748   0.286  13.098 -0.2564  0.2352 -0.4645
19469TIP3    H179898   2.815   0.225  13.129  0.2629  1.1250  0.1693
19469TIP3    H279899   2.780   0.315  13.012  0.8195  1.6337  0.3892
19470TIP3   OH279900   4.848   4.206  16.031 -0.0320 -0.0468  0.3626
19470TIP3    H179901   4.826   4.133  15.972 -0.9395  0.4193  0.1152
19470TIP3    H279902   4.913   4.257  15.983  0.6119 -0.6916  0.5386
19471TIP3   OH279903   3.876   1.329  11.659  0.1794  0.2259 -1.1501
19471TIP3    H179904   3.908   1.342  11.748 -0.6226  2.5417 -1.1522
19471TIP3    H279905   3.830   1.246  11.661  0.0091  0.3428  0.6415
19472TIP3   OH279906   0.973   0.924   0.065  0.2907  0.6275 -0.4630
19472TIP3    H179907   1.013   0.962   0.143  0.1621  2.3551 -1.2146
19472TIP3    H279908   0.887   0.966   0.060  1.0087  1.9307 -2.5314
19473TIP3   OH279909   2.423   6.588   2.371  0.6372  0.1122  0.1757
19473TIP3    H179910   2.346   6.558   2.420 -0.0795  1.9234  0.1974
19473TIP3    H279911   2.391   6.661   2.319  2.1745  0.3703 -0.4221
19474TIP3   OH279912   3.095   5.901  13.901 -0.8005  0.1632  0.5034
19474TIP3    H179913   3.182   5.869  13.925 -0.6337  1.4603  1.7146
19474TIP3    H279914   3.047   5.905  13.984 -2.7524 -2.5539 -0.3942
19475TIP3   OH279915   5.678   0.106   2.880 -0.2963  0.0197  0.0593
19475TIP3    H179916   5.708   0.167   2.813  0.5084 -2.1697 -1.6449
19475TIP3    H279917   5.757   0.082   2.928 -0.3288 -0.8315 -0.2891
19476TIP3   OH279918   4.476   2.867   5.742 -0.4465  0.2480  0.0106
19476TIP3    H179919   4.395   2.861   5.792  0.1352  0.5711  0.9955
19476TIP3    H279920   4.513   2.778   5.745 -0.1115  0.4092  0.6592
19477TIP3   OH279921   3.548   6.028  13.680 -0.3749 -0.1112  0.3757
19477TIP3    H179922   3.498   6.031  13.762 -2.0684  1.2639 -0.6873
19477TIP3    H279923   3.632   6.068  13.702 -0.2400 -1.1483  1.8221
19478TIP3   OH279924   4.745   0.659   3.547 -0.2045  0.4776  0.0678
19478TIP3    H179925   4.723   0.569   3.570  0.9986  0.0973 -0.2281
19478TIP3    H279926   4.800   0.689   3.620  0.2984  0.6090 -0.3652
19479TIP3   OH279927   6.428   4.532   5.505  0.6070 -0.8976  0.3679
19479TIP3    H179928   6.492   4.517   5.435 -1.7936 -0.1073 -2.0703
19479TIP3    H279929   6.461   4.608   5.552  0.6666  0.5169 -1.8917
19480TIP3   OH279930   6.631   5.585   0.011 -0.6268 -0.0164  0.2453
19480TIP3    H179931   6.603   5.545   0.093  2.4314  0.0580  1.3925
19480TIP3    H279932   6.664   5.671   0.036  0.9384 -0.2314 -0.9491
19481TIP3   OH279933   6.218   3.814   4.840 -0.1031 -0.2161 -0.2605
19481TIP3    H179934   6.173   3.895   4.864  3.5192  1.4981  1.0471
19481TIP3    H279935   6.289   3.842   4.783 -0.2199 -2.7836 -1.7160
19482TIP3   OH279936   2.345   2.214  14.682  0.0108 -0.0929 -0.7453
19482TIP3    H179937   2.347   2.230  14.588  0.9113 -0.5083 -0.8094
19482TIP3    H279938   2.435   2.229  14.711 -0.2533  0.0049  0.0448
19483TIP3   OH279939   5.822   5.304   2.136 -0.0721 -0.0870 -0.0576
19483TIP3    H179940   5.768   5.370   2.180 -0.7877 -0.8088  0.1553
19483TIP3    H279941   5.895   5.289   2.196 -1.0828 -1.1180  0.9298
19484TIP3   OH279942   6.350   1.404   0.213  0.5826  0.0992 -1.0993
19484TIP3    H179943   6.410   1.367   0.147  1.0593 -1.0534 -0.0439
19484TIP3    H279944   6.395   1.390   0.296  0.3228  2.2373 -0.5826
19485TIP3   OH279945   0.630   1.667   3.838 -0.6159 -0.2373  0.2371
19485TIP3    H179946   0.725   1.671   3.842 -0.5953 -1.0471  0.5476
19485TIP3    H279947   0.603   1.639   3.925 -1.2571  1.8786  0.7699
19486TIP3   OH279948   3.786   3.635  12.202  0.4313 -0.7207 -0.3936
19486TIP3    H179949   3.840   3.678  12.136  0.5851 -1.0026 -0.4512
19486TIP3    H279950   3.838   3.560  12.231  0.7403 -0.1001  0.6875
19487TIP3   OH279951   6.814   0.867   2.747 -0.0847  0.0812  0.2880
19487TIP3    H179952   6.803   0.961   2.729  1.0457  0.3801  1.0784
19487TIP3    H279953   6.862   0.834   2.671 -0.2216  0.2068  0.1462
19488TIP3   OH279954   0.904   4.054  12.210 -1.0159  0.2403  0.4104
19488TIP3    H179955   0.888   4.096  12.294 -0.9089  0.2673  0.4181
19488TIP3    H279956   0.858   4.109  12.146 -0.4904  0.6345  0.3635
19489TIP3   OH279957   1.585   2.858  16.548 -0.4636  0.6829 -0.3713
19489TIP3    H179958   1.606   2.791  16.483 -1.2242  0.9796 -0.9433
19489TIP3    H279959   1.556   2.809  16.625  0.5285  0.3264 -0.2193
19490TIP3   OH279960   4.459   5.974   5.792  0.1770  0.0666 -0.4416
19490TIP3    H179961   4.554   5.985   5.786  0.0289  1.3772 -0.5986
19490TIP3    H279962   4.424   6.063   5.786 -0.9263 -0.1460  2.1461
19491TIP3   OH279963   2.007   3.400  17.079 -0.4520  0.0348  0.3199
19491TIP3    H179964   2.072   3.454  17.124 -0.3856  0.6484 -0.5004
19491TIP3    H279965   1.957   3.359  17.149  0.7576 -0.3704  0.9703
19492TIP3   OH279966   0.958   1.526   2.439 -0.1910 -0.1811  0.0052
19492TIP3    H179967   0.974   1.591   2.507  0.2754  0.8163 -1.0554
19492TIP3    H279968   1.034   1.468   2.444 -0.3263 -0.3172  0.5614
19493TIP3   OH279969   3.342   1.974  15.930  0.3771 -0.4205  0.0791
19493TIP3    H179970   3.281   2.033  15.974  0.6082  0.0546 -0.2198
19493TIP3    H279971   3.412   1.960  15.994  0.2143 -0.5333  0.2292
19494TIP3   OH279972   4.887   3.197   4.299  0.6638  0.0369  0.0756
19494TIP3    H179973   4.814   3.231   4.350  0.4275  0.1016 -0.3055
19494TIP3    H279974   4.933   3.275   4.269  0.2371  0.0187 -0.6334
19495TIP3   OH279975   2.872   4.509   2.288  0.0876  0.3335  0.3574
19495TIP3    H179976   2.815   4.537   2.360 -0.7581  1.5346 -0.7629
19495TIP3    H279977   2.957   4.548   2.308 -0.0664  0.4222  0.8544
19496TIP3   OH279978   3.736   1.433   5.235  0.2287 -0.3807  0.3194
19496TIP3    H179979   3.763   1.467   5.321 -2.0341  1.9560  0.1738
19496TIP3    H279980   3.665   1.373   5.255 -1.8349  1.8644  0.0090
19497TIP3   OH279981   3.318   4.205  13.202 -0.2657 -0.2441 -0.1492
19497TIP3    H179982   3.231   4.236  13.223  0.1934  0.5467  0.6156
19497TIP3    H279983   3.354   4.175  13.286  0.2980 -0.3062 -0.4064
19498TIP3   OH279984   3.877   0.388   2.704  0.7249  0.5758 -0.8856
19498TIP3    H179985   3.874   0.440   2.623  0.4654  2.0608  0.0714
19498TIP3    H279986   3.969   0.394   2.732  0.4984  1.2311 -0.3007
19499TIP3   OH279987   0.312   3.184  14.689 -0.6517 -0.2318  0.4747
19499TIP3    H179988   0.382   3.151  14.745 -0.4527 -1.4189 -0.4573
19499TIP3    H279989   0.236   3.129  14.709 -0.7055 -0.3660 -0.0825
19500TIP3   OH279990   4.358   4.423   3.527 -0.5616 -0.3585 -0.3193
19500TIP3    H179991   4.430   4.402   3.468  1.1624 -0.9766  1.9442
19500TIP3    H279992   4.289   4.360   3.505  0.3123 -1.0210 -1.1781
19501TIP3   OH279993   4.299   4.462   4.252  0.2904  0.6773  0.0680
19501TIP3    H179994   4.205   4.465   4.268  0.5437  0.2675  1.7155
19501TIP3    H279995   4.312   4.387   4.194 -0.4904  1.2772 -0.8966
19502TIP3   OH279996   2.048   3.080   5.804 -0.0373 -0.1056 -0.4661
19502TIP3    H179997   2.142   3.100   5.796  0.1865 -1.4138 -1.4146
19502TIP3    H279998   2.015   3.087   5.714 -0.1338 -2.9214 -0.6988
19503TIP3   OH279999   1.449   2.893   3.517 -0.0590  0.0526 -0.0790
19503TIP3    H180000   1.495   2.809   3.523 -2.9769 -1.6294 -0.2172
19503TIP3    H280001   1.507   2.948   3.465  0.4773 -2.9606 -2.8526
19504TIP3   OH280002   2.704   4.246  15.270 -0.0522  0.3172 -0.3887
19504TIP3    H180003   2.794   4.240  15.237  0.4613  1.7624  0.6965
19504TIP3    H280004   2.693   4.167  15.323  0.4669 -0.0336 -0.7983
19505TIP3   OH280005   4.296   2.007   1.174 -0.1270  0.5080  0.6364
19505TIP3    H180006   4.295   1.998   1.078  2.7295 -0.8886  0.6990
19505TIP3    H280007   4.338   2.091   1.190  1.5031 -0.2981  0.6836
19506TIP3   OH280008   6.472   4.640   6.158 -0.0361 -0.6657  0.1564
19506TIP3    H180009   6.425   4.723   6.150 -0.5343 -0.8436  1.1611
19506TIP3    H280010   6.426   4.592   6.226  1.9430 -0.6191  1.5751
19507TIP3   OH280011   5.571   1.928   4.248 -0.1141 -0.1150  0.0122
19507TIP3    H180012   5.609   1.944   4.162 -1.6191 -1.6267 -0.9467
19507TIP3    H280013   5.640   1.953   4.310  0.9949  0.9127 -1.6183
19508TIP3   OH280014   0.669   4.690   3.466 -0.5746  0.2219  0.2511
19508TIP3    H180015   0.609   4.765   3.466 -0.1546  0.5707 -0.8008
19508TIP3    H280016   0.612   4.614   3.469 -1.0652  0.5539 -0.6705
19509TIP3   OH280017   4.305   2.274   6.704  0.1101  0.1436 -0.1276
19509TIP3    H180018   4.333   2.222   6.779  0.5483 -0.6791 -0.8601
19509TIP3    H280019   4.285   2.210   6.636 -1.5667  0.8204 -0.2967
19510TIP3   OH280020   5.280   2.964   2.399 -0.8032  0.5440  0.1736
19510TIP3    H180021   5.234   2.940   2.318 -0.5392 -0.6857  0.3654
19510TIP3    H280022   5.311   2.880   2.433  1.0214  1.2840  0.3786
19511TIP3   OH280023   0.944   5.908   3.057  0.1059  0.0409 -0.8562
19511TIP3    H180024   0.969   5.896   2.965 -1.1390 -0.1621 -1.1774
19511TIP3    H280025   1.022   5.945   3.099 -0.4432  3.5749 -2.7524
19512TIP3   OH280026   1.500   4.296   4.415  0.5219 -0.0307  0.1703
19512TIP3    H180027   1.516   4.390   4.407 -0.5187  0.2058  0.7419
19512TIP3    H280028   1.586   4.256   4.404  1.0462  1.0144  0.3836
19513TIP3   OH280029   5.158   3.159  11.864  0.2169 -0.3406 -0.0634
19513TIP3    H180030   5.070   3.141  11.831  0.1394 -0.8988  0.4442
19513TIP3    H280031   5.182   3.080  11.913  1.3624 -0.5578 -0.9529
19514TIP3   OH280032   2.641   5.353   1.002 -0.0668 -0.0412  0.0360
19514TIP3    H180033   2.589   5.433   0.994  1.2211  0.9717  1.2808
19514TIP3    H280034   2.581   5.288   1.036 -0.7764  0.8484  0.5148
19515TIP3   OH280035   6.447   6.149   3.996 -0.6152  0.5578  0.5673
19515TIP3    H180036   6.519   6.153   4.059  0.1083 -1.1632 -0.1013
19515TIP3    H280037   6.383   6.090   4.037 -0.4688  0.0192  0.0337
19516TIP3   OH280038   3.415   5.568   5.757 -0.0433  0.1378  0.1362
19516TIP3    H180039   3.335   5.524   5.787 -0.9204  1.1504 -0.6509
19516TIP3    H280040   3.467   5.498   5.717 -1.8438 -0.0532 -1.9628
19517TIP3   OH280041   2.013   2.704   4.997 -0.2994 -0.4517  0.3114
19517TIP3    H180042   2.066   2.679   5.072 -0.9437 -0.1566  0.8683
19517TIP3    H280043   2.003   2.624   4.946  1.9775 -0.1980 -0.6295
19518TIP3   OH280044   2.304   5.451   1.450  0.0567  0.7398  0.6643
19518TIP3    H180045   2.219   5.493   1.458  0.5374  1.1866  4.0266
19518TIP3    H280046   2.368   5.522   1.458  0.8045 -0.0654  1.9007
19519TIP3   OH280047   2.793   6.384  11.945 -0.1861 -0.1814 -0.0140
19519TIP3    H180048   2.856   6.381  12.018 -0.4677 -1.6288  0.2015
19519TIP3    H280049   2.708   6.364  11.986 -0.5474  0.2735 -0.5351
19520TIP3   OH280050   1.686   2.951  15.206  0.1027  0.2852  0.1536
19520TIP3    H180051   1.701   2.864  15.243  3.0088  1.4713  1.9683
19520TIP3    H280052   1.654   3.003  15.280  1.4969  1.5307 -0.0896
19521TIP3   OH280053   4.522   5.543  13.961 -0.0691 -0.5341 -0.1520
19521TIP3    H180054   4.546   5.590  14.041  1.3881  0.5112 -1.1710
19521TIP3    H280055   4.579   5.466  13.961  0.5281 -0.1056 -0.5712
19522TIP3   OH280056   5.804   5.775  16.685 -0.8355 -0.3542  0.4844
19522TIP3    H180057   5.831   5.827  16.761 -0.3762  1.3781 -0.8329
19522TIP3    H280058   5.709   5.783  16.682 -0.7114  1.0002 -0.1077
19523TIP3   OH280059   0.335   1.111  13.256 -0.5117 -0.6809  0.3657
19523TIP3    H180060   0.385   1.052  13.312  1.5326  1.6896  1.1396
19523TIP3    H280061   0.382   1.111  13.173 -1.3691 -1.2892 -0.1251
19524TIP3   OH280062   1.194   1.839   1.956  0.5936 -0.1326  0.4191
19524TIP3    H180063   1.196   1.881   2.042 -1.1770 -0.3182  0.5651
19524TIP3    H280064   1.233   1.753   1.971  0.1353 -0.2278  1.0661
19525TIP3   OH280065   3.729   6.169   0.101 -0.0153 -0.0932  0.3077
19525TIP3    H180066   3.651   6.129   0.061  1.2601 -0.3385 -2.0525
19525TIP3    H280067   3.694   6.222   0.172 -2.3226 -0.4484 -0.4884
19526TIP3   OH280068   1.624   4.625   1.959 -0.8321  0.8794 -0.2502
19526TIP3    H180069   1.594   4.628   1.869 -0.7048 -1.5121 -0.4063
19526TIP3    H280070   1.678   4.546   1.964 -0.8805  0.9414  1.9301
19527TIP3   OH280071   6.619   0.611  12.757 -1.0617 -0.0775 -0.2433
19527TIP3    H180072   6.565   0.603  12.836 -0.1475  0.1522  0.4148
19527TIP3    H280073   6.661   0.525  12.749  0.4673  0.5700  0.7186
19528TIP3   OH280074   4.900   1.786   2.205 -0.0888 -0.2198 -0.0115
19528TIP3    H180075   4.834   1.851   2.228 -2.2681 -2.7611  1.1319
19528TIP3    H280076   4.877   1.759   2.116 -0.6085 -1.1361  0.4018
19529TIP3   OH280077   4.078   5.025   5.755 -0.0550  0.0288  0.7282
19529TIP3    H180078   4.137   4.950   5.754  0.9469  0.7743  2.2728
19529TIP3    H280079   4.075   5.053   5.846 -1.4476  1.0789  0.3902
19530TIP3   OH280080   2.688   6.327   3.882  0.3534  0.4041 -0.1700
19530TIP3    H180081   2.695   6.239   3.844 -0.3359  0.4613 -0.4333
19530TIP3    H280082   2.664   6.383   3.808  1.6654  0.9732 -0.1855
19531TIP3   OH280083   3.809   5.090   3.313 -0.5011 -0.2833  0.2063
19531TIP3    H180084   3.837   5.071   3.402  0.6548 -0.5727 -0.2150
19531TIP3    H280085   3.817   5.185   3.305  1.3912 -0.4655 -0.2460
19532TIP3   OH280086   2.861   2.788   3.907 -0.2406 -0.6319  0.5976
19532TIP3    H180087   2.950   2.806   3.936 -0.6885  0.3285  1.3678
19532TIP3    H280088   2.872   2.724   3.836  1.0965 -0.0464  0.2678
19533TIP3   OH280089   5.551   1.356  14.840 -0.3028 -0.2036 -0.5425
19533TIP3    H180090   5.490   1.354  14.914  0.4970 -1.9155  0.0817
19533TIP3    H280091   5.638   1.352  14.879  0.1174 -1.9922 -1.5813
19534TIP3   OH280092   0.655   3.675  15.315 -0.1209  1.1064  0.1290
19534TIP3    H180093   0.681   3.742  15.378  0.5114  2.7759 -1.8675
19534TIP3    H280094   0.709   3.692  15.237 -0.1677 -1.5404 -0.5161
19535TIP3   OH280095   5.992   4.067  13.849  0.5780 -0.7573 -0.6594
19535TIP3    H180096   5.916   4.123  13.869  0.8910 -0.0433 -1.4323
19535TIP3    H280097   5.966   3.980  13.879  0.9213  0.1756  2.6230
19536TIP3   OH280098   0.755   0.247  16.249 -0.0733  0.4186  0.3816
19536TIP3    H180099   0.786   0.338  16.247  1.5470 -0.0326  2.5940
19536TIP3    H280100   0.708   0.239  16.331  0.3773 -0.9101  0.5268
19537TIP3   OH280101   3.294   3.403   3.669  0.0189 -0.1627  0.2121
19537TIP3    H180102   3.343   3.388   3.588  1.9745 -0.0818  1.3584
19537TIP3    H280103   3.308   3.324   3.721  0.8697  0.8168  1.5079
19538TIP3   OH280104   2.197   6.445  12.527 -1.2252  0.0820 -0.2422
19538TIP3    H180105   2.288   6.430  12.501 -0.9619  1.4332 -0.1278
19538TIP3    H280106   2.145   6.399  12.460 -0.4564 -2.0206  0.5664
19539TIP3   OH280107   6.349   2.110   3.805  0.4444 -0.5583  0.2855
19539TIP3    H180108   6.357   2.047   3.877  1.6406  0.3418  0.9476
19539TIP3    H280109   6.382   2.192   3.840  0.9139 -0.0646 -1.2408
19540TIP3   OH280110   4.261   4.372   5.195  0.3079  0.0094  0.2277
19540TIP3    H180111   4.242   4.301   5.134 -1.0598  0.6282 -0.0860
19540TIP3    H280112   4.301   4.440   5.141  2.1924 -0.7398  0.6378
19541TIP3   OH280113   6.587   2.814   5.376  0.3638 -0.5064 -0.3488
19541TIP3    H180114   6.526   2.746   5.407 -1.7040  0.2260 -2.5907
19541TIP3    H280115   6.667   2.766   5.354  0.0105 -1.7584  1.0424
19542TIP3   OH280116   6.065   5.271  14.360  0.6166  0.1393 -0.1993
19542TIP3    H180117   6.073   5.176  14.347  0.0995 -0.0114  0.5668
19542TIP3    H280118   6.121   5.309  14.293  1.0260 -0.7177 -0.3465
19543TIP3   OH280119   1.509   6.021  15.269  0.0950  0.3563 -0.3264
19543TIP3    H180120   1.553   6.098  15.307  0.7019 -0.5629  0.8669
19543TIP3    H280121   1.489   6.047  15.179 -0.4716  2.2142  0.3163
19544TIP3   OH280122   4.479   4.069   2.365 -0.3667 -0.0673  0.0755
19544TIP3    H180123   4.409   4.016   2.404 -1.3829 -0.3974 -2.1226
19544TIP3    H280124   4.557   4.049   2.417 -1.6354 -0.5854  1.8265
19545TIP3   OH280125   2.973   0.117   5.654 -0.3529 -0.6825 -0.0633
19545TIP3    H180126   2.984   0.129   5.560  0.8277  0.3603  0.2136
19545TIP3    H280127   2.884   0.148   5.672 -0.3636 -0.3379 -0.7247
19546TIP3   OH280128   4.156   0.495   1.388  0.4717  0.3344 -0.3132
19546TIP3    H180129   4.240   0.451   1.377  0.2015  0.0647 -1.3341
19546TIP3    H280130   4.139   0.535   1.302 -0.6600 -0.0075 -0.2465
19547TIP3   OH280131   3.883   2.994  17.092 -0.4792  0.6438  0.5043
19547TIP3    H180132   3.796   3.024  17.119 -0.0916  1.0963  1.2825
19547TIP3    H280133   3.910   3.056  17.025 -0.4040  1.0272  0.8805
19548TIP3   OH280134   2.677   3.983   3.523 -0.5007  0.2846  0.3882
19548TIP3    H180135   2.589   3.946   3.522 -0.4143  0.0836 -1.2352
19548TIP3    H280136   2.673   4.056   3.462  0.8819 -0.7496 -0.9693
19549TIP3   OH280137   6.011   0.845  11.795  0.1563  0.3521 -0.6101
19549TIP3    H180138   6.029   0.927  11.750  0.2504  0.3321 -0.6085
19549TIP3    H280139   5.952   0.869  11.866  0.3036  0.4417 -0.5191
19550TIP3   OH280140   3.696   5.414   3.534 -0.5963  0.2634 -0.3130
19550TIP3    H180141   3.646   5.437   3.612  0.5017 -0.5076  0.6410
19550TIP3    H280142   3.759   5.486   3.523 -1.0686  0.6165 -0.7961
19551TIP3   OH280143   6.351   3.928   0.704  0.1464 -0.2748 -0.5267
19551TIP3    H180144   6.412   3.918   0.777 -0.6595 -3.2036 -0.1853
19551TIP3    H280145   6.300   3.846   0.703 -2.1495  1.0870 -2.2797
19552TIP3   OH280146   6.044   0.673   2.265 -0.1651 -1.0544  0.4201
19552TIP3    H180147   5.949   0.675   2.258 -0.1364 -1.1866 -0.0224
19552TIP3    H280148   6.072   0.762   2.243 -0.1446 -1.1910 -0.1121
19553TIP3   OH280149   3.345   2.926  14.454  0.3549 -0.3894  0.0391
19553TIP3    H180150   3.355   2.855  14.518 -3.6543  0.4994  1.7615
19553TIP3    H280151   3.354   3.006  14.506  0.8063  0.3856 -1.2123
19554TIP3   OH280152   4.601   3.975  12.534  0.5745  0.3566 -0.7214
19554TIP3    H180153   4.557   3.893  12.514 -1.7215  2.1080 -3.2176
19554TIP3    H280154   4.664   3.987  12.463  2.3822 -0.2197  0.7452
19555TIP3   OH280155   3.514   3.073   5.486  0.1195 -0.2167 -0.1032
19555TIP3    H180156   3.580   3.005   5.476  0.5442  0.0725  0.6744
19555TIP3    H280157   3.515   3.121   5.403  0.6676 -0.4011 -0.2033
19556TIP3   OH280158   3.574   5.088   4.680 -0.0444  0.5751 -0.3495
19556TIP3    H180159   3.621   5.013   4.716  0.9588  0.8814 -1.0228
19556TIP3    H280160   3.531   5.054   4.601 -0.8567  0.3318  0.1866
19557TIP3   OH280161   1.216   5.091  13.113  0.3718  0.0204 -0.5267
19557TIP3    H180162   1.132   5.138  13.110 -0.3421 -1.3065 -1.5070
19557TIP3    H280163   1.255   5.107  13.027 -0.4989 -2.3136 -1.3711
19558TIP3   OH280164   0.134   3.999   4.611 -0.2458  0.7684 -0.0458
19558TIP3    H180165   0.177   3.947   4.679 -3.0724  0.2072  1.4156
19558TIP3    H280166   0.190   4.075   4.600  1.1826  0.0015  1.6810
19559TIP3   OH280167   3.326   4.722   0.967  0.0614  0.1447 -0.3579
19559TIP3    H180168   3.303   4.632   0.944 -0.9359 -0.1830  1.7929
19559TIP3    H280169   3.418   4.717   0.992  0.1650 -0.1629 -0.7935
19560TIP3   OH280170   4.441   4.026   0.111 -0.1885  0.2256 -0.9219
19560TIP3    H180171   4.436   3.977   0.029  0.4729  0.0357 -0.8528
19560TIP3    H280172   4.464   3.960   0.177 -0.3400  0.4457 -0.6459
19561TIP3   OH280173   5.998   0.388  13.178  0.2350  0.1860  0.6134
19561TIP3    H180174   6.028   0.452  13.113  2.0764 -0.8508  0.3929
19561TIP3    H280175   5.904   0.404  13.186  0.4662  2.1681 -0.2495
19562TIP3   OH280176   2.350   5.265   5.395  0.4029  0.4356  0.0417
19562TIP3    H180177   2.349   5.192   5.333  0.6273  0.5531 -0.0988
19562TIP3    H280178   2.404   5.332   5.353 -1.8133  1.6468 -0.9598
19563TIP3   OH280179   3.530   4.638   5.210 -0.1242  0.2089  0.3037
19563TIP3    H180180   3.501   4.671   5.125 -0.7793  0.3011  0.5612
19563TIP3    H280181   3.607   4.691   5.231 -0.8678  1.2217  0.4793
19564TIP3   OH280182   4.505   6.815   4.191  0.6591 -0.6436 -0.1804
19564TIP3    H180183   4.450   6.859   4.256  1.5229  0.0126  0.1044
19564TIP3    H280184   4.569   6.767   4.243  0.3414 -1.4383 -0.5145
19565TIP3   OH280185   5.871   6.628  15.611  0.1168 -0.5654  0.4929
19565TIP3    H180186   5.805   6.648  15.676 -0.6244  0.1018 -0.4500
19565TIP3    H280187   5.898   6.714  15.577 -0.5692 -0.9638 -1.1133
19566TIP3   OH280188   2.729   4.078   3.787 -0.1035 -0.3377 -0.8595
19566TIP3    H180189   2.649   4.065   3.838 -1.5580  1.8562 -2.5410
19566TIP3    H280190   2.705   4.056   3.697  0.8381  1.4630 -1.5850
19567TIP3   OH280191   1.642   4.457   0.119  0.0423  0.6806 -0.0467
19567TIP3    H180192   1.616   4.516   0.049 -0.8038  0.9650  0.5017
19567TIP3    H280193   1.574   4.390   0.122  1.4329 -0.8262 -1.2284
19568TIP3   OH280194   3.379   1.242   6.097 -0.0136 -0.4090  0.1023
19568TIP3    H180195   3.346   1.171   6.152  0.3685  0.3713  1.3646
19568TIP3    H280196   3.470   1.254   6.126 -0.5347  1.6152  1.0004
19569TIP3   OH280197   0.907   2.117  13.398  0.1592 -0.0692  0.1429
19569TIP3    H180198   0.885   2.035  13.355 -0.8696  0.6771 -0.7772
19569TIP3    H280199   0.958   2.166  13.333 -0.6111  0.6806  0.1002
19570TIP3   OH280200   1.103   0.374  13.051 -0.1449 -0.0526 -0.0577
19570TIP3    H180201   1.148   0.408  13.129 -0.5150 -2.0542  1.0525
19570TIP3    H280202   1.105   0.279  13.062 -1.3544 -0.2988 -1.8652
19571TIP3   OH280203   0.359   4.861   6.105  0.4435  0.6840  0.5312
19571TIP3    H180204   0.385   4.782   6.152 -1.8824 -0.6587 -0.3674
19571TIP3    H280205   0.292   4.901   6.161 -1.3824 -0.2149 -1.0075
19572TIP3   OH280206   2.961   6.560   3.603 -0.7781  0.5347  0.3636
19572TIP3    H180207   2.962   6.512   3.686 -1.3315  1.3353  0.8495
19572TIP3    H280208   2.917   6.642   3.625  1.3054  1.8230 -0.1373
19573TIP3   OH280209   6.317   6.496  12.223 -0.3050 -0.0592  0.4452
19573TIP3    H180210   6.304   6.589  12.207 -2.8333 -0.4166  0.2438
19573TIP3    H280211   6.300   6.485  12.317 -0.9222 -0.4620  0.2870
19574TIP3   OH280212   4.821   6.063  14.176  0.0176 -0.4277  0.7731
19574TIP3    H180213   4.747   6.093  14.124  0.2321 -1.5548 -0.2093
19574TIP3    H280214   4.782   6.006  14.242 -0.0973 -0.2215  0.8832
19575TIP3   OH280215   2.864   4.452  16.007 -0.1985  0.3363  0.3692
19575TIP3    H180216   2.935   4.490  16.059  0.5732  0.5406 -0.7953
19575TIP3    H280217   2.790   4.511  16.019  0.6834  1.6685 -0.6133
19576TIP3   OH280218   5.652   4.892  16.259 -0.1889  0.1613  0.2808
19576TIP3    H180219   5.652   4.886  16.163 -0.0429 -2.3807  0.3925
19576TIP3    H280220   5.566   4.928  16.281 -1.2848 -1.7393 -0.7275
19577TIP3   OH280221   3.592   4.274  11.854 -0.4351 -0.3258 -0.1817
19577TIP3    H180222   3.527   4.224  11.902  0.0104 -0.6897  0.0448
19577TIP3    H280223   3.629   4.334  11.920 -0.7425  0.0759 -0.3751
19578TIP3   OH280224   6.124   3.479   5.962  0.3405 -0.4511 -0.5004
19578TIP3    H180225   6.198   3.449   6.015 -0.4606 -0.5178  0.6033
19578TIP3    H280226   6.155   3.560   5.921 -0.6026  2.2611  3.8568
19579TIP3   OH280227   6.005   3.605  11.665  0.1996  0.4126  0.0092
19579TIP3    H180228   5.925   3.655  11.681  0.2228 -0.4020  3.0772
19579TIP3    H280229   6.072   3.650  11.716  1.1650 -0.3199 -0.5958
19580TIP3   OH280230   6.687   2.356   1.218  0.2274 -0.0103  0.0846
19580TIP3    H180231   6.606   2.360   1.166  1.4853  2.4453 -1.8344
19580TIP3    H280232   6.753   2.398   1.162  2.4487 -0.4566  2.2920
19581TIP3   OH280233   1.424   5.680  17.168  0.2292 -0.0195 -0.2232
19581TIP3    H180234   1.517   5.690  17.190  0.2663  0.9209 -0.7790
19581TIP3    H280235   1.397   5.767  17.139 -0.1747 -0.8505 -2.4374
19582TIP3   OH280236   1.240   4.893   3.946 -1.0735 -0.1119  0.6034
19582TIP3    H180237   1.159   4.911   3.899  0.5146  2.1718 -1.3751
19582TIP3    H280238   1.269   4.978   3.978  0.9105 -0.7863  0.6734
19583TIP3   OH280239   1.792   2.167  11.118  0.3668 -0.5623 -0.0734
19583TIP3    H180240   1.869   2.129  11.077  0.1847 -1.6505  0.5679
19583TIP3    H280241   1.827   2.237  11.174  0.9830 -1.6311  0.8971
19584TIP3   OH280242   1.251   0.879  15.822 -0.3158  0.2360  0.5029
19584TIP3    H180243   1.194   0.814  15.780 -0.9180 -0.1152  1.8476
19584TIP3    H280244   1.204   0.904  15.902 -0.2287  2.5368 -0.1294
19585TIP3   OH280245   2.862   1.213   4.673  0.7029 -0.7384 -0.6040
19585TIP3    H180246   2.848   1.259   4.590 -2.7590 -1.3967 -0.4358
19585TIP3    H280247   2.948   1.172   4.663  0.9942  0.3966 -3.2772
19586TIP3   OH280248   5.725   4.245   0.922  0.4191 -0.0690 -0.5220
19586TIP3    H180249   5.795   4.259   0.986  0.6858 -1.4994 -0.4867
19586TIP3    H280250   5.745   4.159   0.883 -0.9018 -0.1489 -1.0359
19587TIP3   OH280251   5.174   4.708  14.625 -0.0076  0.1618 -0.1464
19587TIP3    H180252   5.118   4.784  14.642  2.3051  2.3699 -1.9180
19587TIP3    H280253   5.156   4.685  14.534 -1.5415 -2.2432  0.7004
19588TIP3   OH280254   0.880   0.122   1.698  0.0695  0.4757 -0.2696
19588TIP3    H180255   0.810   0.072   1.656  0.2306  0.0249  0.0022
19588TIP3    H280256   0.835   0.190   1.748 -0.1706  0.2236 -0.1446
19589TIP3   OH280257   3.129   3.764   0.564 -0.2567 -0.0611 -0.0716
19589TIP3    H180258   3.082   3.681   0.554  0.3476 -0.4018 -0.1457
19589TIP3    H280259   3.172   3.757   0.649 -0.9530  0.5645  0.3375
19590TIP3   OH280260   2.961   3.611  12.361 -0.4680 -0.4987  0.6300
19590TIP3    H180261   2.942   3.524  12.326 -2.2372 -0.1857  0.7568
19590TIP3    H280262   2.998   3.594  12.448  1.8129 -1.1964 -0.4262
19591TIP3   OH280263   4.560   1.423  13.371 -0.6946  0.1039  0.1440
19591TIP3    H180264   4.485   1.470  13.334 -1.7039 -1.4890  0.1185
19591TIP3    H280265   4.633   1.447  13.315 -1.4126  0.8044 -0.5050
19592TIP3   OH280266   4.513   4.484   5.374  0.3594  0.3494 -0.3313
19592TIP3    H180267   4.523   4.411   5.313 -0.9042  1.8811 -2.4335
19592TIP3    H280268   4.497   4.560   5.318  0.3461  2.0138  1.8710
19593TIP3   OH280269   0.908   1.758  13.014 -0.9548  0.0133  0.3737
19593TIP3    H180270   0.994   1.737  12.975 -1.0865 -0.9793  0.6127
19593TIP3    H280271   0.855   1.788  12.940 -0.1283  1.5329  0.3689
19594TIP3   OH280272   1.421   0.839  14.215  0.1743 -0.4480 -0.2514
19594TIP3    H180273   1.425   0.830  14.310  3.5335  0.2599 -0.2588
19594TIP3    H280274   1.437   0.751  14.181 -0.2159 -0.5483 -0.1807
19595TIP3   OH280275   0.194   5.525  15.713 -0.1342  0.2189 -0.1937
19595TIP3    H180276   0.100   5.518  15.731 -0.4640  0.6849 -1.6793
19595TIP3    H280277   0.199   5.575  15.632  1.4629  1.2714  0.5360
19596TIP3   OH280278   6.811   3.270   5.743  0.0081 -0.2611  0.7846
19596TIP3    H180279   6.872   3.281   5.670 -0.3495  0.3896  0.5801
19596TIP3    H280280   6.851   3.201   5.797  1.4026  0.8058  1.1554
19597TIP3   OH280281   4.206   2.090  12.401 -0.1133 -0.3040  0.0021
19597TIP3    H180282   4.150   2.095  12.479  1.8727  1.1812  1.4154
19597TIP3    H280283   4.238   2.180  12.389  3.7138 -1.4942  0.6342
19598TIP3   OH280284   0.485   6.752   0.781  0.3854  0.0567 -0.2692
19598TIP3    H180285   0.446   6.673   0.819 -0.9321  0.0249 -1.6297
19598TIP3    H280286   0.491   6.733   0.688 -3.1593  2.8013 -1.1763
19599TIP3   OH280287   0.700   0.142   0.344  0.4928  0.2539  0.4521
19599TIP3    H180288   0.681   0.049   0.359 -2.6644  0.1581 -3.2202
19599TIP3    H280289   0.784   0.143   0.299  0.0486 -0.9316 -0.4142
19600TIP3   OH280290   5.887   0.747   3.891  0.0438 -0.4003  0.6319
19600TIP3    H180291   5.940   0.686   3.942  1.5853 -0.1574 -0.6394
19600TIP3    H280292   5.950   0.805   3.850 -0.9612 -1.9274 -3.2975
19601TIP3   OH280293   4.616   1.584   2.131 -0.3905  0.2079 -0.0418
19601TIP3    H180294   4.681   1.632   2.079 -0.2773  0.8792  0.7206
19601TIP3    H280295   4.657   1.499   2.149 -1.3746 -0.9838 -3.0824
19602TIP3   OH280296   0.498   5.071   4.934 -0.4944  0.9166  0.0818
19602TIP3    H180297   0.558   5.094   5.005 -0.4024  1.1761 -0.0778
19602TIP3    H280298   0.548   5.087   4.854 -0.2826 -0.2664 -0.0293
19603TIP3   OH280299   5.859   6.369   2.127  0.0928 -0.0932  0.0271
19603TIP3    H180300   5.849   6.290   2.180 -0.0626 -0.3479 -0.3814
19603TIP3    H280301   5.946   6.359   2.087 -0.6281 -0.8794 -1.3768
19604TIP3   OH280302   0.058   3.181   2.648  0.5390 -0.1803 -0.3421
19604TIP3    H180303   0.022   3.156   2.563  1.0107 -1.2882 -0.2197
19604TIP3    H280304   0.153   3.182   2.635  0.6770 -1.4501  0.4532
19605TIP3   OH280305   2.369   0.935   4.401 -0.4546  0.2360 -0.3841
19605TIP3    H180306   2.333   0.916   4.487  1.5534 -0.0034  0.4380
19605TIP3    H280307   2.414   1.019   4.411  0.0813  0.0453 -1.1031
19606TIP3   OH280308   1.110   2.473   4.184 -0.2065  0.3850 -0.0535
19606TIP3    H180309   1.025   2.507   4.211 -0.8831 -0.7283 -0.7420
19606TIP3    H280310   1.157   2.550   4.151 -1.0136  0.9738  0.1439
19607TIP3   OH280311   1.569   0.904   1.482  0.2342 -0.1908  0.0258
19607TIP3    H180312   1.604   0.820   1.509  0.5573 -0.6530 -1.7503
19607TIP3    H280313   1.485   0.884   1.442  0.6325  0.2265 -1.0492
19608TIP3   OH280314   0.890   3.220  13.511 -0.1702 -0.6249  0.2250
19608TIP3    H180315   0.930   3.219  13.424  1.5015  2.2867  0.8916
19608TIP3    H280316   0.941   3.157  13.562  0.2999 -0.6649 -0.2945
19609TIP3   OH280317   2.987   0.223  15.945 -0.2434  0.3041  0.5210
19609TIP3    H180318   2.997   0.151  16.007  0.5611  0.2272  0.2989
19609TIP3    H280319   2.908   0.269  15.975  0.5108  0.6507  1.9837
19610TIP3   OH280320   1.293   4.419  15.721 -0.0090 -0.9395  0.0552
19610TIP3    H180321   1.293   4.330  15.757 -0.9366 -1.0810 -0.2570
19610TIP3    H280322   1.238   4.469  15.781  0.0897 -0.7020 -0.0535
19611TIP3   OH280323   6.428   5.534  10.825  0.0079 -0.8305 -0.3922
19611TIP3    H180324   6.397   5.611  10.777  0.0370 -1.3856 -1.3079
19611TIP3    H280325   6.522   5.531  10.808  0.3156 -0.0432  1.1153
19612TIP3   OH280326   5.122   0.557  12.907 -0.1116 -0.2898 -0.5987
19612TIP3    H180327   5.100   0.551  13.000 -0.0439  0.9753 -0.4940
19612TIP3    H280328   5.151   0.647  12.895  1.0218 -0.7736 -1.6020
19613TIP3   OH280329   3.544   0.116   1.336 -0.2856  0.5232 -0.0899
19613TIP3    H180330   3.480   0.180   1.369 -0.7764 -0.2351  0.4325
19613TIP3    H280331   3.583   0.078   1.415  1.0930  1.2527 -0.4042
19614TIP3   OH280332   5.788   2.402   3.070 -0.1595  0.5384  0.2336
19614TIP3    H180333   5.785   2.478   3.012  0.2188  1.6429  1.6171
19614TIP3    H280334   5.733   2.427   3.145  0.5698 -0.2304  1.0463
19615TIP3   OH280335   0.876   4.794  15.742  0.8536 -0.4230  0.4094
19615TIP3    H180336   0.912   4.708  15.763  0.9645 -1.0541 -2.2153
19615TIP3    H280337   0.852   4.788  15.650 -1.1970  1.6570  0.7620
19616TIP3   OH280338   3.623   3.245  14.246  0.2293  0.5226  0.2723
19616TIP3    H180339   3.646   3.338  14.241  2.4103  0.0277  0.4263
19616TIP3    H280340   3.686   3.203  14.187 -0.4197 -0.9010  0.5970
19617TIP3   OH280341   1.724   4.362   1.945 -0.3203 -0.2329 -0.2762
19617TIP3    H180342   1.748   4.309   1.869 -1.0830 -0.4207 -0.3940
19617TIP3    H280343   1.757   4.313   2.020 -0.7026 -0.6976 -0.4100
19618TIP3   OH280344   0.739   5.682   4.377  0.2743 -0.6281 -0.1965
19618TIP3    H180345   0.773   5.706   4.463 -0.1460  1.2648 -0.5308
19618TIP3    H280346   0.808   5.710   4.316  0.5953 -2.0138 -0.4800
19619TIP3   OH280347   4.490   1.676  11.724 -0.2920  0.1446  0.2189
19619TIP3    H180348   4.545   1.733  11.778 -1.0254  0.2268  0.8780
19619TIP3    H280349   4.423   1.734  11.688 -0.7054 -0.1970  0.4371
19620TIP3   OH280350   6.466   0.280   0.597 -0.0057  0.6688  0.0530
19620TIP3    H180351   6.547   0.327   0.575 -0.7520  1.7506 -0.3996
19620TIP3    H280352   6.405   0.303   0.527 -0.5555 -0.5556  0.1147
19621TIP3   OH280353   2.915   5.820  14.780  0.2151  0.3342  0.6036
19621TIP3    H180354   2.943   5.736  14.816 -1.8959 -0.8092 -0.3719
19621TIP3    H280355   2.840   5.846  14.834  0.1924  1.0769  0.2250
19622TIP3   OH280356   1.237   6.122   0.488 -0.3472  0.4154  0.3831
19622TIP3    H180357   1.240   6.037   0.446 -0.1325 -0.0687  1.3612
19622TIP3    H280358   1.151   6.126   0.530  0.0920  0.1867  1.3280
19623TIP3   OH280359   4.061   6.703   0.947  0.1682 -0.3279 -0.2432
19623TIP3    H180360   4.070   6.643   0.873  0.5094 -0.3897 -0.1505
19623TIP3    H280361   3.966   6.716   0.955  0.2165  1.4982 -2.1332
19624TIP3   OH280362   2.836   6.366   1.100  0.6714 -0.0597  0.2621
19624TIP3    H180363   2.846   6.273   1.081  0.0007  0.0812 -0.7951
19624TIP3    H280364   2.824   6.407   1.014 -2.5758  0.5661  0.9618
19625TIP3   OH280365   3.192   1.697   0.254 -1.0301 -1.1304  0.9819
19625TIP3    H180366   3.120   1.708   0.192  0.8715  2.3793 -0.7283
19625TIP3    H280367   3.241   1.621   0.220 -0.8882 -0.1941 -0.9469
19626TIP3   OH280368   2.565   6.147   5.831  0.7281  0.0084 -0.2104
19626TIP3    H180369   2.569   6.063   5.785  0.2156  0.8036 -1.7482
19626TIP3    H280370   2.487   6.141   5.885  0.2036 -0.2056 -0.9732
19627TIP3   OH280371   6.720   3.696  14.586  0.2289 -0.5943  0.5830
19627TIP3    H180372   6.715   3.791  14.582  1.2023 -0.6052 -1.2149
19627TIP3    H280373   6.687   3.666  14.502  0.5588 -1.8172  0.8746
19628TIP3   OH280374   2.845   5.927  12.875 -0.2023 -0.1065 -0.1184
19628TIP3    H180375   2.929   5.893  12.907  1.4799 -0.6320 -4.6762
19628TIP3    H280376   2.841   6.016  12.909  0.3275 -1.3211  3.3166
19629TIP3   OH280377   5.980   2.084  16.510  0.3683 -0.3186  0.2960
19629TIP3    H180378   6.051   2.116  16.455  0.5253 -0.3707  0.4697
19629TIP3    H280379   5.951   2.003  16.468  0.1916 -0.1244  0.0427
19630TIP3   OH280380   2.264   1.003   4.909 -0.2630  0.0068 -0.1787
19630TIP3    H180381   2.181   1.046   4.930 -0.1813  0.0826 -0.0116
19630TIP3    H280382   2.307   0.991   4.993 -0.1055 -0.0377 -0.2655
19631TIP3   OH280383   1.144   1.025  10.802 -0.2241 -0.0437  0.1053
19631TIP3    H180384   1.205   1.083  10.848  0.9504 -0.4816 -0.8489
19631TIP3    H280385   1.072   1.083  10.775  0.4309  0.7742  0.0672
19632TIP3   OH280386   2.357   6.197  13.943  0.1865 -0.6340  0.5814
19632TIP3    H180387   2.297   6.270  13.961 -0.1274 -1.0360  1.1827
19632TIP3    H280388   2.417   6.197  14.018  1.2891  0.1140 -0.2870
19633TIP3   OH280389   5.561   0.522   4.011 -0.0999 -0.3525 -0.3001
19633TIP3    H180390   5.588   0.434   4.036  2.0684 -0.1201 -1.7018
19633TIP3    H280391   5.543   0.515   3.917 -2.1702  0.1943  0.0238
19634TIP3   OH280392   1.712   6.452   1.215  0.0708 -0.0995 -0.4597
19634TIP3    H180393   1.740   6.531   1.260  0.0356  0.2184 -1.0012
19634TIP3    H280394   1.793   6.406   1.193  0.1179  0.1699 -0.8460
19635TIP3   OH280395   0.597   5.887   5.955 -0.3276 -0.3108  0.3915
19635TIP3    H180396   0.605   5.797   5.987 -0.1603 -0.6677 -0.6286
19635TIP3    H280397   0.524   5.884   5.894  1.1264 -0.2733 -1.4023
19636TIP3   OH280398   4.087   3.197   4.605 -0.7272  0.3944  0.1355
19636TIP3    H180399   4.116   3.113   4.641  2.5497  0.8375 -1.2629
19636TIP3    H280400   4.081   3.182   4.511 -0.3067  1.6610 -0.1040
19637TIP3   OH280401   0.942   5.966   1.075  0.5559  0.3642  0.3125
19637TIP3    H180402   1.023   5.938   1.117  1.1242  0.9350 -0.3978
19637TIP3    H280403   0.967   6.039   1.019 -0.1923 -0.3774 -1.0212
19638TIP3   OH280404   3.619   2.521   1.120  0.3784  0.2912 -0.3201
19638TIP3    H180405   3.524   2.532   1.131  0.5830  1.4841  0.2580
19638TIP3    H280406   3.628   2.431   1.088 -0.9949  0.3745 -1.0196
19639TIP3   OH280407   4.620   2.575  10.607  0.0199  0.5585 -0.2696
19639TIP3    H180408   4.648   2.660  10.570 -0.7896  0.7158 -0.5331
19639TIP3    H280409   4.611   2.592  10.700 -2.7434  1.4912 -0.6728
19640TIP3   OH280410   2.415   0.740  14.647 -0.1987  0.1245  0.0628
19640TIP3    H180411   2.503   0.732  14.611 -0.5593  2.1359 -1.3322
19640TIP3    H280412   2.412   0.828  14.684 -1.7535  0.2275 -0.2884
19641TIP3   OH280413   6.469   3.134   2.019  0.1972 -0.6158 -0.1894
19641TIP3    H180414   6.438   3.201   1.959  2.8846  0.6147 -0.2583
19641TIP3    H280415   6.498   3.062   1.963  2.0224  0.2360 -0.3652
19642TIP3   OH280416   5.855   6.329   5.940  0.0102  0.2536 -0.1782
19642TIP3    H180417   5.806   6.374   6.009 -1.3184 -0.0426 -0.9050
19642TIP3    H280418   5.918   6.274   5.987 -2.7290 -2.0710  0.9274
19643TIP3   OH280419   4.272   2.429  12.292 -0.1038  0.2688 -0.1869
19643TIP3    H180420   4.341   2.383  12.339 -0.5623  1.0699  1.2959
19643TIP3    H280421   4.295   2.522  12.302 -0.0676  0.4440 -1.7696
19644TIP3   OH280422   3.465   2.739  14.041  0.0552 -0.0640 -0.3241
19644TIP3    H180423   3.488   2.780  13.957 -0.0088  0.5246 -0.0551
19644TIP3    H280424   3.417   2.660  14.016 -1.6571  1.1062 -0.8325
19645TIP3   OH280425   6.106   0.890   3.804 -0.2163  0.2882  0.0567
19645TIP3    H180426   6.155   0.823   3.757 -1.5722 -1.4946  1.1203
19645TIP3    H280427   6.166   0.965   3.809  2.7268 -2.0626  1.9259
19646TIP3   OH280428   5.085   3.304  14.731  0.0476 -0.4625 -0.2475
19646TIP3    H180429   5.048   3.294  14.644 -1.6886 -0.0015  0.4234
19646TIP3    H280430   5.022   3.262  14.789  1.1508 -0.6926  0.7996
19647TIP3   OH280431   3.747   4.878  16.451 -0.1563  0.0016 -0.3392
19647TIP3    H180432   3.722   4.844  16.365  0.0331 -1.2945  0.1027
19647TIP3    H280433   3.825   4.828  16.474 -0.4522  0.0427  0.7763
19648TIP3   OH280434   5.853   0.122  17.058  0.0257  0.2386 -0.5533
19648TIP3    H180435   5.936   0.082  17.085  0.7078  1.9479  0.0012
19648TIP3    H280436   5.788   0.053  17.068  1.3708 -1.0955 -0.8750
19649TIP3   OH280437   4.620   5.616   2.662  0.1232 -0.0234 -0.0182
19649TIP3    H180438   4.631   5.645   2.572  0.5388  0.3657  0.1556
19649TIP3    H280439   4.641   5.693   2.715 -3.4470  0.7546  0.3632
19650TIP3   OH280440   0.067   0.395   1.496  0.0190 -0.0850 -0.2949
19650TIP3    H180441   0.001   0.377   1.428 -0.2511  0.8410 -0.2833
19650TIP3    H280442   0.151   0.380   1.452 -0.1797 -0.8569 -0.4306
19651TIP3   OH280443   1.734   4.191   5.333 -0.5755  0.5870  0.1522
19651TIP3    H180444   1.743   4.106   5.376 -1.7211  0.2325 -0.2942
19651TIP3    H280445   1.687   4.245   5.396  1.8396  1.5104  1.2375
19652TIP3   OH280446   2.788   3.640   2.402  0.8181  0.7828  0.3924
19652TIP3    H180447   2.699   3.607   2.386  1.2389 -0.1137 -0.1904
19652TIP3    H280448   2.778   3.704   2.473 -0.0820 -0.3612  1.3212
19653TIP3   OH280449   2.201   4.645   5.813 -0.1402 -0.2203 -0.0729
19653TIP3    H180450   2.162   4.699   5.744 -0.2194  0.3799  0.4417
19653TIP3    H280451   2.287   4.621   5.778  1.1045  2.6253  0.8625
19654TIP3   OH280452   0.142   3.358  16.254 -0.0460 -0.5164 -0.6946
19654TIP3    H180453   0.207   3.406  16.204 -1.0773 -0.4604 -2.0261
19654TIP3    H280454   0.140   3.401  16.339  0.9436  0.0964 -0.9765
19655TIP3   OH280455   3.848   3.920   3.137  0.3832 -0.4409 -0.4946
19655TIP3    H180456   3.819   3.954   3.052  0.3244  0.5481 -0.0773
19655TIP3    H280457   3.783   3.953   3.200  1.6145  0.6112  0.2444
19656TIP3   OH280458   1.897   3.640  13.142 -0.2093 -0.6573 -0.6750
19656TIP3    H180459   1.916   3.639  13.048  1.4618  0.0180 -0.3759
19656TIP3    H280460   1.807   3.608  13.149 -0.8630  0.6507 -2.6115
19657TIP3   OH280461   4.246   5.161  15.339  0.0186  0.1068 -0.1240
19657TIP3    H180462   4.203   5.241  15.308  0.7722  0.0238 -1.4441
19657TIP3    H280463   4.220   5.094  15.275 -0.8452 -0.7721  1.1382
19658TIP3   OH280464   6.144   2.555   5.788  0.2516 -0.5420  0.9346
19658TIP3    H180465   6.056   2.530   5.815  0.0171 -0.3666  0.3298
19658TIP3    H280466   6.160   2.503   5.709  0.0933  0.5679  0.1567
19659TIP3   OH280467   4.093   4.293   3.530  0.4945  0.0605 -0.2145
19659TIP3    H180468   4.111   4.214   3.582  0.6290  0.8188  0.9082
19659TIP3    H280469   4.004   4.318   3.554  0.3173  0.0423 -0.8464
19660TIP3   OH280470   0.919   3.389  13.875 -0.1407 -0.7294  0.1605
19660TIP3    H180471   0.825   3.389  13.854  0.2519 -0.1114 -1.7131
19660TIP3    H280472   0.955   3.458  13.820  1.4284 -0.9629  0.8854
19661TIP3   OH280473   0.045   5.260   1.532 -0.1043 -0.1170 -0.0145
19661TIP3    H180474   0.086   5.336   1.573 -0.0938 -0.1067 -0.0436
19661TIP3    H280475  -0.036   5.294   1.493 -1.0547 -0.4868  1.6086
19662TIP3   OH280476   5.580   4.502   4.167  0.4606 -0.1950 -0.2260
19662TIP3    H180477   5.644   4.565   4.200 -0.1260 -0.2940  1.1611
19662TIP3    H280478   5.513   4.499   4.235 -0.0887 -1.4690 -0.8098
19663TIP3   OH280479   1.175   6.131   5.424 -0.5083 -0.0731 -0.2209
19663TIP3    H180480   1.264   6.163   5.416 -0.6316  0.1204 -0.8228
19663TIP3    H280481   1.144   6.167   5.508  0.1554 -0.5859  0.2441
19664TIP3   OH280482   2.126   1.889  14.733 -0.3590 -0.4428  0.0527
19664TIP3    H180483   2.211   1.856  14.701 -0.8645  0.0813 -1.8800
19664TIP3    H280484   2.113   1.971  14.685 -0.8127  0.7491  2.1795
19665TIP3   OH280485   6.370   2.098  12.391  0.1640  0.4917 -0.3576
19665TIP3    H180486   6.393   2.107  12.483  1.7305  0.0960 -0.6927
19665TIP3    H280487   6.288   2.146  12.382 -0.7441 -0.6553  1.5238
19666TIP3   OH280488   4.564   4.645   1.479 -0.3183 -0.0425  0.2089
19666TIP3    H180489   4.495   4.578   1.477 -0.4277  0.0203  1.5413
19666TIP3    H280490   4.644   4.596   1.493 -0.5453  0.1869  2.4859
19667TIP3   OH280491   2.983   3.685  15.155 -0.2029  0.2403 -0.3535
19667TIP3    H180492   2.917   3.658  15.092 -1.6818  0.4075  1.1069
19667TIP3    H280493   3.016   3.603  15.192 -0.0615  0.1923 -0.5797
19668TIP3   OH280494   6.359   5.803  16.220  0.5987  0.0113 -0.1571
19668TIP3    H180495   6.401   5.771  16.300  1.9943 -1.8703 -1.5833
19668TIP3    H280496   6.432   5.817  16.159 -0.2837  2.9750 -0.6154
19669TIP3   OH280497   5.330   0.786  12.646 -0.4025  0.2790 -0.3346
19669TIP3    H180498   5.348   0.786  12.740  1.3239 -1.0272 -0.6402
19669TIP3    H280499   5.238   0.761  12.640 -0.2374 -0.7419  0.9774
19670TIP3   OH280500   2.244   1.209   3.024 -0.1883  0.0936  0.0426
19670TIP3    H180501   2.298   1.149   2.973 -0.3115  0.2043 -0.2191
19670TIP3    H280502   2.174   1.155   3.059  0.1559 -0.0731  0.4773
19671TIP3   OH280503   6.796   1.133   2.756 -0.0916 -0.3063 -0.0598
19671TIP3    H180504   6.705   1.147   2.729  0.0007  0.7463  0.1511
19671TIP3    H280505   6.845   1.202   2.712  1.0856 -2.6454 -2.5749
19672TIP3   OH280506   6.244   2.371   0.333 -0.7832  0.7718  0.2217
19672TIP3    H180507   6.170   2.379   0.272 -0.4448  0.3443 -0.2518
19672TIP3    H280508   6.312   2.329   0.281 -0.5113  0.3508  0.9188
19673TIP3   OH280509   0.023   3.866   3.672 -0.3257  0.3635  0.0869
19673TIP3    H180510  -0.023   3.929   3.728  0.4960  1.1462 -0.0918
19673TIP3    H280511   0.025   3.908   3.586 -0.0705 -0.0578 -0.1138
19674TIP3   OH280512   6.672   5.419   3.720  0.1519  0.0283  0.0452
19674TIP3    H180513   6.669   5.333   3.761 -0.1506 -0.5668 -1.2000
19674TIP3    H280514   6.581   5.440   3.700  0.4299 -0.4846 -1.9023
19675TIP3   OH280515   0.503   2.991  15.268 -0.0421 -0.2609 -0.4104
19675TIP3    H180516   0.540   3.038  15.344 -0.9772 -0.9838  0.5117
19675TIP3    H280517   0.413   2.972  15.294 -0.4718 -0.2223 -1.8581
19676TIP3   OH280518   0.490   0.744  17.148 -0.3134 -0.1493 -0.1215
19676TIP3    H180519   0.418   0.756  17.086 -0.3372  0.1379 -0.0382
19676TIP3    H280520   0.554   0.691  17.100  0.2737  1.2350 -0.8886
19677TIP3   OH280521   4.938   0.095   0.890  0.1044  0.4783  0.4591
19677TIP3    H180522   5.016   0.143   0.919  0.3364  1.0075 -0.9820
19677TIP3    H280523   4.908   0.049   0.968  0.9624  1.5006  1.4196
19678TIP3   OH280524   4.210   4.984  16.718  0.1555  0.2160 -1.1485
19678TIP3    H180525   4.239   5.053  16.776 -0.8217  0.5476 -1.0356
19678TIP3    H280526   4.233   5.014  16.630 -2.5056  1.8949 -1.3414
19679TIP3   OH280527   2.946   2.184   2.920  0.3603 -0.3224 -0.4846
19679TIP3    H180528   2.887   2.257   2.898  0.7309 -0.0484 -0.5725
19679TIP3    H280529   2.906   2.108   2.878 -0.9845 -0.5028  1.0844
19680TIP3   OH280530   6.365   1.131  13.436 -0.1994  0.0977 -0.1527
19680TIP3    H180531   6.369   1.075  13.358  1.5950  0.1821 -0.1521
19680TIP3    H280532   6.456   1.155  13.452 -0.4903 -0.3529  2.3051
19681TIP3   OH280533   6.057   4.059   3.722 -0.0500  0.8005 -0.3816
19681TIP3    H180534   6.080   4.051   3.630 -0.0918  0.1884 -0.3394
19681TIP3    H280535   6.130   4.018   3.769 -0.4386  0.3312 -0.1824
19682TIP3   OH280536   6.610   4.398   1.790  0.1499 -0.3575  0.5015
19682TIP3    H180537   6.699   4.392   1.823  0.6574 -0.7561 -0.9197
19682TIP3    H280538   6.615   4.463   1.720 -1.3216  2.0172  2.5022
19683TIP3   OH280539   0.302   6.313   1.369 -0.4904 -0.0249  0.5950
19683TIP3    H180540   0.285   6.257   1.444  0.7801  1.9468  2.4153
19683TIP3    H280541   0.222   6.310   1.317 -1.0256 -2.1919  1.5184
19684TIP3   OH280542   2.299   4.576   1.253 -0.0769 -0.1552  0.2023
19684TIP3    H180543   2.295   4.553   1.346 -1.3230 -0.9910 -0.0542
19684TIP3    H280544   2.220   4.627   1.237  0.2616  0.2032 -0.3440
19685TIP3   OH280545   2.227   4.137  14.870  0.2631  0.2184 -0.1306
19685TIP3    H180546   2.232   4.078  14.795 -2.3593 -1.4872  0.9251
19685TIP3    H280547   2.300   4.111  14.926  1.4697  0.6495 -1.4872
19686TIP3   OH280548   2.965   0.750   6.771 -0.6668 -0.2164 -0.1266
19686TIP3    H180549   2.984   0.782   6.859  2.5401  1.0874 -1.2208
19686TIP3    H280550   2.922   0.824   6.728  3.4319  1.5164 -1.5108
19687TIP3   OH280551   4.262   1.325  12.968  0.0212  0.2164 -0.1324
19687TIP3    H180552   4.264   1.345  12.874  1.6053  0.5327 -0.0451
19687TIP3    H280553   4.187   1.373  13.001  0.3855  1.3953 -0.9657
19688TIP3   OH280554   4.265   2.397  15.233 -0.0934 -0.4384 -0.3020
19688TIP3    H180555   4.347   2.437  15.204  0.4808 -1.4951 -0.1502
19688TIP3    H280556   4.227   2.362  15.153  0.9882 -2.4369  0.0168
19689TIP3   OH280557   6.726   3.857  14.896 -0.3503 -0.4147 -0.2926
19689TIP3    H180558   6.650   3.809  14.862 -1.5936  0.9222  0.5131
19689TIP3    H280559   6.706   3.949  14.877 -0.0219  0.1552  1.9881
19690TIP3   OH280560   0.857   4.212   5.548 -0.3107  0.2769  0.1016
19690TIP3    H180561   0.768   4.214   5.515  0.2945  1.6577 -1.5256
19690TIP3    H280562   0.890   4.125   5.523 -1.1843 -0.2350  0.7126
19691TIP3   OH280563   1.339   3.313   3.669  0.5795 -0.5736  0.3447
19691TIP3    H180564   1.332   3.222   3.696  1.0815 -0.0380  2.4137
19691TIP3    H280565   1.296   3.362   3.739 -0.6177  0.7175 -1.2601
19692TIP3   OH280566   3.956   2.576   2.559  0.6299 -0.6992 -0.3377
19692TIP3    H180567   3.900   2.613   2.491  1.0501  0.2388 -0.1879
19692TIP3    H280568   3.978   2.651   2.615  2.0509 -1.0449 -0.4036
19693TIP3   OH280569   1.039   3.551   2.484 -0.1775 -0.1370  0.3488
19693TIP3    H180570   0.984   3.628   2.468  1.8034  0.8420 -2.1374
19693TIP3    H280571   0.979   3.477   2.473 -2.4003  0.9908  4.0033
19694TIP3   OH280572   1.280   5.072  16.552 -0.0436  0.3788 -0.4809
19694TIP3    H180573   1.186   5.054  16.551 -0.0677  0.4594  0.2753
19694TIP3    H280574   1.289   5.148  16.495 -1.0693  3.2631  2.9644
19695TIP3   OH280575   2.878   0.890  12.663 -0.1485 -0.3600  0.4891
19695TIP3    H180576   2.860   0.883  12.757 -0.2286 -0.6461  0.4522
19695TIP3    H280577   2.895   0.983  12.649 -0.3617 -0.2803  0.7466
19696TIP3   OH280578   3.974   2.797   4.148  0.1161 -0.3504 -0.3891
19696TIP3    H180579   4.012   2.725   4.097  0.4888  0.5880 -1.4457
19696TIP3    H280580   4.038   2.868   4.142  0.0540 -0.1372  1.1961
19697TIP3   OH280581   3.963   6.707  16.741  0.1142 -0.4913  0.0792
19697TIP3    H180582   3.977   6.770  16.670 -0.0086 -0.7916 -0.2145
19697TIP3    H280583   3.969   6.758  16.821  3.6956 -0.7122  0.0454
19698TIP3   OH280584   0.798   0.103   5.591 -0.3077 -0.0404 -0.7072
19698TIP3    H180585   0.873   0.113   5.533  0.0727 -0.2035 -0.2421
19698TIP3    H280586   0.823   0.033   5.651  0.2112  1.6580  1.1086
19699TIP3   OH280587   6.698   3.818   3.329 -0.0980  0.1799  0.0819
19699TIP3    H180588   6.634   3.848   3.264  0.5482 -1.3769 -1.2894
19699TIP3    H280589   6.650   3.754   3.382  0.2156 -0.7389 -0.7353
19700TIP3   OH280590   5.413   0.650  11.759 -0.5376 -0.5352 -0.3020
19700TIP3    H180591   5.372   0.696  11.686  0.5935 -0.4134 -0.8764
19700TIP3    H280592   5.387   0.559  11.747 -2.2643 -0.1710  0.4853
19701TIP3   OH280593   0.172   4.418   5.256 -0.2167  0.6176  0.0616
19701TIP3    H180594   0.263   4.393   5.275  0.6775  3.2523 -0.5370
19701TIP3    H280595   0.147   4.474   5.329 -1.8312 -1.0398  0.8430
19702TIP3   OH280596   3.579   4.694  12.335  0.8793  0.2751  0.4535
19702TIP3    H180597   3.570   4.607  12.296  1.5061  0.4475 -0.0847
19702TIP3    H280598   3.508   4.700  12.398  1.4425 -1.0286  1.2263
19703TIP3   OH280599   1.015   4.801  14.124 -0.2398 -0.1931 -0.2404
19703TIP3    H180600   0.968   4.844  14.195 -2.0483 -0.5410 -1.1916
19703TIP3    H280601   0.947   4.754  14.076  1.1338 -0.9128 -1.5130
19704TIP3   OH280602   3.397   6.090   4.836 -0.3353  0.2566 -0.0800
19704TIP3    H180603   3.407   6.160   4.901  1.9213 -0.3776  0.2895
19704TIP3    H280604   3.399   6.009   4.887 -0.5505 -0.1681 -0.7409
19705TIP3   OH280605   2.205   0.626  12.010 -0.5891  0.1923 -0.5412
19705TIP3    H180606   2.123   0.627  11.961  0.3852  1.1086 -2.2058
19705TIP3    H280607   2.206   0.540  12.052 -4.2107  1.5954  2.7119
19706TIP3   OH280608   5.496   5.585   3.680  0.1915 -0.1979 -0.3649
19706TIP3    H180609   5.464   5.610   3.593 -0.1988 -1.8151 -0.6989
19706TIP3    H280610   5.419   5.547   3.723  1.3640 -3.1944 -0.8056
19707TIP3   OH280611   1.970   2.695  16.399 -0.3611 -0.5621  0.6959
19707TIP3    H180612   1.957   2.660  16.311 -0.4678 -0.0783  0.5190
19707TIP3    H280613   1.920   2.636  16.456  0.9332 -1.7695  0.6142
19708TIP3   OH280614   1.659   5.085  13.914  0.2409 -0.1798  0.2270
19708TIP3    H180615   1.682   5.166  13.959 -1.5556 -0.3146  1.4454
19708TIP3    H280616   1.603   5.039  13.976 -1.5769 -0.7725 -1.8191
19709TIP3   OH280617   5.213   5.576   0.533 -0.2637  0.1083 -0.1947
19709TIP3    H180618   5.286   5.605   0.588  1.1076 -3.4451 -0.0051
19709TIP3    H280619   5.241   5.491   0.498 -3.1292  0.0059 -2.4596
19710TIP3   OH280620   1.958   2.663   0.642 -0.5949  0.2699  0.7120
19710TIP3    H180621   1.881   2.669   0.698 -0.2065  2.2862  1.0688
19710TIP3    H280622   1.926   2.689   0.555 -0.1662  1.8369  1.0165
19711TIP3   OH280623   0.461   0.497  13.283  0.1511  0.3707  0.0869
19711TIP3    H180624   0.487   0.491  13.191  1.6008 -1.8837  0.5858
19711TIP3    H280625   0.503   0.421  13.324  0.8155  2.1861  2.9183
19712TIP3   OH280626   4.394   5.632  16.387  0.1070 -0.0095  0.2910
19712TIP3    H180627   4.484   5.635  16.417 -0.3094 -1.6080  1.8125
19712TIP3    H280628   4.369   5.723  16.376  2.3931  0.4051 -1.7136
19713TIP3   OH280629   4.525   0.862  16.443 -0.4623 -0.1732 -0.1808
19713TIP3    H180630   4.482   0.896  16.365 -1.1442  0.0731  0.2920
19713TIP3    H280631   4.453   0.824  16.495 -0.1948  0.7218  0.8661
19714TIP3   OH280632   5.125   1.502   3.697  0.2230 -0.8662 -0.1216
19714TIP3    H180633   5.200   1.453   3.730 -0.1280 -1.9084 -0.8210
19714TIP3    H280634   5.100   1.455   3.617 -0.7202 -0.1016 -0.2824
19715TIP3   OH280635   3.565   2.217  13.472 -0.8257  0.5790  0.6225
19715TIP3    H180636   3.475   2.227  13.502 -1.4854  1.9713 -1.7011
19715TIP3    H280637   3.560   2.155  13.399  0.1662  0.2707  0.8140
19716TIP3   OH280638   6.134   6.470  12.017  0.2894 -0.9588 -0.2575
19716TIP3    H180639   6.189   6.493  12.091 -0.3621 -2.8022  0.8136
19716TIP3    H280640   6.188   6.411  11.964 -0.1047 -1.5239 -0.0256
19717TIP3   OH280641   2.146   2.666  15.177  0.8048  0.8717 -0.7088
19717TIP3    H180642   2.212   2.701  15.237  0.9644  0.9378 -0.9242
19717TIP3    H280643   2.196   2.629  15.105  0.8340 -3.0876  1.2075
19718TIP3   OH280644   0.087   1.719  12.093 -0.0058 -0.1991  0.2867
19718TIP3    H180645   0.115   1.627  12.101  2.1383  0.5173  1.3384
19718TIP3    H280646   0.015   1.716  12.030 -0.0121 -2.6161  0.3450
19719TIP3   OH280647   3.107   4.462  15.487  0.9761  0.0758 -0.4294
19719TIP3    H180648   3.053   4.507  15.422  1.0853 -0.7577 -1.0988
19719TIP3    H280649   3.189   4.511  15.489  0.6807  0.5672 -0.3585
19720TIP3   OH280650   0.420   6.281   2.318 -0.3372  0.2189  0.7930
19720TIP3    H180651   0.390   6.212   2.260  0.6645 -0.3218  0.9083
19720TIP3    H280652   0.461   6.235   2.391  2.1220  0.9264 -0.0766
19721TIP3   OH280653   4.099   5.319  12.357 -0.1892 -0.3288  0.1170
19721TIP3    H180654   4.036   5.289  12.423 -0.2479 -2.1357 -0.7415
19721TIP3    H280655   4.183   5.318  12.402 -0.5402  0.5942  0.8104
19722TIP3   OH280656   3.724   1.255   3.232  0.5471  0.3414  0.3711
19722TIP3    H180657   3.755   1.307   3.158  2.1326 -0.1553  0.6739
19722TIP3    H280658   3.774   1.286   3.306  0.1077 -0.2732  0.9371
19723TIP3   OH280659   5.866   6.304  16.924  0.3431 -0.2241  0.1580
19723TIP3    H180660   5.817   6.258  16.855  0.6938 -1.8706  0.9729
19723TIP3    H280661   5.861   6.245  16.999  1.8259  0.5517  0.8803
19724TIP3   OH280662   1.944   0.250   4.858 -0.0750  0.0613 -0.0390
19724TIP3    H180663   1.906   0.269   4.772 -0.8111  2.1213  0.6993
19724TIP3    H280664   1.879   0.195   4.901  0.2751 -0.9417 -0.7781
19725TIP3   OH280665   2.920   4.173  11.880 -0.4663  0.3230  0.1970
19725TIP3    H180666   2.901   4.266  11.871  0.3491  0.3153 -1.7411
19725TIP3    H280667   2.884   4.132  11.801  0.2101 -0.8366  0.4678
19726TIP3   OH280668   5.516   4.526   3.662  0.3477 -0.0488 -0.2974
19726TIP3    H180669   5.504   4.621   3.667  1.4366  0.1344 -0.8842
19726TIP3    H280670   5.512   4.496   3.753  0.7285  0.6626 -0.0426
19727TIP3   OH280671   1.242   1.183   0.085  0.2140  0.3299  0.6233
19727TIP3    H180672   1.263   1.131   0.163  0.6033 -0.3791  0.0546
19727TIP3    H280673   1.258   1.274   0.112  3.0743 -0.1038  0.5363
19728TIP3   OH280674   5.995   3.361  12.712  0.2344  0.1652 -0.4207
19728TIP3    H180675   5.911   3.352  12.756 -0.2927 -0.1566 -1.4754
19728TIP3    H280676   6.054   3.303  12.761 -0.2588  0.0716  0.0675
19729TIP3   OH280677   2.503   2.741   0.086  0.4362 -0.3356 -0.5111
19729TIP3    H180678   2.434   2.782   0.034  1.9026  0.7922 -1.6243
19729TIP3    H280679   2.466   2.734   0.174 -1.0124  0.4239 -1.0348
19730TIP3   OH280680   3.648   1.351  16.674 -0.1358 -0.2588  0.1655
19730TIP3    H180681   3.620   1.439  16.699  1.0393  0.0437  0.4571
19730TIP3    H280682   3.627   1.344  16.581 -3.4949 -0.9809  0.9153
19731TIP3   OH280683   2.101   5.846  13.816  0.1168  0.0498  0.1232
19731TIP3    H180684   2.184   5.857  13.862  0.6337 -0.9169 -0.5419
19731TIP3    H280685   2.077   5.934  13.788 -0.4003  0.7106  2.5341
19732TIP3   OH280686   1.664   5.110  14.417 -0.1108  0.2670  0.0940
19732TIP3    H180687   1.674   5.040  14.482 -1.3001 -0.3861 -0.4209
19732TIP3    H280688   1.746   5.109  14.368 -0.2349 -0.9858 -0.1176
19733TIP3   OH280689   3.966   6.540   5.030 -0.2150 -0.1966 -0.2522
19733TIP3    H180690   4.003   6.622   4.999  1.4569 -0.9342 -0.2567
19733TIP3    H280691   3.891   6.565   5.083  1.1123  1.3967  0.9110
19734TIP3   OH280692   1.766   1.244   3.815  0.1464  0.1144  0.5326
19734TIP3    H180693   1.731   1.284   3.735  1.5191  1.0760  0.4034
19734TIP3    H280694   1.853   1.281   3.825  0.7240 -1.4324  1.4601
19735TIP3   OH280695   5.193   2.025   0.011  0.2066  0.1497 -0.2389
19735TIP3    H180696   5.102   2.019   0.042  0.5034  0.0360  0.6221
19735TIP3    H280697   5.213   1.937  -0.020 -0.3460  0.4572 -1.4666
19736TIP3   OH280698   3.719   4.389   2.338  0.2579  0.2267 -0.2585
19736TIP3    H180699   3.695   4.306   2.380 -3.9601  0.8460 -1.2439
19736TIP3    H280700   3.731   4.450   2.411 -0.1946 -0.3903  0.3407
19737TIP3   OH280701   3.623   0.064   4.373  0.4370 -0.3042  0.8959
19737TIP3    H180702   3.670  -0.000   4.319  1.1187  1.6377 -0.9203
19737TIP3    H280703   3.674   0.070   4.454  1.4391 -0.6887  0.3025
19738TIP3   OH280704   4.588   1.392  12.745 -0.2475  0.0409  0.0502
19738TIP3    H180705   4.562   1.412  12.835  1.2195  0.3877  0.4018
19738TIP3    H280706   4.649   1.320  12.752  1.1078  1.1076 -0.5287
19739TIP3   OH280707   0.791   5.883   3.986 -0.8089 -0.7798 -0.0518
19739TIP3    H180708   0.826   5.868   4.074 -1.5929 -1.0378  0.2218
19739TIP3    H280709   0.790   5.978   3.976 -0.2999 -0.7627  0.0438
19740TIP3   OH280710   2.343   2.521  16.031  0.9033  0.5612 -0.6510
19740TIP3    H180711   2.261   2.506  16.078  1.6149  1.1092  0.7945
19740TIP3    H280712   2.339   2.613  16.005  0.8303  0.4542 -1.0084
19741TIP3   OH280713   0.438   0.499  16.688  0.2030 -0.2577  0.1374
19741TIP3    H180714   0.455   0.582  16.643 -1.2232 -0.0764 -0.0880
19741TIP3    H280715   0.357   0.515  16.736 -0.5918 -1.8514 -0.6725
19742TIP3   OH280716   2.013   4.239  14.526 -0.1309  0.6044 -0.3752
19742TIP3    H180717   2.098   4.210  14.493 -0.3869 -1.0328  0.3253
19742TIP3    H280718   1.950   4.178  14.488 -0.9916  1.7365 -0.8021
19743TIP3   OH280719   2.185   5.901  15.685 -0.7259  0.8850 -0.0681
19743TIP3    H180720   2.156   5.922  15.774  1.3580  0.6127  0.6825
19743TIP3    H280721   2.192   5.806  15.683 -3.8137  0.6026 -1.5201
19744TIP3   OH280722   1.267   0.843   0.047  0.2408  0.4589  0.3344
19744TIP3    H180723   1.211   0.908   0.006 -0.8099 -1.2233 -0.9718
19744TIP3    H280724   1.223   0.822   0.130  0.4601  1.2200  0.6462
19745TIP3   OH280725   3.562   0.112   0.498  0.0013 -0.1515  0.1457
19745TIP3    H180726   3.500   0.046   0.526 -0.0887 -0.1949 -0.1614
19745TIP3    H280727   3.523   0.151   0.420  0.2611 -0.0398  0.0707
19746TIP3   OH280728   3.987   3.487  13.188 -0.0681 -0.3299 -0.2631
19746TIP3    H180729   3.989   3.581  13.168  0.5974 -0.2940 -0.0690
19746TIP3    H280730   4.076   3.468  13.219 -1.0536 -0.3456  2.7455
19747TIP3   OH280731   0.822   5.142   3.510 -0.0379 -0.2100 -0.4935
19747TIP3    H180732   0.822   5.202   3.585  3.1918 -0.6809 -0.0446
19747TIP3    H280733   0.765   5.184   3.445 -2.6918  0.3219  2.0976
19748TIP3   OH280734   0.124   6.272  16.953  0.3438 -0.3691  0.2995
19748TIP3    H180735   0.041   6.319  16.956 -0.7492 -2.1007 -1.2505
19748TIP3    H280736   0.161   6.294  16.867  0.5011 -1.1912  0.1510
19749TIP3   OH280737   4.776   0.261   0.329  0.1434  0.0024 -0.5730
19749TIP3    H180738   4.787   0.323   0.401 -1.1348  0.1591 -0.4857
19749TIP3    H280739   4.845   0.283   0.267 -0.9835  2.3089 -1.0751
19750TIP3   OH280740   1.638   6.524  10.645 -0.6704  0.4043  0.3372
19750TIP3    H180741   1.631   6.615  10.676 -0.2060  0.5876 -0.0893
19750TIP3    H280742   1.553   6.508  10.603  0.2525  1.5838 -2.0465
19751TIP3   OH280743   5.191   6.125   0.403  0.0284 -0.2585  0.3454
19751TIP3    H180744   5.106   6.100   0.440 -0.3854  0.0392 -0.3952
19751TIP3    H280745   5.247   6.048   0.416 -0.4009 -0.5092  0.6988
19752TIP3   OH280746   1.259   5.332   1.907  0.2809 -0.1282  0.5558
19752TIP3    H180747   1.238   5.240   1.888 -0.1428  0.0876 -0.0432
19752TIP3    H280748   1.204   5.354   1.983  0.3819 -0.3674  0.6986
19753TIP3   OH280749   4.199   0.188  15.072  0.0296 -0.4459 -0.0776
19753TIP3    H180750   4.257   0.191  15.149  0.0452  1.9308 -0.1651
19753TIP3    H280751   4.116   0.154  15.106  0.4387 -0.6817  0.7023
19754TIP3   OH280752   2.877   2.464  13.861 -0.3340 -0.1624  0.0355
19754TIP3    H180753   2.785   2.440  13.849  0.2415 -2.1514 -0.6656
19754TIP3    H280754   2.897   2.438  13.950 -0.4290  0.2076  0.1658
19755TIP3   OH280755   4.857   3.538  16.517  0.2418 -0.1346  0.6081
19755TIP3    H180756   4.871   3.572  16.606  1.4337  1.1985 -0.0816
19755TIP3    H280757   4.891   3.606  16.459 -0.3076 -1.1043 -0.8790
19756TIP3   OH280758   6.043   5.598  13.870  0.4786 -0.1639 -0.5630
19756TIP3    H180759   6.114   5.661  13.855 -1.0715  1.6029 -0.7079
19756TIP3    H280760   6.080   5.513  13.846  2.2526  0.8532 -1.5066
19757TIP3   OH280761   5.665   4.760  15.072  0.5540 -0.0267  0.0245
19757TIP3    H180762   5.663   4.668  15.044 -0.5041 -0.1671  0.5074
19757TIP3    H280763   5.657   4.810  14.991 -2.6248 -0.4273  0.0056
19758TIP3   OH280764   6.168   2.811   0.738 -0.3520  0.3224 -0.5118
19758TIP3    H180765   6.245   2.829   0.792  0.2511  1.5082 -1.7427
19758TIP3    H280766   6.144   2.721   0.760  1.4317 -0.0852 -0.1594
19759TIP3   OH280767   0.592   6.658   0.277 -0.2914  0.6373 -0.4055
19759TIP3    H180768   0.566   6.570   0.249 -0.3597  0.1904  1.0262
19759TIP3    H280769   0.654   6.644   0.348 -0.0802  1.7481 -0.3537
19760TIP3   OH280770   5.671   1.846  17.134 -0.3469 -0.2382 -0.4521
19760TIP3    H180771   5.732   1.819  17.203  0.1153  0.8661 -0.4264
19760TIP3    H280772   5.595   1.789  17.146  0.9789 -2.1794 -0.9786
19761TIP3   OH280773   6.637   0.623   6.049 -0.2552  0.5531 -0.5639
19761TIP3    H180774   6.601   0.691   5.992 -0.7346 -0.1198 -1.0815
19761TIP3    H280775   6.714   0.590   6.003 -2.0198 -1.6974 -2.0791
19762TIP3   OH280776   2.704   0.272   5.907  0.4880 -0.1876  0.3497
19762TIP3    H180777   2.680   0.282   5.815  1.0494 -0.6736  0.1488
19762TIP3    H280778   2.625   0.236   5.948  0.9154 -2.0388 -0.3666
19763TIP3   OH280779   2.774   1.496   0.159 -0.3019 -0.3107 -0.7535
19763TIP3    H180780   2.785   1.405   0.130  1.7125 -0.4641  0.3715
19763TIP3    H280781   2.827   1.501   0.239 -3.1120  0.9277  1.1143
19764TIP3   OH280782   4.902   1.384  15.580  0.2465  0.3172 -0.2414
19764TIP3    H180783   4.865   1.458  15.531  1.8870  0.3486 -1.4807
19764TIP3    H280784   4.888   1.308  15.524 -0.5416 -0.1497  0.5845
19765TIP3   OH280785   3.495   1.582  13.645  0.4378  0.2207 -0.1678
19765TIP3    H180786   3.514   1.673  13.670 -0.4011  0.3560 -0.0007
19765TIP3    H280787   3.464   1.541  13.725  2.0485 -0.5702  0.0545
19766TIP3   OH280788   4.085   1.048   4.790  0.1031 -0.4150 -0.3282
19766TIP3    H180789   4.163   1.092   4.755 -0.3439  0.3646 -0.3677
19766TIP3    H280790   4.016   1.073   4.729 -0.3002 -0.5930  0.0617
19767TIP3   OH280791   4.908   4.684   5.197 -0.6207  0.1938  0.4883
19767TIP3    H180792   4.889   4.596   5.230 -0.6228  0.5732  1.4902
19767TIP3    H280793   4.822   4.720   5.177 -0.6218 -0.0187  0.0931
19768TIP3   OH280794   3.200   5.185  14.517 -0.0191  0.7846  0.4771
19768TIP3    H180795   3.139   5.239  14.567 -1.1411 -0.1861  0.1786
19768TIP3    H280796   3.284   5.195  14.562 -0.7386  0.8875  1.8127
19769TIP3   OH280797   5.869   6.716  14.835 -0.2247  0.2373 -0.3801
19769TIP3    H180798   5.855   6.706  14.741 -1.3114 -0.4558 -0.1521
19769TIP3    H280799   5.962   6.737  14.843 -0.0401 -0.0712 -1.5776
19770TIP3   OH280800   1.133   2.334  12.945 -0.0699  0.2693  0.4599
19770TIP3    H180801   1.133   2.379  13.030 -1.5014 -0.5035  0.8834
19770TIP3    H280802   1.210   2.278  12.949  0.4040  0.9249  0.8658
19771TIP3   OH280803   6.732   0.634  11.361  0.7164 -0.4704  0.0621
19771TIP3    H180804   6.668   0.584  11.311 -0.6710 -0.8437  2.1463
19771TIP3    H280805   6.754   0.577  11.435  1.9853  0.4516  0.4205
19772TIP3   OH280806   4.011   6.135  14.736 -0.6939 -0.0197 -0.2680
19772TIP3    H180807   3.989   6.047  14.767  0.0761 -1.2971 -3.1442
19772TIP3    H280808   3.927   6.179  14.724 -1.0938 -0.4559  0.8922
19773TIP3   OH280809   6.205   4.069  14.845 -0.1462  0.0352 -0.0022
19773TIP3    H180810   6.191   4.159  14.816 -2.3390 -0.5350 -0.7953
19773TIP3    H280811   6.143   4.017  14.794 -0.3381 -1.6804  1.9152
19774TIP3   OH280812   6.052   3.175   3.757 -0.2695 -0.3340 -0.4123
19774TIP3    H180813   6.129   3.136   3.799 -0.5551 -0.9841 -0.4821
19774TIP3    H280814   6.028   3.248   3.814 -0.3852 -0.9392  0.3289
19775TIP3   OH280815   0.247   0.697  13.324 -0.1990  0.2665  0.2992
19775TIP3    H180816   0.306   0.626  13.300 -0.5638  0.2224 -0.5014
19775TIP3    H280817   0.251   0.758  13.249  0.6021  1.4141  1.2553
19776TIP3   OH280818   2.272   4.194  14.406  0.7918  0.5534  0.7060
19776TIP3    H180819   2.259   4.112  14.359 -0.8755 -0.1999  2.3894
19776TIP3    H280820   2.340   4.173  14.471  0.3659  0.4916  1.1367
19777TIP3   OH280821   6.412   3.678  12.186  0.4284 -0.5734 -0.1588
19777TIP3    H180822   6.398   3.629  12.105 -2.2705 -0.4126  0.1592
19777TIP3    H280823   6.449   3.613  12.247 -2.1963 -2.0100 -0.0431
19778TIP3   OH280824   4.635   5.890  14.408  0.5491  0.4573 -0.6385
19778TIP3    H180825   4.585   5.835  14.468 -0.0899 -0.4981 -2.0161
19778TIP3    H280826   4.726   5.877  14.434  0.4261 -1.4038 -1.0499
19779TIP3   OH280827   6.141   4.472  11.145  0.7027 -0.5376 -0.0988
19779TIP3    H180828   6.097   4.460  11.060 -0.9940 -1.1357  0.8493
19779TIP3    H280829   6.216   4.528  11.125  0.2484 -0.5665 -1.9815
19780TIP3   OH280830   1.008   4.812  13.768 -0.0064 -0.0431 -0.1660
19780TIP3    H180831   0.963   4.749  13.822 -0.6565 -0.7268 -1.4808
19780TIP3    H280832   1.101   4.789  13.776 -0.2916 -1.6565 -1.2199
19781TIP3   OH280833   1.832   6.333   3.859 -0.5693  0.2408 -0.4360
19781TIP3    H180834   1.916   6.324   3.904  0.4524  1.0994 -2.1113
19781TIP3    H280835   1.774   6.271   3.904  0.7115  0.2638  1.2990
19782TIP3   OH280836   1.499   1.552   1.312 -0.3174 -0.4051 -0.2745
19782TIP3    H180837   1.420   1.500   1.294 -0.5324 -0.2815  0.2807
19782TIP3    H280838   1.571   1.489   1.305 -0.6002 -0.8385  0.6322
19783TIP3   OH280839   1.439   5.249   2.856  0.8903 -0.0950  0.2713
19783TIP3    H180840   1.422   5.172   2.909  0.5202 -0.8567 -0.9330
19783TIP3    H280841   1.403   5.227   2.770 -1.2357  2.2534  0.4955
19784TIP3   OH280842   2.140   6.046   2.187  0.2746  0.3688  0.1899
19784TIP3    H180843   2.207   5.980   2.168 -0.8034 -0.6527 -0.1366
19784TIP3    H280844   2.125   6.090   2.104 -2.8152 -2.5825 -0.9348
19785TIP3   OH280845   5.223   4.938  14.978 -0.2963 -0.0362 -0.2482
19785TIP3    H180846   5.295   4.881  14.952  0.7270  1.1924 -0.1601
19785TIP3    H280847   5.251   5.026  14.954 -1.3589  0.5769  0.6668
19786TIP3   OH280848   3.597   0.759  16.717  0.3497  0.5258  0.1833
19786TIP3    H180849   3.531   0.814  16.759  0.6399  0.8175  0.2560
19786TIP3    H280850   3.663   0.820  16.685 -0.9162  0.5175 -2.6424
19787TIP3   OH280851   1.412   2.606   3.358 -0.1531 -0.0746  0.2240
19787TIP3    H180852   1.450   2.589   3.444  2.5003  0.0882 -0.8658
19787TIP3    H280853   1.345   2.538   3.348  2.5519 -2.9006  0.6091
19788TIP3   OH280854   0.251   3.688   0.359 -0.2122  0.0510 -0.1168
19788TIP3    H180855   0.304   3.656   0.432 -0.6222 -0.5643 -0.0855
19788TIP3    H280856   0.291   3.649   0.282 -0.0083  0.3977 -0.1865
19789TIP3   OH280857   2.960   1.374   4.885  0.3923  0.6585 -0.0270
19789TIP3    H180858   2.894   1.429   4.928  1.2039 -0.0358  2.1984
19789TIP3    H280859   2.910   1.317   4.827 -0.5885  2.7957 -1.3514
19790TIP3   OH280860   2.372   3.009   3.892 -0.0681 -0.2566 -0.0185
19790TIP3    H180861   2.441   2.993   3.828  0.0491  1.2934 -0.3127
19790TIP3    H280862   2.324   3.085   3.857  1.2945  1.9639  2.7519
19791TIP3   OH280863   6.622   4.737   0.438 -0.0727 -0.3263  0.4589
19791TIP3    H180864   6.598   4.692   0.519 -1.4707  0.0013  0.2324
19791TIP3    H280865   6.582   4.824   0.446  1.1308  0.2797  0.1228
19792TIP3   OH280866   4.795   5.359   4.037 -0.4080 -0.4229  0.3729
19792TIP3    H180867   4.827   5.385   4.124 -1.0001 -0.9190  0.7427
19792TIP3    H280868   4.726   5.422   4.017 -0.5509 -0.5550  0.4455
19793TIP3   OH280869   3.747   0.530  12.999 -0.1508 -0.3060  0.2677
19793TIP3    H180870   3.837   0.533  12.967  0.0078  0.8074  0.7720
19793TIP3    H280871   3.704   0.462  12.947  1.0632 -1.0609  0.2490
19794TIP3   OH280872   0.073   1.463   2.353  0.1659  0.4267  0.6626
19794TIP3    H180873   0.166   1.443   2.352  0.2704  0.9917 -1.1550
19794TIP3    H280874   0.030   1.378   2.354  0.6835  0.1412  3.7989
19795TIP3   OH280875   3.261   6.613   3.569  0.2029 -0.5064  0.7219
19795TIP3    H180876   3.284   6.671   3.642 -0.0509 -0.8553  1.0856
19795TIP3    H280877   3.167   6.598   3.580 -0.0975  0.4661 -0.4255
19796TIP3   OH280878   6.765   3.817  15.984 -0.3443 -0.6392 -0.3442
19796TIP3    H180879   6.792   3.751  15.920 -0.4872  0.7191 -1.8472
19796TIP3    H280880   6.736   3.891  15.930 -0.1447  0.6569  1.3133
19797TIP3   OH280881   6.092   0.864  16.993  0.2783  0.0084  0.7151
19797TIP3    H180882   6.160   0.929  17.009 -1.0343  1.4541  0.6288
19797TIP3    H280883   6.092   0.808  17.071  0.0797  1.3475  1.6891
19798TIP3   OH280884   1.002   6.217   3.301 -0.0023  0.0668 -0.0484
19798TIP3    H180885   1.046   6.134   3.282 -0.6349 -0.7391  1.8955
19798TIP3    H280886   1.072   6.281   3.307  0.5074 -0.3343 -1.3873
19799TIP3   OH280887   1.226   3.106   2.578 -0.0917  0.5548  0.2454
19799TIP3    H180888   1.162   3.174   2.560  0.5795  0.9907 -0.5049
19799TIP3    H280889   1.173   3.029   2.602 -0.8613  1.1391  0.4401
19800TIP3   OH280890   1.023   4.246   6.188 -0.4765  0.7910 -0.1687
19800TIP3    H180891   0.961   4.202   6.246  1.1096  0.2368  1.1267
19800TIP3    H280892   1.035   4.185   6.115  2.8441 -1.7111  2.3168
19801TIP3   OH280893   0.930   3.842  15.745 -0.0769  0.1642 -0.7924
19801TIP3    H180894   1.023   3.838  15.725 -0.2498  2.1942 -2.1355
19801TIP3    H280895   0.919   3.924  15.793 -1.0827 -0.3592 -0.1112
19802TIP3   OH280896   0.257   0.314   5.696 -0.1686  0.1608 -0.1405
19802TIP3    H180897   0.275   0.355   5.780 -1.9051  1.0937 -0.2070
19802TIP3    H280898   0.304   0.368   5.632  0.6395 -0.1847  0.1576
19803TIP3   OH280899   1.858   4.484  15.308 -0.1133  0.3543 -0.2767
19803TIP3    H180900   1.884   4.459  15.220 -3.3560  0.4310 -1.3232
19803TIP3    H280901   1.903   4.421  15.365  0.6728 -0.7555 -2.0945
19804TIP3   OH280902   1.249   3.194  17.267 -0.1299 -0.3350  0.4735
19804TIP3    H180903   1.326   3.252  17.266 -0.9725  0.7895 -0.7382
19804TIP3    H280904   1.252   3.153  17.353  2.1597 -0.7634  0.2332
19805TIP3   OH280905   1.808   3.540  16.366 -0.0851  0.1880 -0.0962
19805TIP3    H180906   1.829   3.464  16.420 -2.6692 -0.0101  0.7056
19805TIP3    H280907   1.780   3.503  16.282  0.4918  0.3510 -0.3637
19806TIP3   OH280908   0.384   3.339   3.389 -0.3583 -0.0996 -0.2709
19806TIP3    H180909   0.415   3.300   3.307 -0.8499 -0.6319 -0.2050
19806TIP3    H280910   0.363   3.264   3.444  0.9913  0.2432  0.7331
19807TIP3   OH280911   3.171   6.673  12.206 -0.1417  0.7650 -0.2788
19807TIP3    H180912   3.103   6.636  12.150  1.0218 -1.4329 -0.2870
19807TIP3    H280913   3.153   6.639  12.293  0.4179  0.9025 -0.1049
19808TIP3   OH280914   6.313   1.839   0.839  0.0772 -0.3491  0.4692
19808TIP3    H180915   6.248   1.830   0.910 -0.8631  2.3318 -0.0033
19808TIP3    H280916   6.395   1.807   0.878 -0.8419 -0.8185  2.1042
19809TIP3   OH280917   3.888   3.923   0.346  0.9676 -0.2587  0.0634
19809TIP3    H180918   3.905   3.830   0.360  0.5860 -0.4680 -0.8064
19809TIP3    H280919   3.964   3.967   0.384  1.3992 -0.9455  0.0198
19810TIP3   OH280920   1.114   4.035  12.480  0.7207  0.1725  0.1565
19810TIP3    H180921   1.120   4.000  12.569 -1.0063  1.3057  0.7315
19810TIP3    H280922   1.020   4.038  12.461  1.0592  0.2340 -1.5869
19811TIP3   OH280923   5.765   5.791  15.000  0.4114  0.0209  0.7055
19811TIP3    H180924   5.823   5.855  15.042  0.3364  0.1155  0.6640
19811TIP3    H280925   5.820   5.750  14.932  0.8955 -0.9655  1.6627
19812TIP3   OH280926   4.882   1.115   2.465 -0.2196  0.1360  0.3138
19812TIP3    H180927   4.884   1.026   2.501 -1.1705 -0.2089 -0.4807
19812TIP3    H280928   4.859   1.171   2.540 -0.9071 -0.4282  0.5209
19813TIP3   OH280929   2.983   4.692  15.689 -0.5622 -0.2959 -0.3422
19813TIP3    H180930   2.986   4.718  15.596 -0.8328  0.1423 -0.2284
19813TIP3    H280931   2.973   4.597  15.686  0.4083 -0.3896 -0.7629
19814TIP3   OH280932   5.401   0.386  11.705  0.3858  0.0774 -0.4645
19814TIP3    H180933   5.424   0.308  11.755 -1.7617 -0.4819 -0.2835
19814TIP3    H280934   5.468   0.392  11.637 -0.3155 -2.8611 -1.4883
19815TIP3   OH280935   6.815   4.924  13.824  0.4736 -0.3363 -0.0185
19815TIP3    H180936   6.786   5.011  13.851  1.2210 -0.2028  0.3627
19815TIP3    H280937   6.909   4.935  13.805  0.3361 -0.8126 -1.0101
19816TIP3   OH280938   1.004   3.578   1.164 -0.5607  0.3314 -0.1534
19816TIP3    H180939   0.943   3.506   1.177 -0.5536  0.3369 -0.0911
19816TIP3    H280940   1.017   3.615   1.252  0.5914 -0.5317  0.0672
19817TIP3   OH280941   6.726   2.747  15.891  0.4576  0.2427 -0.7634
19817TIP3    H180942   6.631   2.743  15.893  0.4847  0.1755  1.0158
19817TIP3    H280943   6.754   2.711  15.976  2.0459  0.6148 -1.1051
19818TIP3   OH280944   1.871   3.505   3.969  0.3323  0.2680  0.0089
19818TIP3    H180945   1.826   3.421   3.968  0.6152  0.1225 -0.6301
19818TIP3    H280946   1.934   3.499   3.897  1.4409  0.4301  0.9579
19819TIP3   OH280947   2.327   3.139   5.792 -0.5553 -0.1612 -0.1913
19819TIP3    H180948   2.275   3.212   5.759 -0.2798 -0.4743 -1.3457
19819TIP3    H280949   2.416   3.157   5.763 -0.0895  0.1369  1.3854
19820TIP3   OH280950   6.050   4.703  12.457  0.1765  0.2722 -0.5912
19820TIP3    H180951   6.057   4.640  12.386  2.2718 -0.3019  0.0871
19820TIP3    H280952   5.977   4.760  12.432 -0.9612 -1.6597 -1.7855
19821TIP3   OH280953   6.680   1.432  14.143  0.1988 -0.2504 -0.5288
19821TIP3    H180954   6.645   1.379  14.071 -0.5627 -1.4445  0.7024
19821TIP3    H280955   6.738   1.374  14.191 -0.0301  0.2519  0.3761
19822TIP3   OH280956   1.231   5.861   2.253 -0.1732  0.1336  0.8129
19822TIP3    H180957   1.145   5.844   2.216  0.6492 -0.6053 -0.8028
19822TIP3    H280958   1.248   5.787   2.311 -2.3846  2.3618  4.4587
19823TIP3   OH280959   4.383   1.871   4.629  0.2958 -0.0277 -0.3301
19823TIP3    H180960   4.340   1.790   4.600 -0.2741  0.5342 -1.0612
19823TIP3    H280961   4.318   1.939   4.613  1.1119  0.7007 -0.5555
19824TIP3   OH280962   4.542   5.256   1.892 -0.1520  0.1942  0.4633
19824TIP3    H180963   4.524   5.165   1.868  1.7988  0.4669 -2.3037
19824TIP3    H280964   4.614   5.251   1.954 -1.0864 -0.1966  1.5419
19825TIP3   OH280965   3.880   6.398  15.724 -0.0851 -0.2852 -0.1666
19825TIP3    H180966   3.897   6.491  15.736  0.0553 -0.4345  0.8747
19825TIP3    H280967   3.838   6.371  15.806  0.9946 -1.4035  0.0382
19826TIP3   OH280968   2.774   3.364   5.068  0.3260 -0.2678  0.1970
19826TIP3    H180969   2.767   3.297   5.001 -1.6976  1.1862 -1.1050
19826TIP3    H280970   2.697   3.351   5.123  0.7397  0.0219  0.8509
19827TIP3   OH280971   5.226   3.742  14.599 -0.3482  0.2052 -0.2824
19827TIP3    H180972   5.253   3.661  14.641 -0.0565 -0.0351 -0.9268
19827TIP3    H280973   5.290   3.807  14.628  0.4160 -0.1669 -1.0898
19828TIP3   OH280974   1.925   3.665  12.579  0.0464  0.6343 -0.2658
19828TIP3    H180975   1.871   3.740  12.555 -0.9019 -0.2881 -1.0547
19828TIP3    H280976   2.011   3.703  12.600 -0.4295  1.9342 -0.6233
19829TIP3   OH280977   3.870   3.064  12.327 -0.1135 -0.2014 -0.4216
19829TIP3    H180978   3.921   3.002  12.379  0.0421  0.5859  0.3544
19829TIP3    H280979   3.810   3.104  12.389  1.5968  2.3868 -0.3567
19830TIP3   OH280980   5.551   6.126  16.383 -0.6980 -0.0426  0.1333
19830TIP3    H180981   5.490   6.199  16.389 -0.1867  0.4003 -0.0472
19830TIP3    H280982   5.506   6.061  16.329 -0.8386  0.4479 -0.3315
19831TIP3   OH280983   4.589   1.780  16.013  0.3674 -0.4518  0.0138
19831TIP3    H180984   4.615   1.698  16.054  0.6258  0.1894  1.1384
19831TIP3    H280985   4.625   1.848  16.069 -2.0522  0.4566  0.5499
19832TIP3   OH280986   2.214   0.108  15.292  0.6771  0.4431 -0.1468
19832TIP3    H180987   2.249   0.191  15.322  1.1187 -0.1819  1.0972
19832TIP3    H280988   2.281   0.043  15.316 -0.0666 -0.3884 -0.2889
19833TIP3   OH280989   4.998   5.617   4.367 -0.4119  0.4690  0.1953
19833TIP3    H180990   4.978   5.675   4.440 -1.5308 -1.6091  1.5897
19833TIP3    H280991   4.919   5.565   4.356  0.6361 -0.9363 -0.8830
19834TIP3   OH280992   0.539   1.203   3.421 -0.4070  0.4068  0.2390
19834TIP3    H180993   0.536   1.288   3.377  0.6015 -0.3351 -1.3133
19834TIP3    H280994   0.614   1.210   3.481  0.6684  0.0971 -1.0352
19835TIP3   OH280995   2.481   3.384   2.830 -0.1886  0.2818  0.2948
19835TIP3    H180996   2.452   3.376   2.921  0.9599  0.1135  0.6567
19835TIP3    H280997   2.491   3.294   2.800 -2.0076  0.3314 -0.4748
19836TIP3   OH280998   5.982   0.787  13.969 -0.0364  0.4151 -0.6709
19836TIP3    H180999   6.034   0.861  13.938  0.1284 -0.9731 -3.9529
19836TIP3    H281000   6.047   0.721  13.994 -0.1493 -0.2833 -2.1376
19837TIP3   OH281001   6.292   0.976  15.827  0.0884  0.5194 -0.7518
19837TIP3    H181002   6.353   0.942  15.892 -0.3437  0.7903 -0.2006
19837TIP3    H281003   6.228   1.026  15.878 -0.1450  0.8892 -1.4003
19838TIP3   OH281004   3.604   3.855  13.152  1.5449  0.0367  0.9611
19838TIP3    H181005   3.588   3.761  13.142  1.6861 -0.0141  1.1810
19838TIP3    H281006   3.699   3.861  13.165  1.7251  0.3335 -0.4222
19839TIP3   OH281007   4.376   3.634   0.869  0.7835  0.4844 -0.3832
19839TIP3    H181008   4.444   3.689   0.909  1.4205  2.2578 -3.7566
19839TIP3    H281009   4.307   3.630   0.935  1.7753  3.3471  0.8997
19840TIP3   OH281010   5.733   5.724  11.740 -0.4598  0.5865 -0.6199
19840TIP3    H181011   5.800   5.754  11.679 -0.9085  0.6820 -1.0715
19840TIP3    H281012   5.782   5.682  11.811 -0.0064 -1.1049 -1.9059
19841TIP3   OH281013   6.036   0.345   3.382 -0.4446 -0.0762 -0.6890
19841TIP3    H181014   6.103   0.313   3.323  0.4575  0.2463  0.1501
19841TIP3    H281015   6.018   0.272   3.442 -1.3798 -0.4141 -1.3696
19842TIP3   OH281016   2.102   2.423  13.037 -0.2014 -0.1011 -0.5912
19842TIP3    H181017   2.197   2.434  13.042  0.0728 -2.8346  0.8142
19842TIP3    H281018   2.066   2.507  13.067  1.7371  1.3613 -2.2274
19843TIP3   OH281019   5.877   4.119   1.310 -0.1024 -0.5232  0.0014
19843TIP3    H181020   5.820   4.151   1.241 -0.8268 -0.8225  0.4627
19843TIP3    H281021   5.911   4.036   1.277  0.0015 -0.3898 -0.2310
19844TIP3   OH281022   4.743   0.970  14.070 -0.4407  0.1604 -0.4855
19844TIP3    H181023   4.759   1.032  14.141 -0.6496  0.0501 -0.3437
19844TIP3    H281024   4.786   0.889  14.098  0.4923  0.4661 -1.0186
19845TIP3   OH281025   3.726   5.300   4.410  0.0470 -0.2675 -0.0259
19845TIP3    H181026   3.652   5.241   4.423  0.6513 -1.2029 -0.8221
19845TIP3    H281027   3.698   5.360   4.341  0.0122 -0.5792 -0.2812
19846TIP3   OH281028   1.522   2.038  16.994 -0.4040  0.0436  0.4230
19846TIP3    H181029   1.471   1.969  16.951  0.6106 -0.0444 -0.6578
19846TIP3    H281030   1.541   2.003  17.081 -0.0391 -0.9704 -0.0591
19847TIP3   OH281031   0.093   4.015   6.072  0.1366  0.0801 -0.1939
19847TIP3    H181032   0.037   3.975   6.139 -0.2174  0.6380 -0.1588
19847TIP3    H281033   0.046   4.093   6.045  0.0881 -0.3529 -1.3886
19848TIP3   OH281034   0.876   5.005  15.933  0.0392  0.7218  0.0759
19848TIP3    H181035   0.833   5.065  15.874  0.0953  0.3770 -0.3159
19848TIP3    H281036   0.895   4.928  15.880  1.7970  1.1581  0.0391
19849TIP3   OH281037   4.406   6.577   2.680  0.0326 -0.5304 -0.1254
19849TIP3    H181038   4.391   6.539   2.594  2.2217 -0.1941 -0.6870
19849TIP3    H281039   4.438   6.504   2.733  1.1947 -0.1926 -0.3391
19850TIP3   OH281040   5.518   1.105   0.330  0.1718  0.2313  0.5316
19850TIP3    H181041   5.538   1.012   0.314  1.6853  0.7250 -0.6126
19850TIP3    H281042   5.563   1.125   0.413 -0.5895 -0.1890  1.0458
19851TIP3   OH281043   5.060   3.780   3.096  0.0534  0.0347 -0.2948
19851TIP3    H181044   5.030   3.854   3.043  0.8740 -0.5936 -1.6515
19851TIP3    H281045   4.987   3.762   3.155 -0.4701  1.4059 -0.4969
19852TIP3   OH281046   1.676   1.367   1.236  0.1442  0.7788 -0.3836
19852TIP3    H181047   1.703   1.288   1.283 -1.6718  0.0679 -0.4941
19852TIP3    H281048   1.706   1.352   1.146  0.3082  0.4607 -0.2791
19853TIP3   OH281049   5.206   4.745   2.140  0.3422  0.1928 -0.4522
19853TIP3    H181050   5.194   4.821   2.197  1.3497 -0.5031  0.7133
19853TIP3    H281051   5.291   4.759   2.099 -0.1672  0.4555 -1.4295
19854TIP3   OH281052   1.344   2.180  12.956 -1.0209 -0.1609 -0.0543
19854TIP3    H181053   1.382   2.129  13.027 -0.8180  0.5281  0.3373
19854TIP3    H281054   1.368   2.133  12.877  0.5867  0.2167  0.1926
19855TIP3   OH281055   5.223   3.829  17.116 -0.0973  0.1049 -0.4213
19855TIP3    H181056   5.296   3.831  17.054 -1.3758  0.8644 -1.9347
19855TIP3    H281057   5.147   3.859  17.066 -1.4600 -0.6297  1.1257
19856TIP3   OH281058   4.467   2.357  10.650 -0.5853 -0.4336 -0.6356
19856TIP3    H181059   4.393   2.404  10.688  1.0383  0.8662  0.9755
19856TIP3    H281060   4.532   2.424  10.632  1.0563 -1.8253 -0.0123
19857TIP3   OH281061   5.490   5.758  15.354 -0.6944 -0.1896 -0.3395
19857TIP3    H181062   5.584   5.741  15.348 -0.2006  2.3363 -0.1458
19857TIP3    H281063   5.454   5.723  15.272  0.3794 -1.1968 -0.3999
19858TIP3   OH281064   1.768   6.587   6.416  0.3928 -0.1913 -0.1919
19858TIP3    H181065   1.700   6.562   6.479  0.7920  2.3212  1.2751
19858TIP3    H281066   1.722   6.636   6.349  1.0297  3.6844  2.0787
19859TIP3   OH281067   0.508   0.404  14.405 -0.4044 -0.1319 -0.6466
19859TIP3    H181068   0.599   0.381  14.426 -0.7197 -1.2155 -0.4164
19859TIP3    H281069   0.487   0.476  14.465  0.0328 -0.4449 -0.1079
19860TIP3   OH281070   2.427   0.672  11.374  0.4231  0.0526 -0.2187
19860TIP3    H181071   2.462   0.646  11.459  0.0372 -0.7256 -0.2933
19860TIP3    H281072   2.477   0.621  11.310  0.9617  0.9054 -0.4847
19861TIP3   OH281073   2.007   1.954   2.755  0.9655  0.5860 -0.0215
19861TIP3    H181074   2.031   2.022   2.692  1.1256  0.7060  0.1654
19861TIP3    H281075   2.021   1.872   2.709  2.0357  0.6445  0.1803
19862TIP3   OH281076   1.178   4.633   4.181 -0.3112  0.4498  0.9403
19862TIP3    H181077   1.159   4.543   4.207  0.6568  0.2423  0.9498
19862TIP3    H281078   1.093   4.677   4.183 -0.9040 -0.6417  0.2395
19863TIP3   OH281079   0.501   3.577   6.264  0.0887  0.5694  0.2888
19863TIP3    H181080   0.438   3.619   6.323  1.1586  0.6988  1.3555
19863TIP3    H281081   0.450   3.511   6.218 -0.5680 -0.1810  2.0614
19864TIP3   OH281082   3.377   3.909  16.620  0.0467 -0.5057  0.2850
19864TIP3    H181083   3.456   3.961  16.604 -0.0864 -0.4287 -0.1343
19864TIP3    H281084   3.367   3.857  16.540  0.5334 -1.6360  0.9568
19865TIP3   OH281085   3.303   3.106  14.671 -0.0579  0.3885  0.3452
19865TIP3    H181086   3.231   3.169  14.678  0.6071  1.2619 -0.4908
19865TIP3    H281087   3.299   3.056  14.752  0.2544  2.4104  1.6349
19866TIP3   OH281088   6.214   4.131   0.040 -0.3711  0.1351  0.0285
19866TIP3    H181089   6.237   4.039   0.027 -1.3579  0.1272 -1.8646
19866TIP3    H281090   6.238   4.173  -0.043 -2.4182  1.0670 -0.1114
19867TIP3   OH281091   4.109   4.744   4.642  0.2768 -0.3453  0.3040
19867TIP3    H181092   4.149   4.823   4.677 -0.7931  0.2784  0.1454
19867TIP3    H281093   4.015   4.758   4.654  0.0504 -1.3014 -0.3342
19868TIP3   OH281094   3.890   4.497  13.300 -0.1323  0.2463 -0.1085
19868TIP3    H181095   3.797   4.487  13.279  0.1380 -0.1286 -1.1778
19868TIP3    H281096   3.926   4.545  13.225  0.7995 -0.8194 -0.3648
19869TIP3   OH281097   5.744   5.751  12.361  0.0370  0.5629  0.2355
19869TIP3    H181098   5.767   5.784  12.448 -1.3924 -0.2633  0.9484
19869TIP3    H281099   5.786   5.664  12.357 -0.0064  0.5461  0.1440
19870TIP3   OH281100   6.675   1.784  11.303  0.0505  0.0924 -0.2406
19870TIP3    H181101   6.746   1.793  11.367  1.1785  0.7385 -1.5606
19870TIP3    H281102   6.653   1.690  11.306  1.5595 -0.2827 -0.4326
19871TIP3   OH281103   5.773   0.568   5.321 -0.0747 -0.0540 -0.2919
19871TIP3    H181104   5.762   0.474   5.340  0.7054 -0.3312 -1.1594
19871TIP3    H281105   5.754   0.611   5.404 -1.1562 -0.9364 -0.0734
19872TIP3   OH281106   1.420   1.307  13.065 -0.9788  0.6528 -0.1225
19872TIP3    H181107   1.377   1.229  13.030  1.4281 -1.2406  0.9594
19872TIP3    H281108   1.378   1.320  13.151  0.1479 -0.8402  0.6804
19873TIP3   OH281109   0.325   1.855   0.782  0.5367 -0.0378  0.9449
19873TIP3    H181110   0.413   1.845   0.746  0.0044 -1.7659  0.0564
19873TIP3    H281111   0.268   1.855   0.705 -0.4343 -1.5358  1.6449
19874TIP3   OH281112   2.950   1.627   4.671  0.7026  0.1340  0.1079
19874TIP3    H181113   2.908   1.550   4.709 -1.9867  1.4880 -0.0039
19874TIP3    H281114   2.985   1.675   4.746  1.7194 -0.7978  0.2393
19875TIP3   OH281115   3.141   6.586  16.074 -0.3744  0.5201 -0.0969
19875TIP3    H181116   3.140   6.630  15.989  0.5940  0.0584 -0.3496
19875TIP3    H281117   3.059   6.535  16.075 -0.2401  0.2821 -0.8824
19876TIP3   OH281118   3.162   4.915  10.866  0.0303 -0.2874 -0.1891
19876TIP3    H181119   3.092   4.945  10.924 -0.5945  0.0994 -1.1238
19876TIP3    H281120   3.130   4.936  10.778  1.5131  0.3033 -0.6030
19877TIP3   OH281121   4.888   4.338   4.642  0.0131 -0.0860  0.2866
19877TIP3    H181122   4.976   4.335   4.679  0.1810 -0.1363 -0.1244
19877TIP3    H281123   4.879   4.257   4.593  0.8250  1.2633 -2.1567
19878TIP3   OH281124   1.776   4.987   2.075 -0.0260  0.5784 -0.4522
19878TIP3    H181125   1.748   4.896   2.090 -2.5895  1.3313 -0.4570
19878TIP3    H281126   1.848   5.000   2.137  1.1649 -1.8128 -1.2847
19879TIP3   OH281127   6.066   3.608  16.851 -0.0571 -0.1380 -0.3307
19879TIP3    H181128   6.132   3.541  16.868  0.9160  0.9731  0.4023
19879TIP3    H281129   6.066   3.662  16.931 -1.7262 -0.0229 -0.4072
19880TIP3   OH281130   3.263   4.698   4.229 -0.1836  0.3793  0.0129
19880TIP3    H181131   3.193   4.747   4.273 -0.9744 -1.0401  0.3803
19880TIP3    H281132   3.337   4.759   4.225 -1.1240  1.5674  0.5114
19881TIP3   OH281133   5.791   3.447   6.236 -0.5260 -0.2304  0.6003
19881TIP3    H181134   5.739   3.491   6.303 -0.2150  0.1617  0.5909
19881TIP3    H281135   5.865   3.409   6.284 -0.2835  0.0815  0.4789
19882TIP3   OH281136   0.065   5.267  17.062 -0.2935  0.4497 -0.1204
19882TIP3    H181137   0.026   5.189  17.021  2.9534 -1.1613 -0.3359
19882TIP3    H281138  -0.009   5.314  17.100 -2.6407 -1.3778 -2.2661
19883TIP3   OH281139   4.024   3.198   6.883 -0.5471  0.5225  0.1821
19883TIP3    H181140   4.011   3.291   6.867  0.8962  0.5484 -0.9531
19883TIP3    H281141   3.942   3.157   6.859  0.0602  1.0787 -3.0705
19884TIP3   OH281142   1.456   6.196  15.882  0.0003  0.2141  0.3820
19884TIP3    H181143   1.473   6.286  15.852 -0.1492  0.3996  0.8543
19884TIP3    H281144   1.536   6.169  15.926 -0.6818  0.8601  2.0514
19885TIP3   OH281145   0.238   4.421  14.284  0.3477 -0.3868  0.2669
19885TIP3    H181146   0.308   4.415  14.219 -0.8063  1.2660 -1.1820
19885TIP3    H281147   0.219   4.330  14.306  2.6142 -0.8639  0.3299
19886TIP3   OH281148   6.550   6.680   1.366  0.4902  0.3857  0.3958
19886TIP3    H181149   6.561   6.601   1.419  0.5677  0.4912  0.5348
19886TIP3    H281150   6.465   6.716   1.393  0.5696  0.4869  0.5108
19887TIP3   OH281151   2.803   6.552  10.601 -0.4853 -0.1196 -0.2141
19887TIP3    H181152   2.865   6.592  10.662  0.5761 -1.0424 -0.6697
19887TIP3    H281153   2.718   6.557  10.646 -0.7048  4.0367 -0.8940
19888TIP3   OH281154   2.897   6.106   0.751  0.1796  0.2118 -0.3261
19888TIP3    H181155   2.809   6.141   0.740  0.0035  1.2052  3.5985
19888TIP3    H281156   2.886   6.011   0.745 -0.7663  0.4206 -2.0866
19889TIP3   OH281157   6.644   4.173   0.267 -0.1921 -0.4237  0.4141
19889TIP3    H181158   6.699   4.112   0.218  0.2905 -0.5931  1.1540
19889TIP3    H281159   6.640   4.137   0.356 -1.7036 -0.5398  0.3155
19890TIP3   OH281160   1.098   0.274  15.271  0.1569  0.7572  0.5413
19890TIP3    H181161   1.116   0.195  15.321 -2.2039  0.0601  0.3297
19890TIP3    H281162   1.099   0.246  15.180 -1.5703  0.7634  0.5069
19891TIP3   OH281163   0.404   5.904   1.579  0.0390  0.0314  0.2263
19891TIP3    H181164   0.423   5.811   1.578 -1.1960 -0.2578  2.0517
19891TIP3    H281165   0.468   5.941   1.639  0.4460  0.3490 -0.3974
19892TIP3   OH281166   1.724   0.380  16.638 -0.1091 -0.3031  0.5983
19892TIP3    H181167   1.718   0.332  16.721  2.8184  0.4451  1.3046
19892TIP3    H281168   1.758   0.315  16.576  1.5602  0.1671  0.9853
19893TIP3   OH281169   4.171   6.793  15.339  0.0396 -0.1260 -0.2622
19893TIP3    H181170   4.207   6.713  15.378  1.3419  0.6972  0.2711
19893TIP3    H281171   4.237   6.859  15.357 -1.2976  1.2028 -0.2036
19894TIP3   OH281172   2.868   0.805  13.464  0.0778 -0.0431 -0.3374
19894TIP3    H181173   2.941   0.860  13.491  1.1049 -1.5948  0.1202
19894TIP3    H281174   2.906   0.718  13.454 -1.8582 -1.0311  0.6105
19895TIP3   OH281175   5.492   5.891  13.071 -1.0337 -0.6422 -0.7466
19895TIP3    H181176   5.555   5.902  12.999  0.3312 -2.7367  0.0643
19895TIP3    H281177   5.430   5.826  13.038  0.7926 -3.1873  0.6641
19896TIP3   OH281178   1.728   4.374   5.130  0.2585 -0.5029  0.3076
19896TIP3    H181179   1.748   4.323   5.208 -2.1964 -2.9288 -0.5716
19896TIP3    H281180   1.717   4.309   5.061  3.2402  1.6243 -2.3257
19897TIP3   OH281181   0.430   5.324   3.920 -0.8082 -0.2174  0.2622
19897TIP3    H181182   0.480   5.405   3.928 -2.1983  0.6413  0.4934
19897TIP3    H281183   0.398   5.326   3.829  0.3611 -1.2384 -0.1848
19898TIP3   OH281184   0.810   6.043  15.761 -0.7680 -0.3506 -0.5953
19898TIP3    H181185   0.737   6.105  15.756 -1.9865 -1.6775  0.1564
19898TIP3    H281186   0.781   5.968  15.708  1.1861  0.1842 -2.4798
19899TIP3   OH281187   6.487   4.172   1.865  0.7535 -0.4712 -0.1499
19899TIP3    H181188   6.522   4.258   1.842  0.0143  0.0176  0.5523
19899TIP3    H281189   6.402   4.168   1.820  0.3482 -0.4396  0.6008
19900TIP3   OH281190   1.358   0.329   1.216  0.2015 -0.0833 -0.0922
19900TIP3    H181191   1.392   0.248   1.180 -1.7787 -0.4376 -1.2279
19900TIP3    H281192   1.340   0.309   1.308  1.1834 -0.4598  0.0178
19901TIP3   OH281193   0.852   1.447  14.718 -0.1143  0.0702  0.3626
19901TIP3    H181194   0.800   1.405  14.787  0.1051  0.4384  0.7530
19901TIP3    H281195   0.942   1.418  14.736 -0.5423 -2.9617 -2.0413
19902TIP3   OH281196   5.525   1.208   5.478 -0.0624  0.5209 -0.0707
19902TIP3    H181197   5.432   1.231   5.489  0.0302  0.8713 -0.0291
19902TIP3    H281198   5.538   1.206   5.384  0.2513  1.9436 -0.0757
19903TIP3   OH281199   0.559   6.222   2.962 -0.2292 -0.2194 -0.2523
19903TIP3    H181200   0.465   6.216   2.945 -0.2579  0.2963 -0.2800
19903TIP3    H281201   0.568   6.293   3.026  0.2281  0.3569 -0.9543
19904TIP3   OH281202   6.502   0.060  13.487 -0.4032 -0.4078 -0.4378
19904TIP3    H181203   6.584   0.016  13.465  1.1028  1.8343  0.4577
19904TIP3    H281204   6.478   0.026  13.573  0.4687  0.0830  0.0093
19905TIP3   OH281205   5.488   6.738  13.246  0.1350 -0.2240  0.4401
19905TIP3    H181206   5.566   6.689  13.220  0.0234  1.2076 -2.8109
19905TIP3    H281207   5.522   6.817  13.288  0.4021 -0.1257  0.0326
19906TIP3   OH281208   4.687   4.648   1.957  0.0819 -0.0805 -0.1205
19906TIP3    H181209   4.675   4.664   2.051  0.5936  2.6383 -0.4800
19906TIP3    H281210   4.607   4.603   1.930 -0.7012  0.3904  1.3581
19907TIP3   OH281211   1.850   1.393  16.935 -0.7266  0.2113 -0.2432
19907TIP3    H181212   1.793   1.420  17.007 -1.1683 -1.6102  0.1125
19907TIP3    H281213   1.889   1.310  16.965  0.4837  0.3597 -1.3564
19908TIP3   OH281214   1.082   5.206  11.350 -0.4636 -0.1068 -0.0188
19908TIP3    H181215   1.106   5.202  11.257  0.5693 -2.7235  0.3273
19908TIP3    H281216   1.119   5.289  11.380  0.6909 -0.0453 -1.5320
19909TIP3   OH281217   2.803   1.173  14.761  0.2533  1.1088  0.2340
19909TIP3    H181218   2.804   1.183  14.666  0.1257 -0.5728  0.0445
19909TIP3    H281219   2.895   1.170  14.786  0.3016 -1.3452 -0.1719
19910TIP3   OH281220   5.375   2.628  13.060 -0.4719 -1.3350  0.1451
19910TIP3    H181221   5.432   2.624  12.983 -0.6053 -0.0667 -0.0268
19910TIP3    H281222   5.431   2.662  13.130 -1.1213  0.3332 -0.1338
19911TIP3   OH281223   2.492   5.167   4.377  0.2242  0.1142 -0.3590
19911TIP3    H181224   2.540   5.158   4.460  0.3603 -3.2938 -0.7671
19911TIP3    H281225   2.556   5.204   4.316  0.0763  2.8217  1.0520
19912TIP3   OH281226   6.602   4.413  12.270  0.0165  0.1096  0.1385
19912TIP3    H181227   6.660   4.343  12.300 -0.6544 -0.9469 -0.9998
19912TIP3    H281228   6.554   4.439  12.349  1.1320  0.1233  0.8185
19913TIP3   OH281229   0.792   6.416   5.118 -0.2227  0.1411 -0.4409
19913TIP3    H181230   0.745   6.340   5.152 -1.0740  1.7302  2.0353
19913TIP3    H281231   0.872   6.421   5.170  1.9245 -1.4881 -3.4425
19914TIP3   OH281232   0.881   2.781   1.361  0.4651  0.0910  0.0309
19914TIP3    H181233   0.833   2.863   1.348  0.5477  0.2239  0.5409
19914TIP3    H281234   0.952   2.804   1.421  2.1744  0.2738 -1.9881
19915TIP3   OH281235   4.000   3.341  15.573 -0.1561 -0.3789 -0.0909
19915TIP3    H181236   4.087   3.374  15.595  0.9887 -1.3701 -2.9230
19915TIP3    H281237   3.968   3.399  15.505 -1.3595 -0.5677  0.2880
19916TIP3   OH281238   6.396   2.337   1.183  0.2685  0.2334 -0.0683
19916TIP3    H181239   6.407   2.276   1.256 -2.4346 -0.0799  0.1096
19916TIP3    H281240   6.385   2.280   1.107  0.3156  0.5233 -0.2885
19917TIP3   OH281241   1.887   3.495   0.846  0.0077 -0.1635 -0.2220
19917TIP3    H181242   1.916   3.440   0.773  1.8709 -0.1717  0.5127
19917TIP3    H281243   1.869   3.432   0.916  0.8268  0.0511  0.1821
19918TIP3   OH281244   2.250   6.590   5.212 -0.4910  0.0318  0.0413
19918TIP3    H181245   2.343   6.569   5.205 -0.1337  0.8412  2.1745
19918TIP3    H281246   2.240   6.672   5.164  0.0688  0.4162  0.5794
19919TIP3   OH281247   6.493   3.178  15.698 -0.5252  0.2619  0.1270
19919TIP3    H181248   6.585   3.165  15.717  0.1863  2.1726 -1.7874
19919TIP3    H281249   6.470   3.259  15.744 -0.9802  0.3646 -0.2785
19920TIP3   OH281250   6.545   3.718   1.823 -0.1211 -0.1736  0.6692
19920TIP3    H181251   6.556   3.727   1.918  0.4935 -1.2470  0.7072
19920TIP3    H281252   6.631   3.739   1.787 -0.0078 -1.0413  0.4351
19921TIP3   OH281253   3.647   1.599  10.727  0.1925 -0.4630 -0.2236
19921TIP3    H181254   3.591   1.619  10.652 -0.8850  1.5276  1.0864
19921TIP3    H281255   3.716   1.665  10.723  0.8179 -1.1064 -0.1416
19922TIP3   OH281256   1.034   3.469   4.147 -0.1003  0.1868 -0.0400
19922TIP3    H181257   1.092   3.538   4.179 -0.5624  0.6486 -0.1974
19922TIP3    H281258   1.093   3.396   4.129  0.3760  0.4912  0.2529
19923TIP3   OH281259   0.486   1.196   2.712 -0.1950 -0.3720 -0.1829
19923TIP3    H181260   0.436   1.120   2.743 -1.7951 -0.6615 -3.1695
19923TIP3    H281261   0.433   1.272   2.738  0.0522 -0.4429  0.5150
19924TIP3   OH281262   4.553   2.398   5.974 -0.2329  0.4782 -0.2155
19924TIP3    H181263   4.640   2.383   6.010  0.1639  1.1043 -0.8858
19924TIP3    H281264   4.501   2.431   6.048  0.0667 -0.0149  0.2101
19925TIP3   OH281265   2.412   5.853   3.997  0.1148 -0.5943  0.1389
19925TIP3    H181266   2.340   5.827   3.939 -1.3492 -0.0571  1.6976
19925TIP3    H281267   2.384   5.826   4.084  0.5314  2.2393  1.1780
19926TIP3   OH281268   1.151   4.037  15.692  0.2366 -0.3401  0.5267
19926TIP3    H181269   1.139   4.079  15.777  0.5960 -2.2787  1.5767
19926TIP3    H281270   1.232   3.987  15.701  0.8824  0.3121 -1.3498
19927TIP3   OH281271   4.895   4.596  13.031 -0.1594 -0.2719  0.2128
19927TIP3    H181272   4.962   4.530  13.050 -0.4373 -0.6363 -0.0587
19927TIP3    H281273   4.813   4.556  13.060  0.0830  1.4050  3.5256
19928TIP3   OH281274   3.086   6.248  13.103  0.3148  0.0598 -0.5304
19928TIP3    H181275   3.124   6.255  13.015  1.0314  1.6053 -0.1075
19928TIP3    H281276   3.124   6.321  13.152  0.9601 -1.5817  1.4622
19929TIP3   OH281277   3.308   3.446  16.326  0.0157 -0.0266 -0.0950
19929TIP3    H181278   3.213   3.441  16.325 -0.0038 -0.0024  1.1736
19929TIP3    H281279   3.335   3.388  16.398  0.8569  1.4715  0.8206
19930TIP3   OH281280   1.076   4.864   0.259  0.5645  0.4936 -0.3136
19930TIP3    H181281   1.129   4.912   0.323  2.2692  1.3070 -2.2752
19930TIP3    H281282   1.033   4.795   0.310  2.2796  0.8131  1.6199
19931TIP3   OH281283   1.526   2.053   3.589  0.6191 -0.2053  0.5612
19931TIP3    H181284   1.568   1.971   3.563  0.5760 -0.7704  2.2157
19931TIP3    H281285   1.462   2.027   3.656 -0.4223  0.9935  0.0419
19932TIP3   OH281286   0.728   3.399   5.091  0.3032 -0.4691 -0.5375
19932TIP3    H181287   0.741   3.321   5.145  3.9457 -0.9782 -1.9846
19932TIP3    H281288   0.703   3.365   5.005  0.4983 -0.0010 -0.7824
19933TIP3   OH281289   4.428   6.234   5.855  0.0811 -0.2397 -0.0110
19933TIP3    H181290   4.415   6.265   5.945 -1.2516  1.0457 -0.6174
19933TIP3    H281291   4.458   6.311   5.807  0.2288 -0.7776 -0.7856
19934TIP3   OH281292   3.337   0.712  15.494  0.7242  0.0350 -0.1602
19934TIP3    H181293   3.274   0.644  15.520  0.5934  0.0531 -0.4321
19934TIP3    H281294   3.290   0.794  15.510  0.5451  0.0410 -0.7068
19935TIP3   OH281295   1.984   5.912   3.677 -0.2422  0.1684 -0.4191
19935TIP3    H181296   2.052   5.887   3.616 -1.6755  0.3545 -2.1258
19935TIP3    H281297   1.912   5.943   3.622 -1.9069 -0.5382  1.3048
19936TIP3   OH281298   1.255   5.194  13.715  0.5196  0.0553  0.0470
19936TIP3    H181299   1.258   5.110  13.761 -0.4374  0.0803  0.1748
19936TIP3    H281300   1.200   5.177  13.639 -0.9899  0.9503  0.9017
19937TIP3   OH281301   2.053   5.546  13.446  0.7824 -0.7127  0.0397
19937TIP3    H181302   2.069   5.639  13.430 -1.2607 -0.5672 -1.4531
19937TIP3    H281303   2.066   5.535  13.540 -1.2772  1.5984  0.6488
19938TIP3   OH281304   4.849   2.654  16.823  0.4344 -0.3116  0.1844
19938TIP3    H181305   4.832   2.604  16.742  0.9676 -0.9240  0.4462
19938TIP3    H281306   4.936   2.692  16.810  1.0902 -1.4993  1.0059
19939TIP3   OH281307   2.635   5.354   2.011  0.4491 -0.0558  0.4435
19939TIP3    H181308   2.683   5.285   1.964  1.1802 -0.1490  1.3213
19939TIP3    H281309   2.565   5.378   1.951  1.2725 -0.2869 -0.6465
19940TIP3   OH281310   0.308   2.903  16.009  0.7479 -0.0180 -0.2063
19940TIP3    H181311   0.399   2.905  15.979  1.2904  0.0389  1.3717
19940TIP3    H281312   0.290   2.810  16.024  0.4506 -0.0539 -0.7537
19941TIP3   OH281313   0.056   4.279   3.812 -0.6550 -0.7823  0.3473
19941TIP3    H181314  -0.027   4.316   3.844 -1.4571 -1.7479 -0.5775
19941TIP3    H281315   0.080   4.213   3.877 -0.8832 -0.8661  0.3479
19942TIP3   OH281316   4.470   2.279   7.107  0.2002 -0.0138  0.0614
19942TIP3    H181317   4.551   2.309   7.149  0.2895  0.6651 -0.5923
19942TIP3    H281318   4.453   2.344   7.039 -1.6310  0.6043  1.0747
19943TIP3   OH281319   3.910   0.224  15.942 -0.2417 -0.0806 -0.4550
19943TIP3    H181320   3.942   0.247  15.855  1.1754 -1.0122 -0.1954
19943TIP3    H281321   3.877   0.306  15.979  0.1827  0.5307 -1.4395
19944TIP3   OH281322   3.299   5.784   5.362 -0.2809  0.0882  0.2005
19944TIP3    H181323   3.307   5.866   5.412  0.1015 -0.4019  0.9503
19944TIP3    H281324   3.209   5.784   5.331 -1.0705 -0.4314  2.3798
19945TIP3   OH281325   1.289   1.090  16.957  0.3853 -0.1748 -0.0930
19945TIP3    H181326   1.373   1.120  16.990 -0.6288  1.6805  0.9167
19945TIP3    H281327   1.228   1.102  17.030 -1.1794  0.5936 -1.4596
19946TIP3   OH281328   1.012   3.568  13.326 -0.1995  0.3119 -0.6192
19946TIP3    H181329   0.920   3.560  13.349 -0.5703 -0.6948 -2.4097
19946TIP3    H281330   1.020   3.528  13.240  2.1824 -0.9700  0.1259
19947TIP3   OH281331   3.344   4.814  15.703  0.5057  0.5512 -0.0592
19947TIP3    H181332   3.314   4.769  15.782 -0.8792  2.3196  0.4485
19947TIP3    H281333   3.390   4.892  15.736 -0.3522  1.4652 -0.9751
19948TIP3   OH281334   0.201   0.239   4.616  0.1723 -0.3808  0.2835
19948TIP3    H181335   0.182   0.179   4.687  0.8451 -0.7952  0.1198
19948TIP3    H281336   0.116   0.253   4.573 -0.3067  0.1940  1.4029
19949TIP3   OH281337   3.953   2.061  13.063  0.1012 -0.2442  0.1657
19949TIP3    H181338   4.004   2.042  13.143  0.0402 -1.7991 -0.1430
19949TIP3    H281339   3.905   2.141  13.084  0.7995 -0.1146  1.3552
19950TIP3   OH281340   0.245   3.744  16.390 -0.7670 -0.2566 -0.1888
19950TIP3    H181341   0.170   3.716  16.337 -0.1127 -0.0978 -1.2255
19950TIP3    H281342   0.275   3.825  16.349  1.3078 -1.4596 -1.1542
19951TIP3   OH281343   5.496   6.280  16.092 -0.1285  0.6884 -0.0457
19951TIP3    H181344   5.452   6.304  16.173  0.2342  0.8335  0.1066
19951TIP3    H281345   5.463   6.192  16.073 -0.2260  0.6605  0.2482
19952TIP3   OH281346   3.965   1.220  15.070 -0.0979  0.4559 -0.0038
19952TIP3    H181347   3.940   1.234  15.161 -1.5919 -2.2147  0.0475
19952TIP3    H281348   3.892   1.256  15.019  0.4790  1.4343 -0.1636
19953TIP3   OH281349   0.712   1.584  14.409 -0.0473 -0.9120 -0.2568
19953TIP3    H181350   0.645   1.544  14.465  0.5141  1.5120  2.2542
19953TIP3    H281351   0.673   1.667  14.381  0.8546 -0.7599 -1.0689
19954TIP3   OH281352   6.388   1.886  15.787  0.5154 -0.5710 -0.0033
19954TIP3    H181353   6.464   1.851  15.833  0.1419  1.1393  1.9871
19954TIP3    H281354   6.413   1.975  15.763 -0.5291 -0.3016 -0.1428
19955TIP3   OH281355   5.203   5.194   1.201 -0.4579  0.6037 -0.0141
19955TIP3    H181356   5.124   5.205   1.147 -0.3202  2.1082  0.0914
19955TIP3    H281357   5.175   5.137   1.272 -1.0598 -0.1010 -0.7975
19956TIP3   OH281358   6.428   5.363  14.693 -0.2501 -0.2190  0.7000
19956TIP3    H181359   6.520   5.385  14.708  0.1314 -0.5798 -0.9725
19956TIP3    H281360   6.414   5.383  14.600 -1.1562 -2.6166  0.2929
19957TIP3   OH281361   1.621   5.934   2.959 -0.3340 -0.1277 -0.2887
19957TIP3    H181362   1.568   5.999   2.913  1.4001  1.0185 -0.6948
19957TIP3    H281363   1.670   5.890   2.890  0.5752  0.0399  0.2453
19958TIP3   OH281364   1.790   0.680  12.313 -0.9903 -0.1966  0.3634
19958TIP3    H181365   1.765   0.772  12.305  1.9935  0.5136 -1.6219
19958TIP3    H281366   1.827   0.672  12.401 -1.0337  0.5592  0.4514
19959TIP3   OH281367   0.780   5.327  10.575 -0.0037 -0.7135 -0.3162
19959TIP3    H181368   0.812   5.239  10.554  1.2121 -0.2933 -0.2860
19959TIP3    H281369   0.745   5.360  10.493 -0.3433 -1.1795 -0.3605
19960TIP3   OH281370   3.055   3.137   4.196 -0.5076  0.4851  0.1427
19960TIP3    H181371   2.959   3.142   4.196 -0.9290 -4.2389  2.5270
19960TIP3    H281372   3.077   3.118   4.287  2.3322 -2.2495 -1.0242
19961TIP3   OH281373   4.373   3.109   3.969  0.1493 -0.8508 -0.1502
19961TIP3    H181374   4.412   3.105   3.882  0.0890  1.8537 -0.3681
19961TIP3    H281375   4.448   3.110   4.029  0.4019  1.8288 -0.4434
19962TIP3   OH281376   0.482   4.476  15.124  0.2464 -0.2782  0.9727
19962TIP3    H181377   0.494   4.397  15.176 -0.7875 -1.0367  0.0776
19962TIP3    H281378   0.536   4.462  15.046  1.3235  0.5953  1.5490
19963TIP3   OH281379   1.746   3.437  15.562 -0.4674  0.4199 -0.1362
19963TIP3    H181380   1.760   3.345  15.580 -0.9289  0.0662 -1.4922
19963TIP3    H281381   1.659   3.441  15.522 -1.5253  1.7656  2.1789
19964TIP3   OH281382   5.933   4.608   3.125  0.4278 -0.2039  0.4075
19964TIP3    H181383   5.950   4.699   3.148  1.3961 -0.0400 -0.8540
19964TIP3    H281384   5.847   4.588   3.162 -0.2973  1.5762 -0.2909
19965TIP3   OH281385   1.934   2.599   3.654  0.1764  0.9358  0.2678
19965TIP3    H181386   1.895   2.583   3.740  0.6021  0.6734  0.4147
19965TIP3    H281387   2.021   2.561   3.660  0.8100  2.3383  0.2577
19966TIP3   OH281388   0.991   5.142   2.954 -0.1630 -0.4586 -1.0765
19966TIP3    H181389   1.083   5.156   2.935  0.0381  0.8750  0.6921
19966TIP3    H281390   0.985   5.147   3.050 -2.4419  2.0259 -1.2864
19967TIP3   OH281391   4.379   3.060   6.345  0.0565  0.3649  0.3957
19967TIP3    H181392   4.325   2.984   6.365  3.4721 -2.2470  0.2106
19967TIP3    H281393   4.419   3.084   6.429 -0.5425  1.6101  0.3377
19968TIP3   OH281394   5.758   0.583   6.166  0.6064 -0.5150 -0.7383
19968TIP3    H181395   5.834   0.590   6.223  0.1409 -0.1432 -0.1607
19968TIP3    H281396   5.715   0.502   6.193 -0.8403  0.7825  0.9559
19969TIP3   OH281397   2.999   2.393   3.139 -0.2578 -0.7818  0.7335
19969TIP3    H181398   2.978   2.348   3.057  1.3407 -0.5636  0.1820
19969TIP3    H281399   2.916   2.432   3.167 -0.6563 -0.1892 -1.1944
19970TIP3   OH281400   4.276   2.412   1.378  0.2480 -0.3077 -0.0325
19970TIP3    H181401   4.235   2.347   1.321 -1.6745 -1.4860  2.5909
19970TIP3    H281402   4.266   2.495   1.331 -2.1170 -1.0998 -0.9792
19971TIP3   OH281403   1.024   1.858  12.640  0.2199  0.2201 -0.5547
19971TIP3    H181404   1.058   1.929  12.695 -1.1707 -0.1814  0.8708
19971TIP3    H281405   1.004   1.899  12.557  1.2287  1.0987 -0.3749
19972TIP3   OH281406   1.605   4.876  13.002  0.3926  0.0780  0.2035
19972TIP3    H181407   1.621   4.968  13.024 -0.4057  0.3567 -0.3312
19972TIP3    H281408   1.591   4.876  12.908 -1.6896 -0.2530  0.4728
19973TIP3   OH281409   0.902   3.836  14.887  0.6552  0.1309  0.4787
19973TIP3    H181410   0.834   3.854  14.821  0.5313 -1.1100  0.2598
19973TIP3    H281411   0.972   3.897  14.866 -0.3873  1.4377  0.7035
19974TIP3   OH281412   3.202   1.154  15.966 -0.7126  0.2228 -0.2217
19974TIP3    H181413   3.222   1.245  15.986 -2.3618 -0.0418  2.9196
19974TIP3    H281414   3.109   1.145  15.983 -0.8456 -1.7632 -1.7352
19975TIP3   OH281415   5.925   0.025   2.040 -0.1865  0.6332  0.0400
19975TIP3    H181416   5.961   0.039   2.127 -0.1747  0.3765  0.0771
19975TIP3    H281417   5.998  -0.007   1.988 -0.1180  1.0809 -0.1451
19976TIP3   OH281418   3.228   4.919  13.400 -0.0091  0.1630 -0.6846
19976TIP3    H181419   3.243   5.010  13.374  0.3340 -0.3559 -2.3227
19976TIP3    H281420   3.303   4.871  13.364  0.1030 -0.6950  0.6549
19977TIP3   OH281421   4.029   0.661  16.501  0.1543  0.0717  0.4169
19977TIP3    H181422   4.019   0.753  16.477 -0.9288 -0.3841 -0.9685
19977TIP3    H281423   4.054   0.617  16.420 -4.0340 -1.5659 -0.1256
19978TIP3   OH281424   3.106   1.979   3.010 -0.4209  0.4142 -0.2927
19978TIP3    H181425   3.067   2.057   2.971 -1.2297  0.4860  0.6578
19978TIP3    H281426   3.037   1.913   3.006 -0.9710  0.7887  2.1884
19979TIP3   OH281427   5.244   4.034  16.596  0.1410 -0.0851  0.2552
19979TIP3    H181428   5.271   3.943  16.591  2.6685  0.6677 -0.4776
19979TIP3    H281429   5.200   4.050  16.513  0.4339 -0.4138  0.0333
19980TIP3   OH281430   2.804   1.781  12.954 -0.5993 -0.6858  0.1484
19980TIP3    H181431   2.789   1.687  12.947 -0.6159 -0.6846  0.1702
19980TIP3    H281432   2.899   1.789  12.962 -0.4504 -0.6216 -1.3808
19981TIP3   OH281433   0.560   0.446  12.801 -0.1952  0.1768 -0.8073
19981TIP3    H181434   0.510   0.456  12.882 -0.8893 -1.3108 -1.0389
19981TIP3    H281435   0.550   0.531  12.757 -1.9789  0.1342 -0.5493
19982TIP3   OH281436   2.735   0.887  11.827  0.0938 -0.0745 -0.1030
19982TIP3    H181437   2.730   0.931  11.912 -0.6610  1.5675 -0.9783
19982TIP3    H281438   2.663   0.925  11.776 -0.8954 -2.6804 -0.7383
19983TIP3   OH281439   4.658   4.269  14.468  0.4604  0.0391 -0.0288
19983TIP3    H181440   4.586   4.289  14.409  1.0078  0.9196 -0.3943
19983TIP3    H281441   4.632   4.186  14.510  0.6372 -1.2351 -2.3849
19984TIP3   OH281442   5.729   3.742   5.836 -0.3823  0.7511  0.5167
19984TIP3    H181443   5.730   3.709   5.747  1.7249  0.5632  0.5914
19984TIP3    H281444   5.689   3.671   5.887  2.9320 -1.2773  0.4754
19985TIP3   OH281445   6.367   1.909  12.133 -0.1532 -0.4806  0.2401
19985TIP3    H181446   6.432   1.980  12.138  0.4385 -0.9212 -1.1265
19985TIP3    H281447   6.299   1.943  12.074  0.1727 -1.0900 -0.4819
19986TIP3   OH281448   6.137   0.627  15.311 -0.2406 -0.5686  0.1815
19986TIP3    H181449   6.125   0.715  15.347 -0.2076 -0.6692  0.4386
19986TIP3    H281450   6.050   0.586  15.320 -0.0994 -0.7750  0.6385
19987TIP3   OH281451   6.177   1.323   4.721 -0.2255  0.4620 -0.5991
19987TIP3    H181452   6.217   1.401   4.759 -0.6005  0.0597  0.6462
19987TIP3    H281453   6.196   1.253   4.784 -2.8377  0.2458  0.0073
19988TIP3   OH281454   1.684   3.189   0.046 -0.0312 -0.0457 -0.1047
19988TIP3    H181455   1.688   3.182   0.142  0.7099 -0.5895 -0.1673
19988TIP3    H281456   1.604   3.239   0.029 -0.7519 -0.8724  0.7646
19989TIP3   OH281457   2.663   3.788  17.113  0.0964  0.2476 -0.2446
19989TIP3    H181458   2.701   3.707  17.146  0.7199  0.7189  0.1997
19989TIP3    H281459   2.636   3.767  17.023  2.2338  0.1615 -0.8901
19990TIP3   OH281460   6.184   2.086   2.940  0.3097 -0.0008 -0.7763
19990TIP3    H181461   6.129   2.056   3.012 -0.1829  2.5000 -0.0547
19990TIP3    H281462   6.125   2.096   2.866  0.2460  0.3521 -0.6781
19991TIP3   OH281463   6.677   2.991  14.832  0.0442 -0.1051 -0.2273
19991TIP3    H181464   6.628   2.940  14.896  0.1566  0.3618  0.2314
19991TIP3    H281465   6.625   3.071  14.820  0.2029 -0.0370 -0.4534
19992TIP3   OH281466   0.325   2.308   6.120 -0.2068  0.0890  0.4518
19992TIP3    H181467   0.412   2.268   6.131 -0.2835 -0.7726 -1.7715
19992TIP3    H281468   0.270   2.262   6.183  0.9113  0.5286  1.7701
19993TIP3   OH281469   6.742   2.984  12.806 -0.5055 -0.0738  0.7203
19993TIP3    H181470   6.826   2.937  12.800 -0.4500 -0.0221  1.0877
19993TIP3    H281471   6.761   3.071  12.773  0.0950  0.5874  2.7574
19994TIP3   OH281472   3.994   5.246   2.110  0.0201  0.3900 -0.4705
19994TIP3    H181473   4.002   5.321   2.052  0.7126  1.0127  0.4235
19994TIP3    H281474   3.974   5.283   2.196 -0.4686 -0.4957 -0.1917
19995TIP3   OH281475   3.120   4.586  17.171  0.1680 -0.1205  0.3209
19995TIP3    H181476   3.067   4.515  17.133 -0.0185 -0.9664  2.0768
19995TIP3    H281477   3.129   4.561  17.263  0.1033  2.1644  0.9592
19996TIP3   OH281478   6.535   1.230  15.630 -0.3426 -0.0654 -0.5814
19996TIP3    H181479   6.608   1.170  15.647  1.0852  1.6240 -0.5580
19996TIP3    H281480   6.486   1.232  15.712  0.7875  0.3487  0.1058
19997TIP3   OH281481   2.114   2.782  11.874  0.7974  0.3893  0.3581
19997TIP3    H181482   2.029   2.812  11.840  1.8413  1.3903 -1.4606
19997TIP3    H281483   2.118   2.817  11.962 -1.4214 -1.1435  1.1315
19998TIP3   OH281484   4.337   6.761   0.983  0.7787  0.2603 -0.4572
19998TIP3    H181485   4.246   6.755   0.956  0.6891 -0.3342 -0.0404
19998TIP3    H281486   4.345   6.849   1.020 -0.3499 -0.6417  2.0599
19999TIP3   OH281487   1.261   6.663   2.612 -0.1157  0.0241 -0.3197
19999TIP3    H181488   1.228   6.710   2.688 -0.3185  0.3243 -0.5893
19999TIP3    H281489   1.220   6.707   2.537 -0.0543 -0.3755 -0.5925
20000TIP3   OH281490   3.388   1.508   0.019  0.0982  0.2729 -0.1412
20000TIP3    H181491   3.319   1.442   0.022  0.3295  0.0126 -0.4899
20000TIP3    H281492   3.438   1.496   0.099  0.3379 -0.1917 -0.3597
20001TIP3   OH281493   4.556   3.569   5.834  0.3535  0.4753 -0.1341
20001TIP3    H181494   4.636   3.522   5.860 -0.3401  0.0583  1.2901
20001TIP3    H281495   4.561   3.572   5.738  1.7321 -0.1652 -0.1029
20002TIP3   OH281496   1.612   0.244   1.298 -0.4760 -0.3878 -0.0068
20002TIP3    H181497   1.580   0.177   1.237  3.3642 -2.1257 -0.2604
20002TIP3    H281498   1.583   0.327   1.259 -0.0919 -1.5773 -3.0111
20003TIP3   OH281499   6.148   6.734  13.865  0.3592 -0.0863 -0.7820
20003TIP3    H181500   6.084   6.663  13.857  1.0475 -0.7592 -0.3244
20003TIP3    H281501   6.160   6.746  13.959  0.6248  0.2984 -0.8599
20004TIP3   OH281502   1.706   4.772  12.630 -0.4832 -0.2684 -0.0652
20004TIP3    H181503   1.756   4.703  12.675 -2.2949 -1.1800  0.5966
20004TIP3    H281504   1.770   4.815  12.574  0.7135 -2.4157 -0.3897
20005TIP3   OH281505   6.715   0.459   4.011 -0.3636  0.1613  0.4606
20005TIP3    H181506   6.704   0.534   4.068 -1.1664  0.2148  0.2453
20005TIP3    H281507   6.642   0.464   3.949 -1.1532 -1.4788  1.2192
20006TIP3   OH281508   3.533   1.821  11.764  0.1141 -0.3503 -0.2914
20006TIP3    H181509   3.540   1.897  11.822 -0.5102 -0.9565  0.5964
20006TIP3    H281510   3.552   1.856  11.677  2.6876  0.2466  0.4751
20007TIP3   OH281511   3.015   6.576  10.436 -0.9092  0.5218 -0.1681
20007TIP3    H181512   2.935   6.541  10.475 -1.0449  1.8875  0.8273
20007TIP3    H281513   3.008   6.671  10.448 -0.2807  0.8457 -2.2836
20008TIP3   OH281514   6.815   6.343   1.705  0.0039 -0.2941  0.5137
20008TIP3    H181515   6.899   6.384   1.684  0.7369 -2.3582 -0.7496
20008TIP3    H281516   6.804   6.357   1.799  1.0720  1.2414  0.4136
20009TIP3   OH281517   5.033   5.193   4.920 -0.2232 -0.0055 -0.6910
20009TIP3    H181518   5.023   5.106   4.959 -0.2815  0.2166 -0.2156
20009TIP3    H281519   4.945   5.230   4.920 -0.2297 -0.0133 -1.0610
20010TIP3   OH281520   4.469   4.339   3.226 -0.5320  0.5113 -0.1308
20010TIP3    H181521   4.542   4.355   3.285 -0.5621  1.4539 -0.3445
20010TIP3    H281522   4.489   4.392   3.149  0.3170 -1.9216 -1.6497
20011TIP3   OH281523   1.273   0.979   4.987 -0.4328  0.8070  0.0283
20011TIP3    H181524   1.245   0.934   4.908  1.8690 -0.5271 -0.0534
20011TIP3    H281525   1.195   0.981   5.042 -2.0978  1.8647 -2.2899
20012TIP3   OH281526   3.899   5.820  17.190  0.0534  0.0435 -0.3216
20012TIP3    H181527   3.951   5.885  17.145 -1.8670  1.1738 -0.9513
20012TIP3    H281528   3.960   5.777  17.250  1.6669  1.3561 -1.0157
20013TIP3   OH281529   4.208   4.695  12.373 -0.0673 -0.5457  0.3812
20013TIP3    H181530   4.269   4.668  12.442 -0.9732 -0.0604  1.3919
20013TIP3    H281531   4.264   4.722  12.300  0.8865 -1.8956  0.6036
20014TIP3   OH281532   4.751   4.059   3.746  0.2106 -0.3225  0.0150
20014TIP3    H181533   4.757   4.010   3.664 -0.3991  0.2510 -0.3793
20014TIP3    H281534   4.693   4.132   3.726  1.2635  0.6759  0.5514
20015TIP3   OH281535   3.713   1.704   6.141  0.0787 -0.4232 -0.0986
20015TIP3    H181536   3.664   1.776   6.180  0.5742  0.0427 -0.3274
20015TIP3    H281537   3.796   1.702   6.189  0.6271  0.0557 -1.0111
20016TIP3   OH281538   1.244   6.486  12.634 -0.0725  0.4750 -0.1189
20016TIP3    H181539   1.228   6.396  12.604 -1.0349  0.9769 -1.1651
20016TIP3    H281540   1.337   6.500  12.618  0.2943 -0.6327  0.8973
20017TIP3   OH281541   6.229   4.121   0.919  0.1004 -0.1294  1.3281
20017TIP3    H181542   6.294   4.091   0.983  0.2222 -1.7149  0.4837
20017TIP3    H281543   6.177   4.043   0.900  0.2965  0.2238 -0.7878
20018TIP3   OH281544   1.313   4.157   5.345 -0.3188 -0.1801  0.4222
20018TIP3    H181545   1.360   4.232   5.309  0.2409 -1.2499 -1.1385
20018TIP3    H281546   1.313   4.172   5.440 -2.3821  2.9927 -0.0195
20019TIP3   OH281547   4.042   0.659  12.209 -0.1037 -0.3812 -0.0761
20019TIP3    H181548   4.056   0.657  12.303  0.2666 -0.2903 -0.1249
20019TIP3    H281549   4.058   0.750  12.184 -0.1871 -0.4072 -0.2250
20020TIP3   OH281550   1.126   5.628   5.181  0.0699 -0.1920  0.5400
20020TIP3    H181551   1.152   5.539   5.155 -0.5162 -0.4995  1.0059
20020TIP3    H281552   1.055   5.615   5.243 -1.1628  0.6590 -0.6724
20021TIP3   OH281553   5.115   3.232   3.788  0.4034  0.1226  0.5148
20021TIP3    H181554   5.143   3.162   3.846  2.1021 -1.1041 -1.6865
20021TIP3    H281555   5.167   3.308   3.814  0.8974 -0.3163  0.8154
20022TIP3   OH281556   6.762   3.407   4.572  0.0512 -0.0679 -0.4409
20022TIP3    H181557   6.694   3.394   4.506  1.2301 -1.3507 -1.4274
20022TIP3    H281558   6.800   3.320   4.584  1.9720  0.7600 -0.4098
20023TIP3   OH281559   3.856   1.742  14.820  0.6017  0.0593 -0.0586
20023TIP3    H181560   3.845   1.763  14.727  1.4064  0.9612  0.0373
20023TIP3    H281561   3.923   1.673  14.821 -1.8670 -2.4263 -0.3549
20024TIP3   OH281562   2.071   4.825   4.656 -0.0217 -0.3274  0.4174
20024TIP3    H181563   2.020   4.896   4.694  0.0340 -1.5594  2.8806
20024TIP3    H281564   2.015   4.748   4.663  1.0678 -1.1243  0.5574
20025TIP3   OH281565   3.769   1.821   3.070 -0.4968  0.5400 -0.1255
20025TIP3    H181566   3.776   1.889   3.137  0.4439  1.3622 -1.0399
20025TIP3    H281567   3.733   1.867   2.994  3.5746  0.8866 -1.9455
20026TIP3   OH281568   2.184   5.972   6.215 -0.0237  0.0103  0.1601
20026TIP3    H181569   2.219   5.932   6.295 -0.3539  0.0365  0.3201
20026TIP3    H281570   2.122   5.907   6.182 -0.9325  0.6043  0.6883
20027TIP3   OH281571   6.644   4.046   5.826 -0.4663  0.3064  0.3333
20027TIP3    H181572   6.691   4.114   5.874  0.9737  0.5848 -1.4336
20027TIP3    H281573   6.710   3.978   5.810 -1.0038  0.0977 -1.0223
20028TIP3   OH281574   2.404   5.046  15.563  0.4680  0.2999 -0.7558
20028TIP3    H181575   2.425   4.966  15.514 -0.4754  0.0604 -0.7817
20028TIP3    H281576   2.341   5.092  15.508  0.3209  0.6204 -0.3233
20029TIP3   OH281577   6.146   5.647  16.117  0.4549 -0.2389 -0.2180
20029TIP3    H181578   6.221   5.698  16.147 -0.3113  0.3305  0.7702
20029TIP3    H281579   6.178   5.557  16.114  1.1526 -0.0088  0.2815
20030TIP3   OH281580   3.858   3.900   0.768 -0.2016  0.4374 -0.4732
20030TIP3    H181581   3.786   3.841   0.791  1.6942 -0.8175  2.6070
20030TIP3    H281582   3.915   3.846   0.713 -1.1997  1.2038 -2.3052
20031TIP3   OH281583   4.320   5.743  14.563 -0.1825 -0.4361 -0.1638
20031TIP3    H181584   4.289   5.833  14.572 -0.7517 -0.6729  0.2698
20031TIP3    H281585   4.287   5.715  14.477 -2.0390 -1.0119  0.7018
20032TIP3   OH281586   3.552   3.737   5.036  0.3410 -0.0338  0.2554
20032TIP3    H181587   3.544   3.800   4.965  1.6964  2.2290  2.0392
20032TIP3    H281588   3.630   3.686   5.014  0.5312  0.4045 -0.0899
20033TIP3   OH281589   4.765   3.867   1.413 -0.3709  0.7980  0.4116
20033TIP3    H181590   4.702   3.911   1.471 -0.6166 -0.1299  0.8516
20033TIP3    H281591   4.713   3.801   1.366 -0.1441  1.4414 -0.7681
20034TIP3   OH281592   3.948   1.990   1.697  0.5090  0.5934 -0.7603
20034TIP3    H181593   3.896   2.056   1.743  0.3410 -0.7064  0.9401
20034TIP3    H281594   3.884   1.938   1.648  0.4573  0.5175 -0.6109
20035TIP3   OH281595   3.818   4.128  16.127 -0.1171  0.2913 -0.0087
20035TIP3    H181596   3.874   4.130  16.205 -0.5035  0.1557  0.2765
20035TIP3    H281597   3.729   4.139  16.162 -0.2375  0.8075 -0.4911
20036TIP3   OH281598   1.262   1.844  13.756 -0.2754  0.2594 -0.0071
20036TIP3    H181599   1.168   1.849  13.772 -0.1600  0.6567  0.5442
20036TIP3    H281600   1.301   1.908  13.815  0.1553  1.7435 -1.8433
20037TIP3   OH281601   5.992   2.165   5.169  0.0518  0.2600  0.2239
20037TIP3    H181602   5.974   2.250   5.209 -2.9002 -0.3452  0.2324
20037TIP3    H281603   5.925   2.155   5.102 -0.3992 -2.5887  1.0491
20038TIP3   OH281604   0.829   1.129   5.609  0.0893 -0.0543  0.2572
20038TIP3    H181605   0.779   1.070   5.553 -0.4452  0.4277  0.2321
20038TIP3    H281606   0.792   1.216   5.593 -1.9925 -0.2898  3.5017
20039TIP3   OH281607   4.891   4.573   0.864  0.0432  0.0621  0.1174
20039TIP3    H181608   4.964   4.549   0.806 -0.0531 -0.9700  0.4082
20039TIP3    H281609   4.906   4.521   0.943 -0.3505  0.7578  0.6513
20040TIP3   OH281610   3.832   5.646  15.843  0.2133 -0.3339  0.5631
20040TIP3    H181611   3.825   5.729  15.890 -0.3327  0.7418 -1.3376
20040TIP3    H281612   3.898   5.664  15.775 -2.7540 -0.1583 -2.3979
20041TIP3   OH281613   2.889   1.740   5.921 -0.3161 -0.1918 -0.1077
20041TIP3    H181614   2.959   1.748   5.857 -1.2027  0.2892 -1.0217
20041TIP3    H281615   2.860   1.649   5.913 -0.3228 -0.1748 -0.2742
20042TIP3   OH281616   1.528   0.608   6.004  0.8456 -0.4332 -0.0617
20042TIP3    H181617   1.460   0.664   6.043  0.2149 -1.6595  0.6614
20042TIP3    H281618   1.592   0.596   6.074  0.4644 -1.4313  0.1254
20043TIP3   OH281619   2.049   5.228   1.719 -0.3264 -0.1641 -0.3738
20043TIP3    H181620   1.965   5.184   1.712 -0.1449 -0.4842 -0.5796
20043TIP3    H281621   2.113   5.163   1.688  0.3736 -1.1543  2.9762
20044TIP3   OH281622   3.710   2.454   5.869  0.7759  0.2965 -0.1802
20044TIP3    H181623   3.786   2.415   5.912 -0.4121 -0.2248  1.4912
20044TIP3    H281624   3.679   2.387   5.809 -0.1422 -0.6406  1.3218
20045TIP3   OH281625   2.765   3.003   2.124  0.2013  0.0161 -0.6812
20045TIP3    H181626   2.764   3.085   2.173 -1.4766 -0.5110  0.2000
20045TIP3    H281627   2.750   3.030   2.033 -0.5416  0.6796 -0.3723
20046TIP3   OH281628   5.288   3.291  12.755 -0.8352  0.2265  0.3732
20046TIP3    H181629   5.362   3.352  12.753 -0.2185 -0.5373 -2.3740
20046TIP3    H281630   5.316   3.217  12.701 -3.1122 -0.6545  0.3330
20047TIP3   OH281631   4.907   3.317  12.399  0.1492 -0.7296  0.2829
20047TIP3    H181632   4.834   3.258  12.420  0.1610 -0.3763  1.3717
20047TIP3    H281633   4.867   3.390  12.353  0.0113 -1.1870 -0.3268
20048TIP3   OH281634   0.150   5.399  14.397  0.0361  0.3840  0.1389
20048TIP3    H181635   0.176   5.424  14.308 -0.3072  1.1064  0.2332
20048TIP3    H281636   0.166   5.478  14.449 -0.4415  0.1923  0.5808
20049TIP3   OH281637   4.499   6.612  12.306  0.0338 -0.2005  0.1400
20049TIP3    H181638   4.497   6.654  12.220 -0.6379  0.4768  0.4829
20049TIP3    H281639   4.557   6.537  12.295  0.0368 -0.0498 -0.8758
20050TIP3   OH281640   5.813   0.847   6.084 -0.3209  0.1661 -0.0478
20050TIP3    H181641   5.907   0.829   6.082 -0.6227 -1.5105  0.4460
20050TIP3    H281642   5.774   0.768   6.120 -2.0626  0.3067 -1.5615
20051TIP3   OH281643   5.987   5.266   2.919 -0.4845 -0.2701  0.3631
20051TIP3    H181644   5.945   5.182   2.902 -0.8770  0.4689 -2.5994
20051TIP3    H281645   5.928   5.311   2.979 -1.6548 -1.0518 -0.1811
20052TIP3   OH281646   2.160   5.309  15.435  0.1416 -0.5519  0.0964
20052TIP3    H181647   2.082   5.345  15.392  0.2153  1.8378  1.8434
20052TIP3    H281648   2.126   5.261  15.511  0.1857 -2.5153 -1.0837
20053TIP3   OH281649   5.945   2.838   6.438 -1.0162 -0.3108  0.3843
20053TIP3    H181650   5.862   2.792   6.454 -1.2810 -0.7946 -2.2261
20053TIP3    H281651   6.000   2.773   6.394  0.2111  0.4878  0.7296
20054TIP3   OH281652   2.739   5.771   6.007  0.0731  0.3329 -0.1910
20054TIP3    H181653   2.744   5.833   5.935 -0.5870  0.1053 -0.4360
20054TIP3    H281654   2.657   5.793   6.052  0.4321  0.4068  0.4253
20055TIP3   OH281655   3.669   3.485   2.705  0.1750  0.5647  0.0252
20055TIP3    H181656   3.634   3.574   2.706 -0.1915  0.4183  0.7363
20055TIP3    H281657   3.762   3.496   2.725  0.4360  0.9072 -1.3366
20056TIP3   OH281658   0.289   1.796   1.052  0.1458  0.6577 -0.8842
20056TIP3    H181659   0.218   1.834   1.104  1.9516  0.1835  2.0444
20056TIP3    H281660   0.291   1.849   0.973 -1.7235  2.4044  0.1650
20057TIP3   OH281661   3.415   5.495   3.709  0.1722  0.0904 -0.2888
20057TIP3    H181662   3.326   5.511   3.741  0.6152  1.1116  0.4801
20057TIP3    H281663   3.431   5.402   3.726 -0.1509  0.2710  1.1360
20058TIP3   OH281664   5.340   5.900   4.985 -0.0411 -0.0902  0.0739
20058TIP3    H181665   5.366   5.808   4.979  1.3096  0.2789  0.1240
20058TIP3    H281666   5.387   5.934   5.061 -1.4442  0.3538  0.7607
20059TIP3   OH281667   5.454   2.415   0.970 -0.1987  0.5401 -0.0632
20059TIP3    H181668   5.478   2.436   1.060 -1.5775  1.3751  0.1216
20059TIP3    H281669   5.366   2.451   0.959 -0.3144 -0.1387 -1.5386
20060TIP3   OH281670   5.755   1.617   3.700 -0.1343 -0.1228  0.3799
20060TIP3    H181671   5.667   1.631   3.665 -0.7508 -2.0982  1.0628
20060TIP3    H281672   5.744   1.622   3.795  0.8685  1.5908  0.4220
20061TIP3   OH281673   3.527   3.447  15.933  0.2030  0.9520  0.9275
20061TIP3    H181674   3.559   3.509  15.867 -1.1084 -0.6583 -1.3321
20061TIP3    H281675   3.470   3.499  15.989 -0.4765  1.9478 -0.6326
20062TIP3   OH281676   5.182   3.476  11.493 -0.1522  0.4221  0.2599
20062TIP3    H181677   5.141   3.391  11.508 -3.8033  1.9244 -0.5571
20062TIP3    H281678   5.138   3.535  11.554  1.7105  1.8990  0.2087
20063TIP3   OH281679   1.334   2.582  16.361  0.0471 -0.4639 -0.1745
20063TIP3    H181680   1.350   2.664  16.313  1.3599  0.1598  1.2865
20063TIP3    H281681   1.384   2.516  16.313 -0.2724 -0.2411 -0.8287
20064TIP3   OH281682   0.716   1.923  14.193 -0.3424 -0.4653 -0.0373
20064TIP3    H181683   0.713   1.996  14.254 -1.3406 -1.2233  0.8450
20064TIP3    H281684   0.627   1.886  14.195  0.2164 -1.8672 -0.2381
20065TIP3   OH281685   6.478   6.108  13.808 -0.2620 -0.2690  0.2621
20065TIP3    H181686   6.401   6.164  13.814 -0.2083 -0.2457  0.7408
20065TIP3    H281687   6.545   6.162  13.766 -0.9946 -0.8043 -1.6814
20066TIP3   OH281688   5.206   5.830  12.297  0.2529  0.5502  0.1456
20066TIP3    H181689   5.166   5.917  12.298  1.4551  1.1444 -1.3776
20066TIP3    H281690   5.286   5.840  12.350 -0.3264  0.0021  1.1381
20067TIP3   OH281691   2.381   6.616   1.304 -0.3846  0.1402 -0.3712
20067TIP3    H181692   2.392   6.688   1.366  0.4138 -1.0285  0.8737
20067TIP3    H281693   2.468   6.577   1.297 -0.9006 -0.9669 -0.6998
20068TIP3   OH281694   5.063   4.065   4.783 -0.1793 -0.5742 -0.4993
20068TIP3    H181695   5.070   4.159   4.801  2.5132 -0.6486 -0.9322
20068TIP3    H281696   4.975   4.054   4.747 -1.3215  1.4271  1.5696
20069TIP3   OH281697   6.621   3.107  14.260  0.4432 -0.2698  0.5636
20069TIP3    H181698   6.695   3.161  14.231 -0.3256  1.0937  1.0696
20069TIP3    H281699   6.654   3.017  14.256  2.1706  0.3220  0.9159
20070TIP3   OH281700   5.926   1.723  14.310 -0.7685 -0.1546  0.7833
20070TIP3    H181701   5.863   1.673  14.361  0.2523 -1.8249  0.4455
20070TIP3    H281702   6.005   1.726  14.364  0.0284 -1.1710 -0.2839
20071TIP3   OH281703   3.662   4.613  12.797  0.3988 -0.0853 -0.1142
20071TIP3    H181704   3.673   4.519  12.808  0.5508 -0.2726 -1.7362
20071TIP3    H281705   3.738   4.640  12.746 -1.2328  0.3833 -2.3670
20072TIP3   OH281706   6.150   4.667   5.130 -0.4520 -0.0957  0.0005
20072TIP3    H181707   6.059   4.655   5.159 -0.2672 -1.7617 -0.0768
20072TIP3    H281708   6.201   4.606   5.183  0.2665 -1.0705 -1.7685
20073TIP3   OH281709   0.136   1.222   4.043 -0.2554 -0.5052 -0.0634
20073TIP3    H181710   0.043   1.200   4.035 -0.4578 -0.2540  1.4371
20073TIP3    H281711   0.154   1.215   4.136  0.8636  0.9398 -0.1604
20074TIP3   OH281712   6.671   2.185  12.835  0.0378 -0.2352 -0.4035
20074TIP3    H181713   6.756   2.227  12.822 -1.3739  2.7468 -0.4833
20074TIP3    H281714   6.608   2.257  12.831 -2.3976 -2.2092  0.8836
20075TIP3   OH281715   2.037   1.250   5.786  0.0948 -0.3823 -0.6907
20075TIP3    H181716   2.107   1.306   5.819 -0.7579  1.2161 -1.5196
20075TIP3    H281717   2.028   1.275   5.694 -1.4873 -0.6149 -0.6187
20076TIP3   OH281718   2.144   1.943  15.596 -0.0122  0.3333  0.4534
20076TIP3    H181719   2.101   2.015  15.550 -1.4492 -2.4859 -2.8716
20076TIP3    H281720   2.085   1.920  15.667 -0.3782  1.2713  0.4625
20077TIP3   OH281721   1.526   1.288   0.010 -0.1185  0.2175  0.0566
20077TIP3    H181722   1.493   1.340   0.083 -0.1543  1.4325 -0.8078
20077TIP3    H281723   1.575   1.351  -0.044  0.7628 -0.8686 -0.4368
20078TIP3   OH281724   0.496   6.311   0.751  0.2056  0.0956 -0.1905
20078TIP3    H181725   0.447   6.309   0.669  0.0178  0.1401 -0.0791
20078TIP3    H281726   0.572   6.254   0.735 -0.5779 -1.0471  0.0868
20079TIP3   OH281727   1.787   1.932  15.321  0.0583 -0.3195 -0.1477
20079TIP3    H181728   1.792   1.905  15.229 -2.7394 -3.0774  0.4171
20079TIP3    H281729   1.704   1.978  15.328  0.7367  0.7918  0.8146
20080TIP3   OH281730   1.551   4.421   0.946 -0.0636  0.4506 -0.4567
20080TIP3    H181731   1.594   4.504   0.923 -0.3771  1.4175  2.3259
20080TIP3    H281732   1.619   4.370   0.990 -0.8763  0.7498  1.1878
20081TIP3   OH281733   0.153   1.308   2.625  0.6290  0.1352 -0.1575
20081TIP3    H181734   0.197   1.327   2.707 -0.1420 -1.4455  0.6506
20081TIP3    H281735   0.089   1.378   2.615  0.8498  0.4323  0.5070
20082TIP3   OH281736   4.570   4.687   1.181  0.1116  0.0967 -0.6839
20082TIP3    H181737   4.497   4.674   1.120 -0.2168  0.4855 -0.3730
20082TIP3    H281738   4.534   4.665   1.267  0.5894 -0.4921 -0.6336
20083TIP3   OH281739   0.496   1.765  13.368 -0.3903 -0.2817 -0.1474
20083TIP3    H181740   0.546   1.799  13.293 -1.7368 -1.4658 -1.6165
20083TIP3    H281741   0.407   1.799  13.354 -0.9268 -1.5212  0.2595
20084TIP3   OH281742   1.753   3.892  11.843 -0.2653  0.0090 -0.0327
20084TIP3    H181743   1.753   3.902  11.748 -0.5377 -0.6785 -0.1084
20084TIP3    H281744   1.813   3.960  11.874  0.5165 -0.3387 -0.7643
20085TIP3   OH281745   2.179   6.543   5.483  0.1910  0.4886  0.0895
20085TIP3    H181746   2.097   6.495   5.477  0.6541 -0.4415  0.9646
20085TIP3    H281747   2.204   6.560   5.392  0.0720 -1.0316 -0.2346
20086TIP3   OH281748   3.637   3.014  12.760 -0.2364  0.5981 -0.6424
20086TIP3    H181749   3.556   2.988  12.803  0.5830 -1.3889 -0.2568
20086TIP3    H281750   3.684   3.064  12.826 -0.5184  0.5438 -0.3977
20087TIP3   OH281751   6.759   0.765  12.001 -0.6880 -0.6744  0.4462
20087TIP3    H181752   6.753   0.706  11.926 -3.0277  0.0479  0.0264
20087TIP3    H281753   6.790   0.710  12.072  2.4552 -1.1730 -1.2421
20088TIP3   OH281754   4.957   3.011   4.706 -0.0369 -0.0305 -0.2328
20088TIP3    H181755   4.909   2.961   4.640  1.5902 -0.0280 -1.4649
20088TIP3    H281756   5.001   2.945   4.759 -0.6018 -0.0042  0.2686
20089TIP3   OH281757   0.489   4.060   5.649  0.1362 -0.2450  0.5232
20089TIP3    H181758   0.416   4.047   5.709  0.2024 -2.0015  0.2448
20089TIP3    H281759   0.566   4.068   5.705 -0.1964  1.1960  0.7953
20090TIP3   OH281760   0.152   1.169  12.854 -0.1131  0.1699 -0.8679
20090TIP3    H181761   0.145   1.147  12.947  2.6464  1.5889 -0.3000
20090TIP3    H281762   0.113   1.093  12.809 -0.8319 -0.8446  1.3919
20091TIP3   OH281763   5.323   1.095   5.255 -0.4532 -0.0949 -0.2101
20091TIP3    H181764   5.286   1.022   5.205 -1.3222 -0.1319  0.4785
20091TIP3    H281765   5.341   1.059   5.341  1.1235 -0.0495 -0.5051
20092TIP3   OH281766   4.008   6.811   5.965 -0.1562  0.6359 -0.2088
20092TIP3    H181767   3.975   6.776   6.048  0.3130  0.0242 -0.2758
20092TIP3    H281768   3.954   6.888   5.948 -0.2746  0.7391  0.6470
20093TIP3   OH281769   0.473   0.270   6.016 -0.0181 -0.6202  0.1533
20093TIP3    H181770   0.417   0.340   5.983  1.4432  0.0315 -1.0292
20093TIP3    H281771   0.509   0.229   5.937  1.1422 -1.0326  0.8878
20094TIP3   OH281772   4.204   6.802   5.773 -0.2430  0.2166  0.1210
20094TIP3    H181773   4.130   6.774   5.718 -0.0810  0.1591 -0.0675
20094TIP3    H281774   4.165   6.819   5.859 -0.0403 -2.6224  0.8440
20095TIP3   OH281775   3.658   3.276  15.255 -0.9540  0.7514  0.1447
20095TIP3    H181776   3.719   3.203  15.251 -2.9583 -1.1901  3.2168
20095TIP3    H281777   3.595   3.259  15.184 -1.5046 -0.5941  0.9499
20096TIP3   OH281778   4.478   5.320  16.359 -0.5230  0.6669 -0.1274
20096TIP3    H181779   4.538   5.289  16.427 -1.1601 -1.1454 -0.3457
20096TIP3    H281780   4.411   5.369  16.407  0.4350  1.6074  0.2526
20097TIP3   OH281781   2.378   1.484   3.516 -0.6604  0.1874  0.3900
20097TIP3    H181782   2.389   1.406   3.571 -1.7615  0.8426  1.5637
20097TIP3    H281783   2.345   1.450   3.433  0.7493 -0.7885  0.1973
20098TIP3   OH281784   0.190   2.426  14.917 -0.3228 -0.4041  0.3659
20098TIP3    H181785   0.114   2.420  14.859 -1.4300  0.9443  1.6322
20098TIP3    H281786   0.226   2.338  14.919 -1.0788 -0.7657 -1.2860
20099TIP3   OH281787   5.558   1.045  15.404 -0.1363 -0.0489  0.2048
20099TIP3    H181788   5.600   1.123  15.369  1.0670 -0.7824 -0.0339
20099TIP3    H281789   5.625   1.006  15.461 -0.4602 -1.2787 -0.2446
20100TIP3   OH281790   3.487   0.484  14.639 -0.3673  0.3036  0.0414
20100TIP3    H181791   3.561   0.424  14.628 -1.5237 -0.9392 -1.1576
20100TIP3    H281792   3.507   0.532  14.719  0.6046 -1.6872  1.0482
20101TIP3   OH281793   2.684   1.149  12.520 -0.1020 -0.5456 -0.6169
20101TIP3    H181794   2.765   1.112  12.484  0.2304 -1.0873  0.6666
20101TIP3    H281795   2.657   1.087  12.588 -1.5290 -0.3066 -0.9351
20102TIP3   OH281796   2.873   3.862   5.714  0.7096 -0.1298  0.2316
20102TIP3    H181797   2.952   3.912   5.736  1.1051 -0.5023 -0.3177
20102TIP3    H281798   2.906   3.784   5.669 -0.0826  1.0459 -2.4956
20103TIP3   OH281799   5.127   1.946   5.451  0.0048 -0.5477 -0.4996
20103TIP3    H181800   5.149   1.856   5.474  0.1373 -0.8127 -1.6427
20103TIP3    H281801   5.094   1.984   5.533 -2.1859 -2.3043 -0.5061
20104TIP3   OH281802   3.610   6.562  12.315  0.4544  0.1608  0.4522
20104TIP3    H181803   3.706   6.560  12.320  0.3929  0.0583  1.6814
20104TIP3    H281804   3.592   6.618  12.240  1.4861 -0.2764 -0.1354
20105TIP3   OH281805   1.204   4.237   2.794 -0.9136 -0.1467 -0.1526
20105TIP3    H181806   1.267   4.177   2.834  0.2709  2.2263  1.6289
20105TIP3    H281807   1.125   4.226   2.847 -0.5668  0.1838  0.4357
20106TIP3   OH281808   0.582   1.414   4.175  0.0751 -0.1461  0.0761
20106TIP3    H181809   0.492   1.403   4.206 -0.2323 -1.2076 -1.1532
20106TIP3    H281810   0.634   1.421   4.255 -0.5285 -4.0084  0.9007
20107TIP3   OH281811   0.362   3.067   5.591  0.1897  0.1588 -0.0196
20107TIP3    H181812   0.448   3.093   5.559  0.7379 -2.0371 -0.3839
20107TIP3    H281813   0.375   3.049   5.684  0.4197 -1.4187 -0.3495
20108TIP3   OH281814   1.532   5.315  12.253  0.1756 -0.2191 -0.2080
20108TIP3    H181815   1.577   5.290  12.173  0.0800 -1.7647  0.1961
20108TIP3    H281816   1.601   5.325  12.318  0.1923  0.3946 -0.3116
20109TIP3   OH281817   3.364   3.711  11.963  0.2966 -0.6302 -0.2775
20109TIP3    H181818   3.444   3.752  11.931  0.4395 -0.5227  0.2208
20109TIP3    H281819   3.385   3.618  11.970  1.6261 -0.0937  3.6298
20110TIP3   OH281820   5.652   0.840  12.715  0.2729  0.3898  0.9840
20110TIP3    H181821   5.610   0.789  12.783  0.1553 -0.3835  0.3438
20110TIP3    H281822   5.581   0.888  12.673  0.6962  3.2181  3.3212
20111TIP3   OH281823   5.373   2.894   0.900  0.0252  0.4289 -0.1628
20111TIP3    H181824   5.285   2.858   0.915  0.3891 -0.4659 -0.1563
20111TIP3    H281825   5.364   2.944   0.819 -0.9302  1.8613  0.7843
20112TIP3   OH281826   1.211   3.265  10.769  0.1037 -0.1353 -0.5312
20112TIP3    H181827   1.244   3.214  10.695  0.7012  0.8746 -0.9803
20112TIP3    H281828   1.257   3.230  10.845  0.9344  0.1236 -0.9158
20113TIP3   OH281829   0.734   6.493  16.528 -0.0752 -0.2602 -0.1036
20113TIP3    H181830   0.720   6.426  16.461  1.4775 -0.6416 -0.0614
20113TIP3    H281831   0.804   6.458  16.583 -1.1649  0.1596  1.5847
20114TIP3   OH281832   0.551   3.983  15.845 -0.1435  0.2528  0.0471
20114TIP3    H181833   0.590   3.925  15.911 -0.4837 -0.5985 -0.4951
20114TIP3    H281834   0.488   4.036  15.893 -0.9505 -0.8972  0.2838
20115TIP3   OH281835   5.762   5.384  15.824 -0.0759  0.0793  0.5799
20115TIP3    H181836   5.718   5.323  15.765  0.3587 -2.0876  2.4635
20115TIP3    H281837   5.848   5.398  15.783  0.3460 -1.6656  0.8402
20116TIP3   OH281838   0.189   5.258  12.161  0.2160  0.5626  0.1143
20116TIP3    H181839   0.135   5.221  12.091  0.6907 -0.4124  0.2423
20116TIP3    H281840   0.199   5.350  12.138  0.4550  0.2295 -1.1666
20117TIP3   OH281841   6.040   0.870   0.716 -0.1454  0.3183 -0.0651
20117TIP3    H181842   6.008   0.781   0.726 -0.0745  0.5354  2.4219
20117TIP3    H281843   6.134   0.861   0.700 -0.2265 -0.0667 -0.3194
20118TIP3   OH281844   2.860   1.344  13.685  0.4897 -0.0395  0.7587
20118TIP3    H181845   2.837   1.400  13.759  0.3457  1.4782 -0.4094
20118TIP3    H281846   2.939   1.384  13.648 -0.2600  0.0851 -0.7702
20119TIP3   OH281847   5.157   2.236  14.853 -0.3868  0.0845 -0.2110
20119TIP3    H181848   5.171   2.326  14.882 -0.2286 -0.0954  0.2788
20119TIP3    H281849   5.118   2.244  14.766 -3.0267  0.6729  0.9598
20120TIP3   OH281850   4.101   4.945  12.288 -0.2470  0.2687  0.0507
20120TIP3    H181851   4.176   5.001  12.271 -0.3278 -0.4139 -2.6908
20120TIP3    H281852   4.140   4.860  12.312 -0.1454  0.9755  2.5183
20121TIP3   OH281853   1.534   4.177  10.946 -0.3932 -0.3810 -0.2391
20121TIP3    H181854   1.544   4.203  11.038  0.0981 -0.6950 -0.1992
20121TIP3    H281855   1.510   4.258  10.901  1.0357  0.1505 -0.0957
20122TIP3   OH281856   6.307   5.454   1.887  0.4421 -0.0419 -0.1441
20122TIP3    H181857   6.366   5.384   1.859 -0.5880 -1.4871  1.2278
20122TIP3    H281858   6.219   5.420   1.872 -0.0782  1.4581 -0.6376
20123TIP3   OH281859   5.960   3.428  16.593  0.0873  0.4358 -0.6162
20123TIP3    H181860   5.977   3.426  16.687 -1.5909  0.8284 -0.2879
20123TIP3    H281861   6.039   3.392  16.554  1.4381  1.7136  0.8634
20124TIP3   OH281862   1.442   1.601  13.246 -0.2637 -0.4813 -0.0818
20124TIP3    H181863   1.489   1.654  13.310 -0.9689 -0.0751  0.0978
20124TIP3    H281864   1.494   1.521  13.239  0.7691  0.2023 -0.3167
20125TIP3   OH281865   2.003   2.867  17.166 -0.1623 -0.1372  0.0401
20125TIP3    H181866   1.980   2.782  17.204 -1.3288  1.6090  3.4362
20125TIP3    H281867   1.919   2.911  17.152  0.4891  1.0266 -0.3280
20126TIP3   OH281868   4.477   3.170   2.090 -0.7260 -0.3057  0.2181
20126TIP3    H181869   4.528   3.208   2.162  0.3323 -1.6161  0.1775
20126TIP3    H281870   4.395   3.219   2.091  0.4011  1.6795  0.4696
20127TIP3   OH281871   1.580   0.683  17.074 -0.0569  0.0626 -0.5716
20127TIP3    H181872   1.572   0.732  17.156  1.8865  0.1605 -0.4250
20127TIP3    H281873   1.510   0.619  17.079 -1.4932  1.6255  0.0669
20128TIP3   OH281874   5.025   6.546   0.021  0.3272  0.3669  0.0544
20128TIP3    H181875   4.996   6.583   0.104 -0.5990  2.2389 -1.0741
20128TIP3    H281876   5.107   6.501   0.042 -0.5788 -0.3467  2.2254
20129TIP3   OH281877   6.577   6.432  13.332 -0.0694 -0.1103  0.0983
20129TIP3    H181878   6.517   6.481  13.388 -0.5402  2.6012 -2.6401
20129TIP3    H281879   6.577   6.480  13.249  0.2227 -4.2503 -2.4072
20130TIP3   OH281880   1.453   3.514  16.353 -0.2869 -0.0164  0.4799
20130TIP3    H181881   1.477   3.443  16.293  0.0227 -0.5986  1.2852
20130TIP3    H281882   1.399   3.573  16.300 -0.1854 -0.6241 -0.3137
20131TIP3   OH281883   3.093   5.974   4.297  0.0536 -0.1754  0.5768
20131TIP3    H181884   3.054   5.918   4.230  0.0035 -0.4310  0.8153
20131TIP3    H281885   3.119   5.913   4.366 -0.5288  0.1607  1.0959
20132TIP3   OH281886   3.524   0.747   4.270  0.1983  0.3317  0.1334
20132TIP3    H181887   3.492   0.837   4.279  0.9871  0.3824  3.1379
20132TIP3    H281888   3.571   0.746   4.187  0.7970  2.9165  0.3998
20133TIP3   OH281889   2.286   1.223  17.077 -0.2149 -0.2555 -0.1017
20133TIP3    H181890   2.341   1.221  16.999  0.1343 -1.9482  0.1683
20133TIP3    H281891   2.296   1.312  17.111  2.9752 -0.7388  0.3573
20134TIP3   OH281892   3.604   3.297   4.614 -0.1685  0.1593 -0.2219
20134TIP3    H181893   3.546   3.364   4.577 -0.9054 -0.2697  0.1583
20134TIP3    H281894   3.561   3.214   4.594  0.0616 -0.1384  0.5234
20135TIP3   OH281895   2.972   3.438   2.591 -0.4264  0.0924 -0.6606
20135TIP3    H181896   2.916   3.464   2.664  1.5786  0.6067  0.7543
20135TIP3    H281897   2.936   3.354   2.562 -0.1955 -1.0626  2.1555
20136TIP3   OH281898   6.267   4.784   3.386 -0.7095 -0.5905  0.1728
20136TIP3    H181899   6.255   4.762   3.294 -2.8057  1.8143 -0.1808
20136TIP3    H281900   6.353   4.827   3.389  0.0282 -1.9617 -0.3606
20137TIP3   OH281901   5.882   0.413  14.779  0.0530 -0.3746 -0.2344
20137TIP3    H181902   5.939   0.424  14.855  1.2897 -1.0198 -1.0574
20137TIP3    H281903   5.937   0.436  14.704 -0.8619 -0.7050 -1.0142
20138TIP3   OH281904   4.081   1.570  11.114  0.1099  0.3673 -0.2397
20138TIP3    H181905   4.156   1.630  11.110  1.6092 -1.5666 -2.5711
20138TIP3    H281906   4.048   1.566  11.025 -0.2407 -1.9057 -0.0469
20139TIP3   OH281907   4.551   2.492   5.386 -0.3002 -0.2366  0.4446
20139TIP3    H181908   4.606   2.426   5.345  0.6450  0.7527  0.1044
20139TIP3    H281909   4.574   2.487   5.479 -0.3698 -0.5172  0.4486
20140TIP3   OH281910   2.409   1.329   2.222  0.3660 -0.7543 -0.6956
20140TIP3    H181911   2.479   1.266   2.241 -0.2490 -1.5307 -0.9812
20140TIP3    H281912   2.455   1.410   2.201  1.1423 -0.6348  1.2983
20141TIP3   OH281913   4.238   3.400   5.340  0.1264  0.5626 -0.1337
20141TIP3    H181914   4.197   3.455   5.273 -0.5723 -0.4064 -0.5013
20141TIP3    H281915   4.314   3.362   5.296 -0.2232  0.0779 -0.3145
20142TIP3   OH281916   0.403   5.564   4.270 -0.6179 -0.3406 -0.3190
20142TIP3    H181917   0.329   5.599   4.320  0.4029  2.2105 -0.4990
20142TIP3    H281918   0.458   5.521   4.336 -1.0156 -0.0615  0.2045
20143TIP3   OH281919   1.994   0.025  15.474 -0.0317 -0.1450  0.2098
20143TIP3    H181920   1.995   0.061  15.563 -1.4633  2.4516 -0.7626
20143TIP3    H281921   2.063   0.073  15.428 -0.8177  0.1878 -0.6574
20144TIP3   OH281922   0.461   6.469   1.843  0.1313 -0.1661  0.2438
20144TIP3    H181923   0.504   6.469   1.758 -2.7006 -0.5819 -1.2314
20144TIP3    H281924   0.487   6.386   1.883  1.4626  0.0212 -0.2150
20145TIP3   OH281925   4.810   5.856   0.934 -0.4823 -0.1562  0.1974
20145TIP3    H181926   4.893   5.824   0.969  0.2769 -0.1408 -1.5236
20145TIP3    H281927   4.746   5.789   0.959  0.3244 -0.9223  0.2315
20146TIP3   OH281928   0.539   1.858  17.091  0.4300 -0.3372  0.0176
20146TIP3    H181929   0.587   1.823  17.165  0.2637  0.2332  0.3943
20146TIP3    H281930   0.606   1.872  17.024  0.4725 -1.5566 -0.2152
20147TIP3   OH281931   5.136   3.584  15.493  0.3570 -0.2322  0.0800
20147TIP3    H181932   5.161   3.498  15.527 -0.2733  0.4327  2.3078
20147TIP3    H281933   5.085   3.566  15.415 -0.4484 -1.9345  0.9819
20148TIP3   OH281934   1.836   6.710   4.958  0.1701  0.1638  0.5087
20148TIP3    H181935   1.887   6.634   4.930 -0.5286 -0.6729  1.4513
20148TIP3    H281936   1.755   6.705   4.908 -0.0672  0.0273  0.9042
20149TIP3   OH281937   4.531   5.294  16.108  0.3647  0.3030  0.1273
20149TIP3    H181938   4.468   5.363  16.086  1.9423  1.9356  0.5891
20149TIP3    H281939   4.531   5.292  16.204  1.0613  0.3808  0.1299
20150TIP3   OH281940   3.206   6.448  17.261 -0.6852  0.2289  0.3474
20150TIP3    H181941   3.156   6.494  17.328 -2.6267  0.4769 -1.2174
20150TIP3    H281942   3.171   6.481  17.178  1.9705  0.2519 -0.7917
20151TIP3   OH281943   0.017   6.699   4.400  0.5671  0.4221 -0.0558
20151TIP3    H181944  -0.052   6.657   4.349 -0.6278  0.6901  1.3232
20151TIP3    H281945  -0.017   6.787   4.418  1.7560  0.9512 -0.3396
20152TIP3   OH281946   0.990   2.686   6.652  0.3622  0.4772 -0.0291
20152TIP3    H181947   0.910   2.660   6.607  0.8045  0.2138 -0.6659
20152TIP3    H281948   0.974   2.778   6.676 -0.5149  0.1368  0.7210
20153TIP3   OH281949   3.494   3.341   4.200 -0.4708  0.2287 -0.6797
20153TIP3    H181950   3.549   3.400   4.149  1.0211 -0.2688  0.3437
20153TIP3    H281951   3.474   3.391   4.280 -1.4034  0.3523 -0.9816
20154TIP3   OH281952   2.227   5.329  11.538  0.1123  0.2303 -0.3560
20154TIP3    H181953   2.191   5.417  11.528 -1.0900 -0.2114 -0.0127
20154TIP3    H281954   2.228   5.294  11.449 -2.1166 -0.4335 -0.1558
20155TIP3   OH281955   0.533   6.099  15.316 -0.1514 -0.0565  0.4462
20155TIP3    H181956   0.444   6.066  15.328 -0.0595 -1.1337 -1.5524
20155TIP3    H281957   0.542   6.109  15.221  1.7053  0.4703  0.6553
20156TIP3   OH281958   2.714   5.764  14.156  0.0910 -0.3504  1.0641
20156TIP3    H181959   2.631   5.776  14.109  1.0010  2.8913  0.1578
20156TIP3    H281960   2.704   5.818  14.235  1.4879  0.4418  0.7163
20157TIP3   OH281961   4.996   3.726  12.713 -0.1575 -0.1974  0.4914
20157TIP3    H181962   4.986   3.724  12.808  3.1074 -1.1476  0.8641
20157TIP3    H281963   5.057   3.655  12.693  1.6869  1.9716 -1.9560
20158TIP3   OH281964   4.331   2.801   5.112 -0.7541 -0.0847  0.0939
20158TIP3    H181965   4.319   2.879   5.058  0.2559 -0.3328 -0.5113
20158TIP3    H281966   4.295   2.730   5.059 -0.6741 -0.1879  0.1781
20159TIP3   OH281967   0.766   5.086   2.332 -0.3843 -0.2536  0.2968
20159TIP3    H181968   0.828   5.086   2.258  0.0265 -2.6400  0.6018
20159TIP3    H281969   0.681   5.071   2.291 -0.4255  0.4803  0.1129
20160TIP3   OH281970   3.777   3.789  13.785 -0.5480  0.1874 -0.2820
20160TIP3    H181971   3.720   3.805  13.710 -0.4993 -1.6662 -0.7293
20160TIP3    H281972   3.717   3.779  13.859 -0.6800  0.3494 -0.3658
20161TIP3   OH281973   1.830   1.748   2.363 -0.2954  0.0576  0.0232
20161TIP3    H181974   1.923   1.768   2.355 -0.2388  0.0199  0.5732
20161TIP3    H281975   1.804   1.720   2.276  0.4955 -1.1438  0.1697
20162TIP3   OH281976   3.581   0.863   3.316 -0.2707  0.1582 -0.4885
20162TIP3    H181977   3.665   0.874   3.360 -0.0373  0.2090 -0.9418
20162TIP3    H281978   3.556   0.951   3.289 -0.3281  0.1070 -0.6047
20163TIP3   OH281979   2.312   4.325  16.504 -0.4422 -0.1885 -0.1404
20163TIP3    H181980   2.275   4.242  16.533  2.0667 -1.0908  0.6155
20163TIP3    H281981   2.306   4.382  16.581 -0.3516 -0.3148 -0.0379
20164TIP3   OH281982   2.577   2.559  11.950  0.4421 -0.2060 -0.0879
20164TIP3    H181983   2.577   2.653  11.929 -0.3367 -0.0582  0.5319
20164TIP3    H281984   2.532   2.519  11.875 -1.9581  0.2731  1.0479
20165TIP3   OH281985   2.677   3.307  10.562 -0.2799  0.1555 -0.2004
20165TIP3    H181986   2.620   3.359  10.618 -0.7080 -2.1912  1.6334
20165TIP3    H281987   2.627   3.227  10.544  1.4985 -0.9315 -0.4807
20166TIP3   OH281988   5.601   5.905  16.145  0.2804 -0.1935  0.2609
20166TIP3    H181989   5.556   5.864  16.219  0.3755 -1.7389 -0.5324
20166TIP3    H281990   5.670   5.843  16.121  0.0709  0.1641 -1.3071
20167TIP3   OH281991   6.554   1.138  14.338  0.3786  0.3923  0.3735
20167TIP3    H181992   6.605   1.060  14.313  0.1915 -0.0468  1.3528
20167TIP3    H281993   6.586   1.160  14.425 -0.5432  0.6060  0.6551
20168TIP3   OH281994   4.944   0.720   0.412  0.2798 -0.1998  0.6748
20168TIP3    H181995   5.019   0.667   0.387 -0.2645 -0.3523 -0.6966
20168TIP3    H281996   4.944   0.792   0.349 -3.5364 -2.8118 -2.5876
20169TIP3   OH281997   0.515   0.529   5.856 -0.1093  0.3664  0.0751
20169TIP3    H181998   0.430   0.485   5.854  0.4869 -0.9148  1.8933
20169TIP3    H281999   0.494   0.622   5.854 -1.7137  0.1353  3.0063
20170TIP3   OH282000   6.089   3.579   4.771  0.5225 -0.0001  0.6618
20170TIP3    H182001   6.136   3.502   4.739 -1.2509 -0.4041 -1.0690
20170TIP3    H282002   6.152   3.650   4.765  1.6326 -0.9763  0.6212
20171TIP3   OH282003   6.485   4.483  13.839  0.0615  0.4754  0.0604
20171TIP3    H182004   6.436   4.523  13.767 -1.0358 -0.5066  0.2405
20171TIP3    H282005   6.423   4.422  13.880  1.5277 -1.0590  0.0862
20172TIP3   OH282006   1.174   3.805   3.036  0.3301 -0.0411 -0.4183
20172TIP3    H182007   1.080   3.807   3.022  0.3561  1.3621 -0.4550
20172TIP3    H282008   1.210   3.859   2.965  1.0111  0.9412  0.6555
20173TIP3   OH282009   3.687   6.629  13.150 -0.0540 -0.1254 -0.5027
20173TIP3    H182010   3.694   6.538  13.179  3.5605  0.3139  0.3402
20173TIP3    H282011   3.666   6.623  13.056 -1.5899 -1.7573 -0.0720
20174TIP3   OH282012   1.661   2.804  16.919  0.0855 -0.9264  0.0039
20174TIP3    H182013   1.695   2.841  17.000 -0.0795 -1.8528  0.5018
20174TIP3    H282014   1.732   2.817  16.856  0.6471 -1.1827  0.5676
20175TIP3   OH282015   0.913   4.961  14.327  0.1193  0.0510  0.1645
20175TIP3    H182016   0.818   4.945  14.327 -0.0735  1.0620 -1.1619
20175TIP3    H282017   0.928   5.018  14.402 -0.4813  0.6374 -0.1478
20176TIP3   OH282018   4.375   4.580   0.790  0.3562  0.0293  0.2741
20176TIP3    H182019   4.372   4.658   0.844 -0.0198  0.4606 -0.3638
20176TIP3    H282020   4.290   4.538   0.803  0.0923  0.3762 -0.3435
20177TIP3   OH282021   0.844   2.083   3.488 -0.7540  0.0145 -0.3086
20177TIP3    H182022   0.925   2.126   3.460  0.4462 -1.1780  1.2276
20177TIP3    H282023   0.803   2.147   3.547  0.5662 -0.5204  1.2403
20178TIP3   OH282024   2.587   3.191  17.158  0.2856  0.2893 -0.2729
20178TIP3    H182025   2.675   3.223  17.177  0.5060 -0.3247 -0.2346
20178TIP3    H282026   2.540   3.198  17.241  0.0876  1.2781 -0.4643
20179TIP3   OH282027   4.114   5.039  12.661  0.1282  0.4854  0.3042
20179TIP3    H182028   4.033   5.075  12.698  0.4318 -0.3821  1.8586
20179TIP3    H282029   4.093   5.023  12.569 -1.1931  1.0726  0.4869
20180TIP3   OH282030   5.489   6.402   5.569 -0.2356  0.2441 -0.2351
20180TIP3    H182031   5.429   6.374   5.638 -0.5313 -0.9350 -0.9586
20180TIP3    H282032   5.515   6.491   5.595 -1.3165  0.2939  0.7317
20181TIP3   OH282033   0.530   4.685   4.708  0.0959 -0.2240 -0.1457
20181TIP3    H182034   0.490   4.772   4.709  0.2558 -0.1709  1.9692
20181TIP3    H282035   0.622   4.701   4.689 -0.2649 -0.1142 -1.9024
20182TIP3   OH282036   6.794   2.228  15.655 -0.0299  0.0581  0.3251
20182TIP3    H182037   6.867   2.285  15.632  0.6797  0.1197  2.5964
20182TIP3    H282038   6.754   2.204  15.571  2.9781 -0.5131 -0.9976
20183TIP3   OH282039   2.428   1.282  13.544  0.6694  0.1058  0.2757
20183TIP3    H182040   2.499   1.330  13.501 -0.6814  1.2241 -0.7425
20183TIP3    H282041   2.352   1.340  13.538 -0.7341 -1.7145 -0.0069
20184TIP3   OH282042   6.377   0.165   5.676  0.1541  0.1427  0.7903
20184TIP3    H182043   6.432   0.135   5.604  0.7233  0.0763  1.2514
20184TIP3    H282044   6.426   0.142   5.755 -1.7627 -2.3390  1.2836
20185TIP3   OH282045   0.853   2.471  13.804  0.4353  0.3223  0.1225
20185TIP3    H182046   0.855   2.553  13.853  0.6073  0.9813 -0.9883
20185TIP3    H282047   0.902   2.410  13.859  0.7165  1.0869  0.7291
20186TIP3   OH282048   0.123   3.033   2.164  0.1251 -0.0193 -0.2890
20186TIP3    H182049   0.098   3.038   2.071 -1.6837 -0.0858  0.1842
20186TIP3    H282050   0.132   2.940   2.182  0.4715 -0.0067 -0.3844
20187TIP3   OH282051   3.166   0.835  17.150 -0.2785 -0.5387 -0.0445
20187TIP3    H182052   3.256   0.849  17.180 -0.4672 -0.5334  0.5214
20187TIP3    H282053   3.136   0.759  17.201  0.2336 -2.0908 -1.9942
20188TIP3   OH282054   1.367   3.929  12.851  0.3154 -0.0877 -0.0139
20188TIP3    H182055   1.391   3.902  12.939  1.1417 -0.3169 -0.3019
20188TIP3    H282056   1.444   3.909  12.798  0.4837  1.6724 -0.4689
20189TIP3   OH282057   2.236   2.820  13.497  0.3198 -0.3521  0.0760
20189TIP3    H182058   2.269   2.741  13.454 -2.4584 -0.6481 -1.6356
20189TIP3    H282059   2.164   2.790  13.551  0.1350  0.8350  0.5140
20190TIP3   OH282060   6.519   0.473   3.830 -0.1847 -0.1884  0.0058
20190TIP3    H182061   6.469   0.548   3.862 -0.5559 -1.0170  1.4429
20190TIP3    H282062   6.457   0.423   3.778  0.4444  1.2177 -2.1400
20191TIP3   OH282063   2.943   0.237  11.096 -0.7156 -0.5085  0.1421
20191TIP3    H182064   2.928   0.171  11.029 -0.0427 -1.4548  0.9021
20191TIP3    H282065   3.038   0.238  11.108 -0.6561  1.0522 -0.2962
20192TIP3   OH282066   3.392   1.868   5.034  0.0239 -0.3523  0.2945
20192TIP3    H182067   3.445   1.847   4.957 -1.9229 -0.0531 -1.1555
20192TIP3    H282068   3.374   1.783   5.074  1.8372 -0.4325  0.9913
20193TIP3   OH282069   6.411   4.635   3.564 -0.4094 -0.5023 -0.3518
20193TIP3    H182070   6.400   4.572   3.493 -0.7673 -0.0981 -0.6526
20193TIP3    H282071   6.381   4.718   3.528 -0.0634 -0.1824  0.0909
20194TIP3   OH282072   2.518   5.341   0.382  0.2485 -0.1478  0.7311
20194TIP3    H182073   2.544   5.425   0.343  0.6811 -0.4334  0.4063
20194TIP3    H282074   2.452   5.365   0.447 -0.6762  0.3141 -0.3516
20195TIP3   OH282075   1.216   5.408  11.484 -0.1782 -0.5889  0.2613
20195TIP3    H182076   1.311   5.418  11.473  0.2421 -3.1043  1.1845
20195TIP3    H282077   1.184   5.496  11.500  1.5108  0.8497 -3.5939
20196TIP3   OH282078   0.394   4.514   0.350  0.1240  0.1693  0.3703
20196TIP3    H182079   0.400   4.422   0.375 -0.3498  0.4879  1.7017
20196TIP3    H282080   0.309   4.521   0.305 -0.8254  0.3731  2.1532
20197TIP3   OH282081   0.117   5.836   0.354  0.1778 -0.1803  0.4648
20197TIP3    H182082   0.166   5.754   0.352 -0.0092 -0.2957  0.5539
20197TIP3    H282083   0.183   5.904   0.369  0.4161 -0.2445 -0.3095
20198TIP3   OH282084   6.073   2.170  13.446  0.9595 -0.3946  0.3379
20198TIP3    H182085   6.144   2.111  13.473  0.8939 -0.6687 -0.0737
20198TIP3    H282086   5.994   2.131  13.484  0.9559 -0.4013  0.3249
20199TIP3   OH282087   0.241   6.236  15.992 -0.5201 -0.0045 -0.2095
20199TIP3    H182088   0.228   6.237  16.087 -1.5731 -0.5331 -0.3375
20199TIP3    H282089   0.287   6.318  15.973 -2.3964  1.2548  0.4930
20200TIP3   OH282090   0.806   3.969   3.420 -0.8495  0.3100 -0.0380
20200TIP3    H182091   0.859   3.993   3.344  0.1019 -0.0516  0.4939
20200TIP3    H282092   0.718   3.998   3.399 -0.2084  2.0340 -0.4487
20201TIP3   OH282093   1.866   0.564   0.375  0.6406  0.1574  0.3996
20201TIP3    H182094   1.820   0.499   0.429 -0.0474  0.8214  0.6103
20201TIP3    H282095   1.797   0.612   0.330  1.2022 -0.1374 -0.7901
20202TIP3   OH282096   3.430   3.357  14.732 -0.3085  0.2331  0.3293
20202TIP3    H182097   3.389   3.271  14.728  1.1542 -0.4374 -0.6023
20202TIP3    H282098   3.374   3.413  14.678  0.5397 -0.9083 -1.7834
20203TIP3   OH282099   5.440   1.284   4.789  0.0563  0.0927  0.2467
20203TIP3    H182100   5.498   1.252   4.858  1.8604  3.9340  0.6313
20203TIP3    H282101   5.499   1.308   4.717 -1.4135  0.2810 -0.9199
20204TIP3   OH282102   5.562   5.152  13.222 -0.2573 -0.0337 -0.0451
20204TIP3    H182103   5.483   5.098  13.224  0.1614 -0.5972  1.6080
20204TIP3    H282104   5.535   5.234  13.264  0.5699 -0.9707  2.3560
20205TIP3   OH282105   6.371   5.889   1.624  0.0040  0.0196 -0.3151
20205TIP3    H182106   6.349   5.880   1.717 -1.0073 -2.0585 -0.7170
20205TIP3    H282107   6.288   5.915   1.583  0.4538  0.9503 -0.6290
20206TIP3   OH282108   2.833   4.635   0.437  0.1392  0.2997 -0.0149
20206TIP3    H182109   2.873   4.612   0.520 -1.5604 -0.2659  0.6697
20206TIP3    H282110   2.830   4.731   0.436  1.3520  0.3424 -0.0175
20207TIP3   OH282111   3.410   3.123  13.520  0.9407 -0.2400 -0.6143
20207TIP3    H182112   3.383   3.201  13.473  0.3775  0.2013  0.4271
20207TIP3    H282113   3.471   3.079  13.461  1.8203  1.3592 -0.9171
20208TIP3   OH282114   6.556   6.542   3.694  0.3562  0.3380  0.0669
20208TIP3    H182115   6.523   6.533   3.605 -1.8462  0.2162  0.8751
20208TIP3    H282116   6.478   6.537   3.750  1.5077  1.9700  1.9136
20209TIP3   OH282117   0.812   0.364  13.069 -0.2682  0.1560  0.1890
20209TIP3    H182118   0.890   0.406  13.032 -0.7748 -0.0893 -1.1658
20209TIP3    H282119   0.769   0.322  12.994 -2.0297  0.8008  0.8086
20210TIP3   OH282120   5.317   3.093   5.545  0.5272 -0.1018  0.4048
20210TIP3    H182121   5.231   3.127   5.519  1.3021  0.8066 -0.9790
20210TIP3    H282122   5.331   3.129   5.633 -0.4848 -0.2407  0.6382
20211TIP3   OH282123   2.985   3.613   5.653 -0.1683 -0.2634 -0.1068
20211TIP3    H182124   2.991   3.560   5.732  1.3063 -0.8907 -0.6184
20211TIP3    H282125   3.070   3.601   5.610 -0.8004  0.4068 -1.5646
20212TIP3   OH282126   3.190   0.515   1.601 -0.4961 -0.5316 -0.5452
20212TIP3    H182127   3.229   0.489   1.684 -0.9542  1.3046  0.2598
20212TIP3    H282128   3.114   0.568   1.625 -1.1312 -0.6739 -2.1311
20213TIP3   OH282129   5.635   4.224   1.923 -0.0020 -0.3818 -0.9492
20213TIP3    H182130   5.605   4.287   1.989 -1.9300 -2.6985  0.5013
20213TIP3    H282131   5.650   4.276   1.845 -1.4547  1.8895  0.2249
20214TIP3   OH282132   2.087   4.143   1.684 -0.2722  0.4055  0.7581
20214TIP3    H182133   2.012   4.203   1.683 -0.2256  0.5016  2.1588
20214TIP3    H282134   2.069   4.081   1.614 -0.4103  1.9435 -0.6228
20215TIP3   OH282135   5.425   6.818  13.649 -0.2199  0.4154  0.0031
20215TIP3    H182136   5.504   6.868  13.669  0.0820  0.3880 -1.1022
20215TIP3    H282137   5.424   6.811  13.554 -0.7542 -0.8842  0.0935
20216TIP3   OH282138   6.642   5.147   4.430  0.2118 -0.0735  0.4428
20216TIP3    H182139   6.699   5.190   4.493 -0.9998  1.5207  0.4834
20216TIP3    H282140   6.698   5.128   4.355  1.1056  0.2262  1.0319
20217TIP3   OH282141   0.899   1.278  12.662 -0.0409 -0.7121 -0.2361
20217TIP3    H182142   0.922   1.370  12.671 -0.5647 -0.6748  0.8426
20217TIP3    H282143   0.834   1.276  12.592 -0.7270 -0.1323  0.3750
20218TIP3   OH282144   1.412   3.676  10.767  0.0691 -0.4528 -0.6667
20218TIP3    H182145   1.414   3.770  10.751 -1.1191 -0.1705  0.7292
20218TIP3    H282146   1.357   3.640  10.697 -1.7871  0.2613  0.3900
20219TIP3   OH282147   6.037   5.257  15.215  0.2685 -0.0090 -0.1837
20219TIP3    H182148   5.970   5.195  15.186  0.1173 -0.9499  2.0694
20219TIP3    H282149   5.990   5.341  15.222 -0.3143 -0.3345 -0.1198
20220TIP3   OH282150   0.304   2.590  16.034  0.7318  0.1177 -0.0109
20220TIP3    H182151   0.389   2.600  16.078  0.0177 -0.1397  1.4469
20220TIP3    H282152   0.311   2.506  15.988  1.5912  0.5279 -0.6490
20221TIP3   OH282153   5.007   1.826  17.138  0.2750  0.0764 -1.2818
20221TIP3    H182154   4.913   1.832  17.152  0.1590 -3.3943 -0.1505
20221TIP3    H282155   5.017   1.802  17.046 -0.0016 -1.0446 -1.0152
20222TIP3   OH282156   2.770   0.671  12.008  0.0505 -0.4143 -0.6046
20222TIP3    H182157   2.682   0.635  11.996  0.2850 -1.2235  0.0747
20222TIP3    H282158   2.782   0.731  11.934 -1.5999  0.7459  0.0265
20223TIP3   OH282159   2.258   5.835   4.532 -0.1004 -0.3911 -0.6421
20223TIP3    H182160   2.167   5.857   4.513 -0.1218 -0.2514 -0.3760
20223TIP3    H282161   2.254   5.762   4.594 -0.0338 -0.1208 -0.3168
20224TIP3   OH282162   0.079   5.469  16.901 -0.1952  0.1332 -0.2763
20224TIP3    H182163   0.067   5.381  16.936 -1.4372 -0.1274 -1.3331
20224TIP3    H282164   0.025   5.525  16.957 -1.0197 -0.0684 -0.8753
20225TIP3   OH282165   3.266   6.369  13.607  0.1364 -0.7750 -0.7473
20225TIP3    H182166   3.238   6.283  13.638 -0.4867 -0.4814 -0.4893
20225TIP3    H282167   3.350   6.384  13.650 -0.9616 -0.1459  1.2196
20226TIP3   OH282168   4.760   1.998   2.245  0.1936  0.0131  0.0456
20226TIP3    H182169   4.800   2.067   2.298  0.1961  1.2759 -1.5910
20226TIP3    H282170   4.741   2.040   2.161 -3.5261 -0.8422  0.3819
20227TIP3   OH282171   3.039   0.575   2.562  0.1641 -0.9269  0.1565
20227TIP3    H182172   3.043   0.480   2.554 -1.2925 -0.8837 -1.3101
20227TIP3    H282173   3.019   0.606   2.473  0.7528  0.7552  0.5838
20228TIP3   OH282174   4.424   5.861   2.593  0.1657 -0.0190  0.5016
20228TIP3    H182175   4.500   5.833   2.542  1.5321  1.0302  1.9284
20228TIP3    H282176   4.350   5.815   2.553  1.6350 -1.5853 -0.4667
20229TIP3   OH282177   5.685   2.241   0.853  0.2212  0.1497  0.0108
20229TIP3    H182178   5.777   2.262   0.870  0.4249 -0.8959  0.2505
20229TIP3    H282179   5.639   2.324   0.869  1.1332  0.7295 -0.2814
20230TIP3   OH282180   3.104   0.491  10.943 -0.0891 -1.1327  0.1940
20230TIP3    H182181   3.126   0.422  10.880 -0.5721 -1.6511  0.5963
20230TIP3    H282182   3.123   0.453  11.028 -0.0947 -0.6686  0.4035
20231TIP3   OH282183   1.588   1.924  17.241 -0.7810 -0.9120 -0.4636
20231TIP3    H182184   1.569   1.966  17.324  0.0557 -1.0948 -0.1672
20231TIP3    H282185   1.667   1.872  17.258  0.2137  0.1507 -1.7321
20232TIP3   OH282186   6.038   4.325  11.338  0.0830  0.0045 -0.4924
20232TIP3    H182187   6.079   4.368  11.263  0.6360  2.4251  1.1309
20232TIP3    H282188   6.096   4.346  11.412 -0.4855 -2.2612  0.6389
20233TIP3   OH282189   5.621   5.767   1.579 -0.4663 -0.2673 -0.1124
20233TIP3    H182190   5.547   5.738   1.525 -0.8290  0.3082  0.0646
20233TIP3    H282191   5.699   5.739   1.531 -0.7970 -0.4706 -0.5338
20234TIP3   OH282192   5.462   4.951  15.471  0.0180 -0.0010  0.5653
20234TIP3    H182193   5.420   4.973  15.388  3.3510 -2.6490 -1.9515
20234TIP3    H282194   5.533   5.014  15.480 -0.6859  0.6464  1.7398
20235TIP3   OH282195   2.988   5.120   1.072  0.8797  0.0688 -0.2910
20235TIP3    H182196   3.069   5.160   1.040  0.6941 -0.9391 -2.0275
20235TIP3    H282197   3.013   5.031   1.097  0.1106 -0.5698 -1.7626
20236TIP3   OH282198   6.390   1.501   6.471  0.5271 -0.1788  0.2012
20236TIP3    H182199   6.353   1.415   6.451  0.8890 -0.4785  0.8008
20236TIP3    H282200   6.484   1.492   6.452  0.7953 -0.3171  1.5018
20237TIP3   OH282201   1.768   2.579   1.701 -0.0420 -0.0060  0.2693
20237TIP3    H182202   1.683   2.545   1.676  0.7822 -1.7681 -0.2175
20237TIP3    H282203   1.776   2.559   1.795 -0.1603  0.1314  0.3078
20238TIP3   OH282204   6.738   3.114  12.430  0.2753 -0.7614  0.2695
20238TIP3    H182205   6.665   3.148  12.379  0.3678  0.1802  0.7621
20238TIP3    H282206   6.814   3.124  12.373  0.2855 -0.2421  0.3766
20239TIP3   OH282207   4.040   3.640   5.422 -0.4510 -0.4032  0.3069
20239TIP3    H182208   4.094   3.680   5.490 -3.0658  3.0625  0.4755
20239TIP3    H282209   4.099   3.633   5.347  0.6583  2.0573  0.8784
20240TIP3   OH282210   5.349   6.736  11.350  0.4297 -0.5487  0.1280
20240TIP3    H182211   5.297   6.807  11.314  1.2401 -0.0756 -0.1199
20240TIP3    H282212   5.417   6.720  11.284  1.3053 -0.3664  0.9760
20241TIP3   OH282213   6.576   1.008  13.724 -0.2892 -0.0268  0.1202
20241TIP3    H182214   6.634   0.934  13.709  1.2661  0.8200  1.7200
20241TIP3    H282215   6.629   1.085  13.704 -1.7136  0.6921 -0.9876
20242TIP3   OH282216   4.506   0.574  15.924  0.5028  0.3132 -0.1840
20242TIP3    H182217   4.499   0.488  15.966 -0.2614 -0.4773 -1.8862
20242TIP3    H282218   4.566   0.623  15.980  1.3107 -1.4730  0.5596
20243TIP3   OH282219   2.083   4.264  12.967  0.2018  0.0933 -0.1090
20243TIP3    H182220   2.031   4.184  12.955 -0.5872  0.3340  1.6366
20243TIP3    H282221   2.019   4.333  12.981  0.9171  0.8729 -0.6489
20244TIP3   OH282222   4.794   4.528   0.374 -0.7085 -0.1852 -0.2132
20244TIP3    H182223   4.828   4.531   0.285 -2.0678 -1.2913 -0.7788
20244TIP3    H282224   4.836   4.451   0.413 -2.3089 -1.3975 -0.8295
20245TIP3   OH282225   3.214   2.521   6.241  0.5940 -0.1050 -0.4509
20245TIP3    H182226   3.269   2.591   6.274 -0.0181  0.1299  0.0671
20245TIP3    H282227   3.149   2.505   6.310  0.5350 -0.9651 -0.6897
20246TIP3   OH282228   1.980   5.261   6.091 -0.6933 -0.0842 -0.2537
20246TIP3    H182229   1.933   5.201   6.149 -0.2486 -0.1601  0.0304
20246TIP3    H282230   1.913   5.323   6.062 -0.7213  0.5815  1.1580
20247TIP3   OH282231   6.082   1.994  15.235 -0.1471 -0.5517  0.1080
20247TIP3    H182232   6.162   1.980  15.286 -0.7972  0.1645  1.3506
20247TIP3    H282233   6.066   2.088  15.240 -0.4504 -0.5281 -1.0965
20248TIP3   OH282234   4.685   0.036  12.948 -0.3117 -0.1397  0.3936
20248TIP3    H182235   4.688   0.002  13.037 -0.0808  0.8141  0.7539
20248TIP3    H282236   4.597   0.012  12.916  0.0456 -1.5473  0.4381
20249TIP3   OH282237   2.481   4.186  11.073 -0.0412 -0.4837 -0.9011
20249TIP3    H182238   2.467   4.190  11.167 -2.9794 -2.4602 -1.1806
20249TIP3    H282239   2.576   4.184  11.063  0.3298  0.4392  1.9601
20250TIP3   OH282240   2.193   6.137  12.520 -0.1712  0.4782  0.6838
20250TIP3    H182241   2.195   6.166  12.611 -0.7371 -0.9391  1.1648
20250TIP3    H282242   2.268   6.079  12.511 -1.1787 -0.8738  0.7780
20251TIP3   OH282243   2.512   0.191   0.438 -0.7145  0.2206 -0.1909
20251TIP3    H182244   2.431   0.153   0.473 -0.9273 -0.5900 -1.5638
20251TIP3    H282245   2.483   0.266   0.387 -0.6042 -0.1132 -0.7447
20252TIP3   OH282246   6.467   0.460  13.691 -0.2188 -0.1277  0.0761
20252TIP3    H182247   6.483   0.380  13.641 -0.7128 -0.8124  1.0082
20252TIP3    H282248   6.441   0.525  13.624  0.4156 -0.6732 -0.7046
20253TIP3   OH282249   2.073   5.829  12.859 -0.6020  0.0317  0.0929
20253TIP3    H182250   2.094   5.923  12.853 -0.1986 -0.0870 -0.3045
20253TIP3    H282251   2.139   5.786  12.805 -0.2511 -0.5619  0.9828
20254TIP3   OH282252   2.006   0.906  11.842 -0.5960  0.3832 -0.4799
20254TIP3    H182253   1.994   0.996  11.872 -0.7502 -0.3552  1.7689
20254TIP3    H282254   1.917   0.874  11.825 -0.7187 -0.0153  0.8314
20255TIP3   OH282255   5.517   4.690   0.961 -0.9181 -0.1249  0.3385
20255TIP3    H182256   5.517   4.701   1.056 -0.7968  0.8244  0.2356
20255TIP3    H282257   5.459   4.760   0.929 -1.1294 -0.5726 -0.2693
20256TIP3   OH282258   0.049   4.999  15.602  0.1477 -0.2041  0.0731
20256TIP3    H182259   0.008   5.085  15.600 -1.4424 -0.9431  0.0301
20256TIP3    H282260   0.143   5.017  15.614 -0.3027  1.4770  1.1967
20257LIG     O182261   5.174   5.414  16.400 -0.3010 -0.6113  0.5319
20257LIG     O282262   5.175   5.182  16.457 -0.7155  0.5983 -0.3564
20257LIG     O382263   5.180   5.181  16.229 -0.0552 -0.2861  0.8005
20257LIG     O482264   5.032   5.461  16.669  0.0737  0.1972  1.1142
20257LIG     O582265   4.825   5.398  16.489 -0.3457  0.0698 -0.4715
20257LIG     O682266   5.449   5.019  16.436 -0.1825  0.1586 -0.1275
20257LIG     O782267   5.164   4.894  16.451  0.1580 -0.4470 -0.3640
20257LIG     O882268   5.086   4.814  16.180  1.0284  0.1465 -0.3515
20257LIG     O982269   5.387   5.233  16.632  0.8941  0.3401 -0.9353
20257LIG    O1082270   5.079   5.405  16.120 -0.1738 -0.2204  0.8046
20257LIG    O1182271   5.123   5.078  15.945 -0.5750  0.1213 -0.2658
20257LIG     C182272   5.183   5.317  16.507  0.9912  0.7982 -0.6066
20257LIG     C282273   5.046   5.340  16.585 -0.1565  0.0689  0.8104
20257LIG     C382274   4.957   5.349  16.464 -0.2587  0.0258  0.3400
20257LIG     C482275   5.030   5.446  16.365  0.1839  0.4497 -0.0188
20257LIG     C582276   5.265   5.168  16.344 -0.2885 -0.2790  0.5388
20257LIG     C682277   5.341   5.036  16.344  0.3139  0.2417  0.0977
20257LIG     C782278   5.252   4.916  16.341  0.3712  0.8692  0.0488
20257LIG     C882279   5.179   4.927  16.204 -0.7588 -0.3458  0.5960
20257LIG     C982280   5.108   5.062  16.200 -0.2534  0.0784 -0.7321
20257LIG    C1082281   5.314   5.350  16.577  0.1772 -0.1812  0.3159
20257LIG    C1182282   4.979   5.438  16.215  0.5996 -0.2706 -0.0851
20257LIG    C1282283   5.037   5.076  16.062  0.2397 -0.2598 -0.2218
20257LIG     H182284   5.025   5.253  16.650 -0.2526  0.1165  0.8413
20257LIG     H282285   4.967   5.259  16.402  0.1088  0.1079  0.2816
20257LIG     H382286   5.015   5.551  16.391  0.6526  0.4489  0.2438
20257LIG     H482287   5.341   5.249  16.341  0.3839 -0.8891  0.6933
20257LIG     H582288   5.403   5.034  16.251 -2.7508  3.1280 -2.1160
20257LIG     H682289   5.315   4.825  16.332 -1.0085 -0.6364  4.3031
20257LIG     H782290   5.249   4.927  16.118  1.5173  1.1999  2.3900
20257LIG     H882291   5.024   5.062  16.273  1.9183  2.1137  1.8523
20257LIG     H982292   5.380   5.384  16.494  1.1765 -0.1956  1.0952
20257LIG    H1082293   5.305   5.442  16.639  0.9560 -0.2845  0.5956
20257LIG    H1182294   4.894   5.367  16.211 -0.4732  0.9004  1.4813
20257LIG    H1282295   4.945   5.538  16.183  2.0495  0.4565  0.5878
20257LIG    H1382296   4.963   4.994  16.049  0.9306 -0.7284 -1.2304
20257LIG    H1482297   4.982   5.172  16.051  1.7574  0.8722  1.7363
20257LIG    H1582298   4.938   5.478  16.670  0.3699  2.0555  0.2616
20257LIG    H1682299   4.759   5.333  16.514  0.5170 -0.6770 -0.1048
20257LIG    H1782300   5.500   5.100  16.436 -0.9403  0.6516 -0.7835
20257LIG    H1882301   5.109   4.818  16.435 -1.0354  0.6590 -1.6057
20257LIG    H1982302   5.104   4.799  16.087  2.2833 -0.9827  0.0612
20257LIG    H2082303   5.462   5.273  16.678  0.4445  0.0993  0.0226
20257LIG    H2182304   5.116   5.326  16.159 -1.6593 -0.7499  1.1809
20257LIG    H2282305   5.059   5.084  15.873 -2.4221 -3.3782  0.9870
   6.82013   6.82013  17.29240
